
                                 *****************
                                 * O   R   C   A *
                                 *****************

                                            #,                                       
                                            ###                                      
                                            ####                                     
                                            #####                                    
                                            ######                                   
                                           ########,                                 
                                     ,,################,,,,,                         
                               ,,#################################,,                 
                          ,,##########################################,,             
                       ,#########################################, ''#####,          
                    ,#############################################,,   '####,        
                  ,##################################################,,,,####,       
                ,###########''''           ''''###############################       
              ,#####''   ,,,,##########,,,,          '''####'''          '####       
            ,##' ,,,,###########################,,,                        '##       
           ' ,,###''''                  '''############,,,                           
         ,,##''                                '''############,,,,        ,,,,,,###''
      ,#''                                            '''#######################'''  
     '                                                          ''''####''''         
             ,#######,   #######,   ,#######,      ##                                
            ,#'     '#,  ##    ##  ,#'     '#,    #''#        ,####,    ,#,          
            ##       ##  ##   ,#'  ##            #'  '#       #'       ,# #          
            ##       ##  #######   ##           ,######,      #####,      #          
            '#,     ,#'  ##    ##  '#,     ,#' ,#      #,     #,   #      #          
             '#######'   ##     ##  '#######'  #'      '#     '####' #    #          



                #########################################################
                #                        -***-                          #
                #          Department of theory and spectroscopy        #
                #                                                       #
                #                      Frank Neese                      #
                #                                                       #
                #     Directorship, Architecture, Infrastructure        #
                #                    SHARK, DRIVERS                     #
                #        Core code/Algorithms in most modules           #
                #                                                       #
                #        Max Planck Institute fuer Kohlenforschung      #
                #                Kaiser Wilhelm Platz 1                 #
                #                 D-45470 Muelheim/Ruhr                 #
                #                      Germany                          #
                #                                                       #
                #                  All rights reserved                  #
                #                        -***-                          #
                #########################################################


                         Program Version 6.1.0-f.0  -   RELEASE   -


 With contributions from (in alphabetic order):
[Max-Planck-Institut fuer Kohlenforschung]                               
  Daniel Aravena         : Magnetic Suceptibility                        
  Michael Atanasov       : Ab Initio Ligand Field Theory (pilot matlab implementation)
  Alexander A. Auer      : GIAO ZORA, VPT2 properties, NMR spectrum      
  Ute Becker             : All parallelization in ORCA, NUMFREQ, NUMCALC 
  Giovanni Bistoni       : ED, misc. LED, open-shell LED, HFLD           
  Dmytro Bykov           : pre 5.0 version of the SCF Hessian            
  Marcos Casanova-Páez   : Triplet and SCS-CIS(D). UHF-(DLPNO)-IP/EA/STEOM-CCSD. UHF-CVS-IP/STEOM-CCSD   
  Vijay G. Chilkuri      : MRCI spin determinant printing, contributions to CSF-ICE 
  Pauline Colinet        : FMM embedding                                 
  Dipayan Datta          : RHF DLPNO-CCSD density                        
  Achintya Kumar Dutta   : EOM-CC, STEOM-CC                              
  Nicolas Foglia         : Exact transition moments, OPA infrastructure, MCD improvements    
  Dmitry Ganyushin       : Spin-Orbit,Spin-Spin,Magnetic field MRCI      
  Miquel Garcia-Rates    : C-PCM and meta-GGA Hessian, CCSD/C-PCM, Gaussian charge scheme 
  Tiago L. C. Gouveia    : GS-ROHF, GS-ROCIS                             
  Yang Guo               : DLPNO-NEVPT2, F12-NEVPT2, CIM, IAO-localization        
  Andreas Hansen         : Spin unrestricted coupled pair/coupled cluster methods 
  Ingolf Harden          : AUTO-CI MPn and infrastructure                
  Benjamin Helmich-Paris : MC-RPA, TRAH-(SCF,CASSCF), AVAS, COSX integrals, SCF dyn. polar., MC-PDFT, srDFT 
  Lee Huntington         : MR-EOM, pCC                                   
  Robert Izsak           : Overlap fitted RIJCOSX, COSX-SCS-MP3, EOM     
  Riya Kayal             : Wick's Theorem for AUTO-CI, AUTO-CI UHF-CCSDT 
  Emily Kempfer          : AUTO-CI RHF CISDT and CCSDT, approximate NEVPT4
  Christian Kollmar      : KDIIS, OOCD, Brueckner-CCSD(T), CCSD density, CASPT2, CASPT2-K, improved NEVPT2 
  Axel Koslowski         : Symmetry handling                             
  Simone Kossmann        : meta-GGA functionals, TD-DFT gradient, OOMP2, (MP2 Hessian; deprecated post 5.0) 
  Lucas Lang             : DCDCAS, Hyperfine gauge corrections, ICE-SOC+SSC
  Marvin Lechner         : AUTO-CI (C++ implementation), FIC-MRCC        
  Spencer Leger          : CASSCF response                               
  Dagmar Lenk            : GEPOL surface, SMD, ORCA-2-JSON               
  Dimitrios Liakos       : Extrapolation schemes; Compound Job, Property file
  Dimitrios Manganas     : Further ROCIS development; embedding schemes. LFT, Crystal Embedding 
  Dimitrios Pantazis     : SARC Basis sets                               
  Anastasios Papadopoulos: AUTO-CI, single reference methods and gradients 
  Taras Petrenko         : pre 6.0 DFT Hessian and TD-DFT gradient,  ECA, NRVS 
  Petra Pikulova         : Analytic Raman intensities                    
  Peter Pinski           : DLPNO-MP2, DLPNO-MP2 Gradient                 
  Shashank Vittal Rao    : ES-AILFT, MagRelax                            
  Christoph Reimann      : Effective Core Potentials                     
  Marius Retegan         : Local ZFS, SOC                                
  Christoph Riplinger    : Optimizer, TS searches, QM/MM, DLPNO-CCSD(T), (RO)-DLPNO pert. Triples 
  Michael Roemelt        : Original ROCIS implementation, recursive CI coupling coefficients
  Masaaki Saitow         : Open-shell DLPNO-CCSD energy and density      
  Barbara Sandhoefer     : DKH picture change effects                    
  Yorick L. A. Schmerwitz: GMF and freeze-and-release deltaSCF, NEB S-IDPP initial path                    
  Kantharuban Sivalingam : CASSCF convergence/infrastructure, NEVPT2, NEVPT3, NEVPT4(SD), FIC-MRCI and CEPA variants
  Bernardo de Souza      : ESD, SOC TD-DFT                               
  Georgi L. Stoychev     : AutoAux, RI-MP2 NMR, DLPNO-MP2 response, X2C  
  Van Anh Tran           : RI-MP2 g-tensors                              
  Willem Van den Heuvel  : Paramagnetic NMR                              
  Zikuan Wang            : NOTCH, Electric field optimization            
  Frank Wennmohs         : Technical directorship and infrastructure     
  Hang Xu                : AUTO-CI-Response properties                   
                                                                         
[FACCTs GmbH]                                                            
  Markus Bursch, Nicolas Foglia, Miquel Garcia-Rates, Ingolf Harden, Hagen Neugebauer, Anastasios Papadopoulos, 
  Christoph Riplinger, Bernardo de Souza, Georgi L. Stoychev                                                    
                                                                 
  APM, various basis sets, CI-OPT, improved COSX, DLPNO-Multilevel,           
  DOCKER, DRACO, updates on ESD, Fragmentator, GOAT, IRC, LR-CPCM, L-BFGS, MBIS, meta-GGA TD-DFT gradient, ML-optimized integration grids, 
  MM, NACMEs, nearIR, NEB, NEB-TS, NL-DFT gradient (VV10), 2- and 3-layer-ONIOM, interface openCOSMO-RS, QMMM,   
  Crystal-QMMM, RESP, rigid body optimization, SF, symmetry and pop. for TD-DFT, various functionals, SOLVATOR                                   
                                                                         
[Other institutions]                                                     
  V. Asgeirsson          : NEB                                           
  Christoph Bannwarth    : sTDA-DFT, sTD-DFT, PBEh-3c, B97-3c, D3        
  Giovanni Bistoni       : ETS/NOCV, ADLD/ADEX, COVALED                  
  Martin Brehm           : Molecular dynamics                            
  Ronald Cardenas        : ETS/NOCV                                      
  Martina Colucci        : COVALED                                       
  Sebastian Ehlert       : rSCAN, r2SCAN, r2SCAN-3c, D4, dhf basis sets  
  Marvin Friede          : D4 for Fr, Ra, Ac-Lr                          
  Lars Goerigk           : TD-DFT with DH, B97 family of functionals     
  Stefan Grimme          : VdW corrections, initial TS optimization, DFT functionals, gCP, sTDA/sTD-DF 
  Waldemar Hujo          : DFT-NL                                        
  H. Jonsson             : NEB                                           
  Holger Kruse           : gCP                                           
  Marcel Mueller         : wB97X-3c, vDZP basis set                      
  Hagen Neugebauer       : wr2SCAN, Native XTB                           
  Gianluca Regni         : ADLD/ADEX                                     
  Tobias Risthaus        : pre 6.0 range-separated hybrid DFT and stability analysis
  Lukas Wittmann         : regularized MP2, r2SCAN double-hybrids, wr2SCAN        
                                                                         
We gratefully acknowledge several colleagues who have allowed us to      
interface, adapt or use parts of their codes:                            
  Ed Valeev, F. Pavosevic, A. Kumar             : LibInt (2-el integral package), F12 methods 
  Garnet Chan, S. Sharma, J. Yang, R. Olivares  : DMRG                   
  Ulf Ekstrom                                   : XCFun DFT Library      
  Mihaly Kallay                                 : mrcc  (arbitrary order and MRCC methods)
  Frank Weinhold                                : gennbo (NPA and NBO analysis)           
  Simon Mueller                                 : openCOSMO-RS                            
  Christopher J. Cramer and Donald G. Truhlar   : smd solvation model                     
  S Lehtola, MJT Oliveira, MAL Marques          : LibXC Library                           
  Liviu Ungur et al                             : ANISO software                          


 Your calculation uses the libint2 library for the computation of 2-el integrals
 For citations please refer to: http://libint.valeyev.net

 Your ORCA version has been built with support for libXC version: 7.0.0
 For citations please refer to: https://libxc.gitlab.io

 This ORCA versions uses:
   CBLAS   interface :  Fast vector & matrix operations
   LAPACKE interface :  Fast linear algebra routines
   SCALAPACK package :  Parallel linear algebra routines
   Shared memory     :  Shared parallel matrices
   BLAS/LAPACK       :  OpenBLAS 0.3.29  USE64BITINT DYNAMIC_ARCH NO_AFFINITY Cooperlake SINGLE_THREADED
        Core in use  :  Cooperlake
   Copyright (c) 2011-2014, The OpenBLAS Project


  ***********************************
  * Starting time: Tue Mar  3 23:15:54 2026
  * Host name:     c09b01n01
  * Process ID:    1881300
  * Working dir.:  /lustre1/jiangy/jiangy_liuxy/NMR/B9D7C2-SSRR
  ***********************************

NOTE: MaxCore=6000 MB was set to SCF,MP2,MDCI,CIPSI,MRCI,RASCI and CIS
      => If you want to overwrite this, your respective input block should be placed after the MaxCore statement


***************************************
The coordinates will be read from file: conf-8.xyz
***************************************


Your calculation utilizes the atom-pairwise dispersion correction
based on EEQ partial charges (D4)


Warning: RI is on but no J-basis has been assigned. Assigning Def2/J (nothing to worry about!)
================================================================================

----- Orbital basis set information -----
Your calculation utilizes the basis: def2-TZVP
   F. Weigend and R. Ahlrichs, Phys. Chem. Chem. Phys. 7, 3297 (2005).

----- AuxJ basis set information -----
Your calculation utilizes the auxiliary basis: def2/J
   H-Rn: F. Weigend, Phys. Chem. Chem. Phys. 8, 1057 (2006).
   Fr-Lr: K. Eichkorn, F. Weigend, O. Treutler, R. Ahlrichs; Theor. Chem. Acc. 97, 119 (1997).

================================================================================
                                        WARNINGS
                       Please study these warnings very carefully!
================================================================================


WARNING: Geometry Optimization
  ===> : Switching off AutoStart
         For restart on a previous wavefunction, please use MOREAD

================================================================================
                                       INPUT FILE
================================================================================
NAME = opt-conf-8.inp
|  1> ! B3LYP OPT FREQ DEF2-TZVP D4 CPCM(Methanol) 
|  2> ! TightOpt
|  3> %pal nprocs 64 end
|  4> %maxcore 6000
|  5> 
|  6> %cpcm
|  7> end
|  8> 
|  9> %freq
| 10>    Temp 298.15
| 11> end
| 12> 
| 13> * xyzfile 0 1 conf-8.xyz
| 14> 
| 15> 
| 16>                          ****END OF INPUT****
================================================================================

                       *****************************
                       * Geometry Optimization Run *
                       *****************************

Geometry optimization settings:
Update method            Update   .... BFGS
Choice of coordinates    CoordSys .... (2022) Redundant Internals
Initial Hessian          InHess   .... Almloef's Model
Max. no of cycles        MaxIter  .... 246

Convergence Tolerances:
Energy Change            TolE     ....  1.0000e-06 Eh
Max. Gradient            TolMAXG  ....  1.0000e-04 Eh/bohr
RMS Gradient             TolRMSG  ....  3.0000e-05 Eh/bohr
Max. Displacement        TolMAXD  ....  1.0000e-03 bohr
RMS Displacement         TolRMSD  ....  6.0000e-04 bohr
Strict Convergence                .... False

------------------------------------------------------------------------------
                        ORCA OPTIMIZATION COORDINATE SETUP
------------------------------------------------------------------------------

The optimization will be done in redundant internal coordinates (2022)
Making redundant internal coordinates   ...  (2022 redundants) done
Evaluating the initial hessian          ...  (Almloef) done
Evaluating the coordinates              ...  done
Calculating the B-matrix                .... done
Calculating the G-matrix                .... done
The number of degrees of freedom        ....  407

    -----------------------------------------------------------------
                    Redundant Internal Coordinates


    -----------------------------------------------------------------
         Definition                    Initial Value    Approx d2E/dq
    -----------------------------------------------------------------
      1. B(C   1,C   0)                  1.4021         0.597583   
      2. B(C   2,C   1)                  1.4002         0.601885   
      3. B(C   3,C   2)                  1.3885         0.628310   
      4. B(C   4,C   3)                  1.3866         0.632668   
      5. B(C   5,C   4)                  1.3859         0.634375   
      6. B(C   5,C   0)                  1.3869         0.631882   
      7. B(C   6,C   4)                  1.5033         0.412009   
      8. B(C   7,C   6)                  1.5411         0.358651   
      9. B(C   8,C   7)                  1.5491         0.348290   
     10. B(C   9,C   8)                  1.5384         0.362264   
     11. B(C  10,C   9)                  1.5031         0.412384   
     12. B(C  11,C  10)                  1.3939         0.615990   
     13. B(C  12,C  11)                  1.3819         0.643752   
     14. B(C  13,C  12)                  1.4042         0.593036   
     15. B(C  14,C  13)                  1.3827         0.641844   
     16. B(C  15,C  10)                  1.3863         0.633410   
     17. B(C  15,C  14)                  1.3861         0.633803   
     18. B(C  16,C   7)                  1.5347         0.367120   
     19. B(C  17,C   8)                  1.5410         0.358799   
     20. B(O  18,C   2)                  1.3655         0.612288   
     21. B(O  19,C   0)                  1.3667         0.609589   
     22. B(O  20,C   1)                  1.3760         0.589182   
     23. B(O  21,C  13)                  1.3627         0.618634   
     24. B(O  22,C  12)                  1.3813         0.577726   
     25. B(C  23,O  20)                  1.4247         0.492569   
     26. B(C  24,C  23)                  1.5503         0.346701   
     27. B(C  25,C  24)                  1.5167         0.392252   
     28. B(C  26,C  23)                  1.5330         0.369421   
     29. B(O  27,C  26)                  1.4018         0.535810   
     30. B(C  28,C  25)                  1.3930         0.618015   
     31. B(C  29,C  28)                  1.3811         0.645471   
     32. B(C  30,C  29)                  1.4041         0.593215   
     33. B(C  31,C  30)                  1.3814         0.644937   
     34. B(C  32,C  31)                  1.3847         0.637082   
     35. B(C  32,C  25)                  1.3831         0.640860   
     36. B(C  33,O  19)                  1.4073         0.525075   
     37. B(C  34,O  18)                  1.4081         0.523666   
     38. B(C  35,O  22)                  1.4050         0.529573   
     39. B(O  36,C  24)                  1.3999         0.539587   
     40. B(O  37,C  16)                  1.4074         0.524863   
     41. B(O  38,C  17)                  1.3996         0.540248   
     42. B(O  39,C  29)                  1.3743         0.592740   
     43. B(O  40,C  30)                  1.3673         0.608352   
     44. B(C  41,O  39)                  1.4083         0.523216   
     45. B(H  42,C   3)                  1.0779         0.376403   
     46. B(H  43,C   5)                  1.0778         0.376647   
     47. B(H  44,C   6)                  1.0911         0.358664   
     48. B(H  45,C   6)                  1.0920         0.357463   
     49. B(H  46,C   7)                  1.0959         0.352435   
     50. B(H  47,C   8)                  1.0950         0.353495   
     51. B(H  48,C   9)                  1.0902         0.359773   
     52. B(H  49,C   9)                  1.0943         0.354448   
     53. B(H  50,C  11)                  1.0780         0.376343   
     54. B(H  51,C  14)                  1.0781         0.376143   
     55. B(H  52,C  15)                  1.0799         0.373666   
     56. B(H  53,C  16)                  1.0933         0.355767   
     57. B(H  54,C  16)                  1.0977         0.350072   
     58. B(H  55,C  17)                  1.0951         0.353428   
     59. B(H  56,C  17)                  1.1024         0.344095   
     60. B(H  57,O  21)                  0.9666         0.507514   
     61. B(H  57,O  22)                  2.1213         0.010000   
     62. B(H  58,C  23)                  1.0939         0.354958   
     63. B(H  59,C  24)                  1.0974         0.350422   
     64. B(H  60,C  26)                  1.0916         0.357958   
     65. B(H  61,C  26)                  1.0985         0.348981   
     66. B(H  62,O  20)                  2.3082         0.010000   
     67. B(H  62,O  27)                  0.9656         0.509360   
     68. B(H  63,C  28)                  1.0782         0.376060   
     69. B(H  64,C  31)                  1.0782         0.375994   
     70. B(H  65,C  32)                  1.0783         0.375872   
     71. B(H  66,C  33)                  1.0945         0.354189   
     72. B(H  67,C  33)                  1.0940         0.354871   
     73. B(H  68,C  33)                  1.0888         0.361729   
     74. B(H  69,C  34)                  1.0939         0.354943   
     75. B(H  70,C  34)                  1.0940         0.354843   
     76. B(H  71,C  34)                  1.0894         0.360941   
     77. B(H  72,C  35)                  1.0890         0.361465   
     78. B(H  73,H  42)                  2.8470         0.010000   
     79. B(H  73,C  35)                  1.0952         0.353242   
     80. B(H  74,C  35)                  1.0941         0.354721   
     81. B(H  75,O  20)                  2.2587         0.010000   
     82. B(H  75,O  19)                  2.1002         0.010000   
     83. B(H  75,O  36)                  0.9730         0.495697   
     84. B(H  76,O  40)                  1.9427         0.014066   
     85. B(H  76,O  37)                  0.9708         0.499764   
     86. B(H  77,O  37)                  1.8946         0.016782   
     87. B(H  77,O  38)                  0.9715         0.498455   
     88. B(H  78,O  39)                  2.1118         0.010000   
     89. B(H  78,O  40)                  0.9694         0.502321   
     90. B(H  79,H  70)                  2.4733         0.010000   
     91. B(H  79,C  41)                  1.0929         0.356343   
     92. B(H  80,O  21)                  2.6270         0.010000   
     93. B(H  80,C  41)                  1.0883         0.362341   
     94. B(H  81,C  41)                  1.0943         0.354420   
     95. A(C   1,C   0,O  19)          114.6449         0.427088   
     96. A(C   5,C   0,O  19)          124.9425         0.431385   
     97. A(C   1,C   0,C   5)          120.4102         0.432675   
     98. A(C   0,C   1,O  20)          116.2600         0.424492   
     99. A(C   0,C   1,C   2)          119.4264         0.428913   
    100. A(C   2,C   1,O  20)          124.1445         0.425037   
    101. A(C   3,C   2,O  18)          123.8553         0.431288   
    102. A(C   1,C   2,C   3)          119.1536         0.432792   
    103. A(C   1,C   2,O  18)          116.9907         0.427976   
    104. A(C   4,C   3,H  42)          118.4782         0.356790   
    105. A(C   2,C   3,H  42)          120.2302         0.356372   
    106. A(C   2,C   3,C   4)          121.2846         0.436695   
    107. A(C   5,C   4,C   6)          121.5005         0.405216   
    108. A(C   3,C   4,C   6)          118.8913         0.405023   
    109. A(C   3,C   4,C   5)          119.6035         0.437452   
    110. A(C   4,C   5,H  43)          119.2459         0.356993   
    111. A(C   0,C   5,H  43)          120.6972         0.356754   
    112. A(C   0,C   5,C   4)          120.0568         0.437354   
    113. A(C   4,C   6,H  44)          110.3800         0.329375   
    114. A(C   7,C   6,H  45)          109.1058         0.321770   
    115. A(C   4,C   6,C   7)          111.3361         0.366924   
    116. A(H  44,C   6,H  45)          107.8248         0.290322   
    117. A(C   4,C   6,H  45)          108.3710         0.329193   
    118. A(C   7,C   6,H  44)          109.7367         0.321947   
    119. A(C   6,C   7,C  16)          108.2308         0.359761   
    120. A(C   8,C   7,C  16)          115.2218         0.357971   
    121. A(C  16,C   7,H  46)          106.9336         0.322254   
    122. A(C   8,C   7,H  46)          107.0161         0.319490   
    123. A(C   6,C   7,H  46)          107.2844         0.321025   
    124. A(C   6,C   7,C   8)          111.7622         0.356554   
    125. A(C   7,C   8,C  17)          114.8422         0.356579   
    126. A(C  17,C   8,H  47)          105.5585         0.321204   
    127. A(C   7,C   8,C   9)          111.6647         0.357161   
    128. A(C   9,C   8,H  47)          108.1613         0.321710   
    129. A(C   7,C   8,H  47)          107.0466         0.319647   
    130. A(C   9,C   8,C  17)          109.1731         0.358972   
    131. A(H  48,C   9,H  49)          107.1327         0.290077   
    132. A(C  10,C   9,H  48)          109.0681         0.329593   
    133. A(C  10,C   9,H  49)          109.1632         0.328782   
    134. A(C   8,C   9,C  10)          114.3629         0.367613   
    135. A(C   8,C   9,H  48)          109.0374         0.322639   
    136. A(C   8,C   9,H  49)          107.8316         0.321852   
    137. A(C   9,C  10,C  11)          121.1069         0.403183   
    138. A(C  11,C  10,C  15)          118.6083         0.435232   
    139. A(C   9,C  10,C  15)          120.2802         0.405172   
    140. A(C  10,C  11,C  12)          120.8464         0.436504   
    141. A(C  10,C  11,H  50)          119.1468         0.355166   
    142. A(C  12,C  11,H  50)          120.0066         0.357835   
    143. A(C  11,C  12,C  13)          119.9591         0.433530   
    144. A(C  13,C  12,O  22)          114.5204         0.422427   
    145. A(C  11,C  12,O  22)          125.5205         0.428678   
    146. A(C  12,C  13,O  21)          120.3655         0.427631   
    147. A(C  12,C  13,C  14)          119.2602         0.433298   
    148. A(C  14,C  13,O  21)          120.3741         0.433747   
    149. A(C  13,C  14,H  51)          118.6096         0.357622   
    150. A(C  13,C  14,C  15)          120.2010         0.438519   
    151. A(C  15,C  14,H  51)          121.1890         0.356857   
    152. A(C  14,C  15,H  52)          119.4675         0.356457   
    153. A(C  10,C  15,H  52)          119.4154         0.356419   
    154. A(C  10,C  15,C  14)          121.1094         0.437474   
    155. A(O  37,C  16,H  54)          110.3560         0.339446   
    156. A(C   7,C  16,H  54)          107.5732         0.321899   
    157. A(O  37,C  16,H  53)          106.2367         0.340363   
    158. A(C   7,C  16,H  53)          110.9360         0.322751   
    159. A(C   7,C  16,O  37)          113.8032         0.381704   
    160. A(H  53,C  16,H  54)          107.8056         0.289004   
    161. A(O  38,C  17,H  56)          111.0190         0.340109   
    162. A(C   8,C  17,O  38)          115.0491         0.382099   
    163. A(H  55,C  17,H  56)          107.3816         0.287929   
    164. A(C   8,C  17,H  56)          109.0769         0.319792   
    165. A(O  38,C  17,H  55)          105.2504         0.341635   
    166. A(C   8,C  17,H  55)          108.7207         0.321194   
    167. A(C   2,O  18,C  34)          118.2918         0.414759   
    168. A(C   0,O  19,C  33)          118.4481         0.414631   
    169. A(C   1,O  20,C  23)          119.2788         0.407491   
    170. A(C  13,O  21,H  57)          107.7318         0.368440   
    171. A(C  12,O  22,C  35)          118.1455         0.411320   
    172. A(C  26,C  23,H  58)          109.6230         0.322961   
    173. A(C  24,C  23,H  58)          110.9411         0.319624   
    174. A(O  20,C  23,H  58)          110.2176         0.336648   
    175. A(C  24,C  23,C  26)          111.1347         0.358073   
    176. A(O  20,C  23,C  26)          104.7950         0.377935   
    177. A(O  20,C  23,C  24)          109.9623         0.373814   
    178. A(C  23,C  24,O  36)          109.7704         0.379752   
    179. A(O  36,C  24,H  59)          106.2399         0.341077   
    180. A(C  25,C  24,H  59)          109.1895         0.325469   
    181. A(C  23,C  24,H  59)          108.2866         0.318954   
    182. A(C  25,C  24,O  36)          113.2544         0.387990   
    183. A(C  23,C  24,C  25)          109.9271         0.361750   
    184. A(C  28,C  25,C  32)          119.4575         0.436408   
    185. A(C  24,C  25,C  32)          121.3174         0.402439   
    186. A(C  24,C  25,C  28)          119.2226         0.399874   
    187. A(O  27,C  26,H  61)          110.9626         0.340442   
    188. A(H  60,C  26,H  61)          109.1006         0.289141   
    189. A(C  23,C  26,H  61)          108.5284         0.322064   
    190. A(O  27,C  26,H  60)          106.7766         0.341891   
    191. A(C  23,C  26,H  60)          109.9744         0.323407   
    192. A(C  23,C  26,O  27)          111.4692         0.383491   
    193. A(C  26,O  27,H  62)          106.8577         0.359718   
    194. A(C  29,C  28,H  63)          120.3424         0.357952   
    195. A(C  25,C  28,H  63)          119.2661         0.355319   
    196. A(C  25,C  28,C  29)          120.3902         0.436972   
    197. A(C  30,C  29,O  39)          114.6798         0.424392   
    198. A(C  28,C  29,O  39)          125.7028         0.430863   
    199. A(C  28,C  29,C  30)          119.6173         0.433761   
    200. A(C  31,C  30,O  40)          120.3674         0.432816   
    201. A(C  29,C  30,O  40)          119.9065         0.426371   
    202. A(C  29,C  30,C  31)          119.7201         0.433697   
    203. A(C  32,C  31,H  64)          120.8521         0.357146   
    204. A(C  30,C  31,H  64)          119.0277         0.357891   
    205. A(C  30,C  31,C  32)          120.1179         0.439308   
    206. A(C  31,C  32,H  65)          119.9777         0.357126   
    207. A(C  25,C  32,H  65)          119.5077         0.357485   
    208. A(C  25,C  32,C  31)          120.5092         0.438806   
    209. A(H  67,C  33,H  68)          109.3020         0.290378   
    210. A(H  66,C  33,H  68)          109.3789         0.290290   
    211. A(O  19,C  33,H  68)          105.5827         0.341333   
    212. A(H  66,C  33,H  67)          109.5025         0.289420   
    213. A(O  19,C  33,H  67)          111.5099         0.340242   
    214. A(O  19,C  33,H  66)          111.4665         0.340133   
    215. A(H  69,C  34,H  71)          109.0146         0.290288   
    216. A(O  18,C  34,H  71)          105.5830         0.341055   
    217. A(H  69,C  34,H  70)          109.4337         0.289513   
    218. A(O  18,C  34,H  70)          111.6011         0.340085   
    219. A(O  18,C  34,H  69)          111.4432         0.340101   
    220. A(H  70,C  34,H  71)          109.6680         0.290275   
    221. A(H  73,C  35,H  74)          109.3711         0.289280   
    222. A(H  72,C  35,H  74)          109.3504         0.290325   
    223. A(O  22,C  35,H  74)          111.4643         0.340704   
    224. A(H  72,C  35,H  73)          109.2331         0.290135   
    225. A(O  22,C  35,H  73)          111.5976         0.340466   
    226. A(O  22,C  35,H  72)          105.7319         0.341779   
    227. A(C  24,O  36,H  75)          107.3015         0.358485   
    228. A(C  16,O  37,H  76)          108.1141         0.357298   
    229. A(C  17,O  38,H  77)          108.7726         0.358898   
    230. A(C  29,O  39,C  41)          118.3731         0.412312   
    231. A(C  30,O  40,H  78)          107.8293         0.366734   
    232. A(H  80,C  41,H  81)          110.0286         0.290397   
    233. A(H  79,C  41,H  81)          109.3754         0.289638   
    234. A(O  39,C  41,H  81)          111.0610         0.339969   
    235. A(H  79,C  41,H  80)          108.9642         0.290644   
    236. A(O  39,C  41,H  80)          105.6033         0.341227   
    237. A(O  39,C  41,H  79)          111.7298         0.340276   
    238. D(O  20,C   1,C   0,O  19)      7.5342         0.024607   
    239. D(C   2,C   1,C   0,O  19)   -176.9961         0.024607   
    240. D(C   2,C   1,C   0,C   5)      2.4728         0.024607   
    241. D(O  20,C   1,C   0,C   5)   -172.9969         0.024607   
    242. D(O  18,C   2,C   1,C   0)    179.3045         0.024982   
    243. D(C   3,C   2,C   1,C   0)     -0.9006         0.024982   
    244. D(C   3,C   2,C   1,O  20)    174.1896         0.024982   
    245. D(O  18,C   2,C   1,O  20)     -5.6054         0.024982   
    246. D(C   4,C   3,C   2,C   1)     -1.4440         0.027362   
    247. D(H  42,C   3,C   2,O  18)     -0.6830         0.027362   
    248. D(C   4,C   3,C   2,O  18)    178.3360         0.027362   
    249. D(H  42,C   3,C   2,C   1)    179.5370         0.027362   
    250. D(C   6,C   4,C   3,H  42)      0.4813         0.027768   
    251. D(C   5,C   4,C   3,H  42)   -178.7379         0.027768   
    252. D(C   5,C   4,C   3,C   2)      2.2264         0.027768   
    253. D(C   6,C   4,C   3,C   2)   -178.5544         0.027768   
    254. D(H  43,C   5,C   4,C   6)      0.1502         0.027928   
    255. D(H  43,C   5,C   4,C   3)    179.3484         0.027928   
    256. D(C   0,C   5,C   4,C   3)     -0.6284         0.027928   
    257. D(C   4,C   5,C   0,O  19)    177.7018         0.027694   
    258. D(H  43,C   5,C   0,C   1)    178.3142         0.027694   
    259. D(H  43,C   5,C   0,O  19)     -2.2747         0.027694   
    260. D(C   0,C   5,C   4,C   6)   -179.8266         0.027928   
    261. D(C   4,C   5,C   0,C   1)     -1.7094         0.027694   
    262. D(H  45,C   6,C   4,C   3)     45.4624         0.012568   
    263. D(H  44,C   6,C   4,C   5)    -17.4645         0.012568   
    264. D(H  44,C   6,C   4,C   3)    163.3317         0.012568   
    265. D(C   7,C   6,C   4,C   5)    104.6671         0.012568   
    266. D(C   7,C   6,C   4,C   3)    -74.5366         0.012568   
    267. D(C   8,C   7,C   6,H  44)    -80.4682         0.010325   
    268. D(C   8,C   7,C   6,C   4)    157.0289         0.010325   
    269. D(C  16,C   7,C   6,H  45)    165.3855         0.010325   
    270. D(C  16,C   7,C   6,H  44)     47.4520         0.010325   
    271. D(C   8,C   7,C   6,H  45)     37.4654         0.010325   
    272. D(C  16,C   7,C   6,C   4)    -75.0510         0.010325   
    273. D(C  17,C   8,C   7,H  46)   -150.7765         0.010000   
    274. D(C  17,C   8,C   7,C  16)    -32.0357         0.010000   
    275. D(C  17,C   8,C   7,C   6)     92.0470         0.010000   
    276. D(C   9,C   8,C   7,C  16)     92.9466         0.010000   
    277. D(C   9,C   8,C   7,H  46)    -25.7942         0.010000   
    278. D(C   9,C   8,C   7,C   6)   -142.9707         0.010000   
    279. D(H  48,C   9,C   8,C  17)     57.5840         0.010520   
    280. D(H  48,C   9,C   8,C   7)    -70.4933         0.010520   
    281. D(C  10,C   9,C   8,H  47)    -65.6406         0.010520   
    282. D(C  10,C   9,C   8,C  17)    179.9708         0.010520   
    283. D(H  48,C   9,C   8,H  47)    171.9726         0.010520   
    284. D(C  10,C   9,C   8,C   7)     51.8935         0.010520   
    285. D(C  15,C  10,C   9,H  48)    -10.4613         0.012590   
    286. D(C  15,C  10,C   9,C   8)   -132.8314         0.012590   
    287. D(C  11,C  10,C   9,H  49)    -72.9155         0.012590   
    288. D(C  11,C  10,C   9,H  48)    170.3349         0.012590   
    289. D(C  11,C  10,C   9,C   8)     47.9648         0.012590   
    290. D(H  50,C  11,C  10,C  15)   -178.5792         0.026236   
    291. D(H  50,C  11,C  10,C   9)      0.6376         0.026236   
    292. D(C  12,C  11,C  10,C  15)      1.3082         0.026236   
    293. D(C  12,C  11,C  10,C   9)   -179.4750         0.026236   
    294. D(O  22,C  12,C  11,H  50)     -1.1482         0.028816   
    295. D(C  13,C  12,C  11,H  50)    178.9498         0.028816   
    296. D(O  22,C  12,C  11,C  10)    178.9654         0.028816   
    297. D(C  13,C  12,C  11,C  10)     -0.9366         0.028816   
    298. D(O  21,C  13,C  12,C  11)    179.9216         0.024215   
    299. D(C  14,C  13,C  12,O  22)    179.8815         0.024215   
    300. D(C  14,C  13,C  12,C  11)     -0.2062         0.024215   
    301. D(O  21,C  13,C  12,O  22)      0.0092         0.024215   
    302. D(H  51,C  14,C  13,O  21)      1.0376         0.028634   
    303. D(H  51,C  14,C  13,C  12)   -178.8346         0.028634   
    304. D(C  15,C  14,C  13,O  21)   -179.1744         0.028634   
    305. D(C  15,C  14,C  13,C  12)      0.9533         0.028634   
    306. D(H  52,C  15,C  14,H  51)      0.2263         0.027874   
    307. D(H  52,C  15,C  14,C  13)   -179.5560         0.027874   
    308. D(C  10,C  15,C  14,H  51)    179.2071         0.027874   
    309. D(C  10,C  15,C  14,C  13)     -0.5753         0.027874   
    310. D(H  52,C  15,C  10,C  11)    178.4276         0.027837   
    311. D(H  52,C  15,C  10,C   9)     -0.7959         0.027837   
    312. D(C  14,C  15,C  10,C  11)     -0.5537         0.027837   
    313. D(C  14,C  15,C  10,C   9)   -179.7772         0.027837   
    314. D(H  53,C  16,C   7,H  46)    178.7173         0.010785   
    315. D(H  53,C  16,C   7,C   8)     59.9306         0.010785   
    316. D(H  53,C  16,C   7,C   6)    -65.9878         0.010785   
    317. D(O  37,C  16,C   7,H  46)     58.9836         0.010785   
    318. D(O  37,C  16,C   7,C   8)    -59.8031         0.010785   
    319. D(O  37,C  16,C   7,C   6)    174.2786         0.010785   
    320. D(H  55,C  17,C   8,H  47)    -43.2356         0.010333   
    321. D(H  55,C  17,C   8,C   9)     72.8275         0.010333   
    322. D(H  55,C  17,C   8,C   7)   -160.8959         0.010333   
    323. D(O  38,C  17,C   8,H  47)   -160.9422         0.010333   
    324. D(O  38,C  17,C   8,C   9)    -44.8791         0.010333   
    325. D(O  38,C  17,C   8,C   7)     81.3976         0.010333   
    326. D(C  34,O  18,C   2,C   3)     -1.3642         0.027456   
    327. D(C  34,O  18,C   2,C   1)    178.4202         0.027456   
    328. D(C  33,O  19,C   0,C   5)     -0.8277         0.030012   
    329. D(C  33,O  19,C   0,C   1)    178.6136         0.030012   
    330. D(C  23,O  20,C   1,C   2)     58.9088         0.030325   
    331. D(C  23,O  20,C   1,C   0)   -125.8594         0.030325   
    332. D(H  57,O  21,C  13,C  14)   -176.2011         0.030979   
    333. D(H  57,O  21,C  13,C  12)      3.6697         0.030979   
    334. D(C  35,O  22,C  12,C  13)   -176.0385         0.026757   
    335. D(C  35,O  22,C  12,C  11)      4.0549         0.026757   
    336. D(H  58,C  23,O  20,C   1)    -54.6934         0.022312   
    337. D(C  26,C  23,O  20,C   1)   -172.5603         0.022312   
    338. D(C  24,C  23,O  20,C   1)     67.9215         0.022312   
    339. D(O  36,C  24,C  23,H  58)    173.2664         0.010000   
    340. D(O  36,C  24,C  23,C  26)    -64.4951         0.010000   
    341. D(O  36,C  24,C  23,O  20)     51.0795         0.010000   
    342. D(C  25,C  24,C  23,H  58)     48.0567         0.010000   
    343. D(C  25,C  24,C  23,C  26)    170.2952         0.010000   
    344. D(C  25,C  24,C  23,O  20)    -74.1302         0.010000   
    345. D(C  32,C  25,C  24,O  36)     -2.6670         0.011440   
    346. D(C  32,C  25,C  24,C  23)    120.5215         0.011440   
    347. D(C  28,C  25,C  24,H  59)     59.7555         0.011440   
    348. D(C  28,C  25,C  24,O  36)    177.9102         0.011440   
    349. D(C  28,C  25,C  24,C  23)    -58.9013         0.011440   
    350. D(H  60,C  26,C  23,H  58)     60.9597         0.010912   
    351. D(H  60,C  26,C  23,C  24)    -62.0400         0.010912   
    352. D(H  60,C  26,C  23,O  20)    179.2308         0.010912   
    353. D(O  27,C  26,C  23,H  58)    -57.2669         0.010912   
    354. D(O  27,C  26,C  23,C  24)    179.7334         0.010912   
    355. D(O  27,C  26,C  23,O  20)     61.0042         0.010912   
    356. D(H  62,O  27,C  26,H  61)     71.1768         0.022822   
    357. D(H  62,O  27,C  26,H  60)   -170.0400         0.022822   
    358. D(H  62,O  27,C  26,C  23)    -49.9107         0.022822   
    359. D(H  63,C  28,C  25,C  32)    176.0186         0.026419   
    360. D(H  63,C  28,C  25,C  24)     -4.5477         0.026419   
    361. D(C  29,C  28,C  25,C  32)     -4.3976         0.026419   
    362. D(C  29,C  28,C  25,C  24)    175.0360         0.026419   
    363. D(C  30,C  29,C  28,H  63)   -178.5715         0.028981   
    364. D(C  30,C  29,C  28,C  25)      1.8493         0.028981   
    365. D(O  39,C  29,C  28,H  63)      1.5844         0.028981   
    366. D(O  39,C  29,C  28,C  25)   -177.9949         0.028981   
    367. D(O  40,C  30,C  29,O  39)      1.1126         0.024230   
    368. D(O  40,C  30,C  29,C  28)   -178.7482         0.024230   
    369. D(C  31,C  30,C  29,O  39)   -177.9972         0.024230   
    370. D(C  31,C  30,C  29,C  28)      2.1420         0.024230   
    371. D(H  64,C  31,C  30,O  40)     -3.2233         0.028929   
    372. D(H  64,C  31,C  30,C  29)    175.8823         0.028929   
    373. D(C  32,C  31,C  30,O  40)    177.3228         0.028929   
    374. D(C  32,C  31,C  30,C  29)     -3.5716         0.028929   
    375. D(H  65,C  32,C  31,H  64)      0.7176         0.028182   
    376. D(H  65,C  32,C  31,C  30)   -179.8386         0.028182   
    377. D(C  25,C  32,C  31,H  64)   -178.4327         0.028182   
    378. D(C  25,C  32,C  31,C  30)      1.0111         0.028182   
    379. D(H  65,C  32,C  25,C  28)   -176.1827         0.028540   
    380. D(H  65,C  32,C  25,C  24)      4.3958         0.028540   
    381. D(C  31,C  32,C  25,C  28)      2.9715         0.028540   
    382. D(C  31,C  32,C  25,C  24)   -176.4499         0.028540   
    383. D(H  68,C  33,O  19,C   0)   -178.2102         0.023748   
    384. D(H  67,C  33,O  19,C   0)     63.1855         0.023748   
    385. D(H  66,C  33,O  19,C   0)    -59.5367         0.023748   
    386. D(H  71,C  34,O  18,C   2)    180.0000         0.021754   
    387. D(H  70,C  34,O  18,C   2)     60.9069         0.021754   
    388. D(H  69,C  34,O  18,C   2)    -61.7752         0.021754   
    389. D(H  74,C  35,O  22,C  12)     59.1036         0.024177   
    390. D(H  73,C  35,O  22,C  12)    -63.5100         0.024177   
    391. D(H  72,C  35,O  22,C  12)    177.8315         0.024177   
    392. D(H  75,O  36,C  24,H  59)   -163.7313         0.023160   
    393. D(H  75,O  36,C  24,C  25)     76.4143         0.023160   
    394. D(H  75,O  36,C  24,C  23)    -46.8605         0.023160   
    395. D(H  76,O  37,C  16,H  54)     56.6629         0.023728   
    396. D(H  76,O  37,C  16,H  53)    173.2628         0.023728   
    397. D(H  76,O  37,C  16,C   7)    -64.3775         0.023728   
    398. D(H  77,O  38,C  17,H  56)     77.2958         0.023220   
    399. D(H  77,O  38,C  17,H  55)   -166.8254         0.023220   
    400. D(H  77,O  38,C  17,C   8)    -47.1803         0.023220   
    401. D(C  41,O  39,C  29,C  30)    171.4217         0.028262   
    402. D(C  41,O  39,C  29,C  28)     -8.7273         0.028262   
    403. D(H  78,O  40,C  30,C  31)    179.6381         0.029882   
    404. D(H  78,O  40,C  30,C  29)      0.5341         0.029882   
    405. D(H  81,C  41,O  39,C  29)    -62.8544         0.023572   
    406. D(H  80,C  41,O  39,C  29)    177.8977         0.023572   
    407. D(H  79,C  41,O  39,C  29)     59.5693         0.023572   
    -----------------------------------------------------------------

Number of atoms                         .... 82
Number of degrees of freedom            .... 407


         *************************************************************
         *                GEOMETRY OPTIMIZATION CYCLE   1            *
         *************************************************************
---------------------------------
CARTESIAN COORDINATES (ANGSTROEM)
---------------------------------
  C     23.375196  -31.311681   -1.880733
  C     23.304824  -30.550960   -0.705021
  C     22.057347  -30.303913   -0.119151
  C     20.913522  -30.803249   -0.727582
  C     20.982004  -31.514035   -1.916166
  C     22.217186  -31.773198   -2.488673
  C     19.706744  -32.001948   -2.545206
  C     19.131034  -33.210073   -1.781024
  C     17.608727  -33.368459   -2.020054
  C     16.880134  -33.838164   -0.749185
  C     17.168466  -33.011114    0.472350
  C     17.107733  -31.619206    0.430389
  C     17.384354  -30.863735    1.553907
  C     17.712697  -31.498731    2.762523
  C     17.750392  -32.880012    2.811753
  C     17.485932  -33.625753    1.673677
  C     19.978550  -34.442943   -2.123350
  C     17.230331  -34.294776   -3.191971
  O     22.047895  -29.570083    1.032374
  O     24.643524  -31.546800   -2.332344
  O     24.488899  -30.012133   -0.256754
  O     17.988525  -30.761816    3.875098
  O     17.373159  -29.483850    1.615885
  C     24.908957  -30.268255    1.080335
  C     25.274788  -31.766046    1.242475
  C     24.012245  -32.605877    1.275780
  C     26.137666  -29.374092    1.282742
  O     25.815897  -28.018083    1.131692
  C     23.058427  -32.361070    2.261004
  C     21.855842  -33.040241    2.253377
  C     21.612930  -34.010188    1.267604
  C     22.594878  -34.307395    0.342611
  C     23.785259  -33.600016    0.341381
  C     24.808451  -32.327998   -3.491273
  C     20.805519  -29.276551    1.626501
  C     16.971923  -28.772309    0.472743
  O     26.166065  -32.147795    0.232700
  O     19.632693  -35.592031   -1.387907
  O     17.247924  -35.662531   -2.895730
  O     20.825971  -32.857689    3.144918
  O     20.414573  -34.667854    1.239008
  C     21.051845  -32.041943    4.270459
  H     19.944907  -30.629770   -0.287515
  H     22.264370  -32.335296   -3.407046
  H     19.877007  -32.272879   -3.588316
  H     18.979783  -31.187321   -2.525808
  H     19.269123  -33.014756   -0.711592
  H     17.221635  -32.380308   -2.289919
  H     17.148401  -34.875632   -0.548352
  H     15.804999  -33.816663   -0.951983
  H     16.839052  -31.133007   -0.493454
  H     17.985029  -33.356951    3.749756
  H     17.511564  -34.704052    1.727261
  H     19.870392  -34.710830   -3.177786
  H     21.030238  -34.180732   -1.949812
  H     16.199745  -34.078358   -3.492438
  H     17.879102  -34.068548   -4.054032
  H     17.851073  -29.831112    3.653292
  H     24.123984  -29.978994    1.785172
  H     25.814301  -31.888081    2.190291
  H     26.524074  -29.495210    2.296480
  H     26.911770  -29.676709    0.564430
  H     25.330135  -27.936381    0.301179
  H     23.266461  -31.630403    3.026087
  H     22.422161  -35.100382   -0.367281
  H     24.549217  -33.832161   -0.383378
  H     24.384823  -33.329035   -3.363185
  H     24.356879  -31.849400   -4.365243
  H     25.884109  -32.407228   -3.639954
  H     20.175832  -28.677928    0.961805
  H     20.270600  -30.187063    1.912284
  H     21.037413  -28.692877    2.516594
  H     17.000416  -27.720771    0.754368
  H     17.655191  -28.939625   -0.366714
  H     15.954629  -29.039477    0.171444
  H     25.813861  -31.807407   -0.608031
  H     19.821719  -35.419293   -0.451505
  H     18.073224  -35.870358   -2.427230
  H     19.870185  -34.324482    1.963894
  H     21.330990  -31.025008    3.983661
  H     20.104154  -32.011232    4.804651
  H     21.830547  -32.464733    4.912663

----------------------------
CARTESIAN COORDINATES (A.U.)
----------------------------
  NO LB      ZA    FRAG     MASS         X           Y           Z
   0 C     6.0000    0    12.011   44.172719  -59.170501   -3.554070
   1 C     6.0000    0    12.011   44.039734  -57.732947   -1.332296
   2 C     6.0000    0    12.011   41.682344  -57.266096   -0.225163
   3 C     6.0000    0    12.011   39.520830  -58.209705   -1.374931
   4 C     6.0000    0    12.011   39.650242  -59.552895   -3.621029
   5 C     6.0000    0    12.011   41.984397  -60.042642   -4.702910
   6 C     6.0000    0    12.011   37.240349  -60.474917   -4.809743
   7 C     6.0000    0    12.011   36.152415  -62.757943   -3.365648
   8 C     6.0000    0    12.011   33.275671  -63.057249   -3.817349
   9 C     6.0000    0    12.011   31.898831  -63.944864   -1.415754
  10 C     6.0000    0    12.011   32.443699  -62.381965    0.892613
  11 C     6.0000    0    12.011   32.328930  -59.751640    0.813318
  12 C     6.0000    0    12.011   32.851668  -58.324006    2.936459
  13 C     6.0000    0    12.011   33.472146  -59.523975    5.220413
  14 C     6.0000    0    12.011   33.543380  -62.134219    5.313443
  15 C     6.0000    0    12.011   33.043623  -63.543464    3.162792
  16 C     6.0000    0    12.011   37.753987  -65.087730   -4.012551
  17 C     6.0000    0    12.011   32.560607  -64.807735   -6.031951
  18 O     8.0000    0    15.999   41.664483  -55.879360    1.950903
  19 O     8.0000    0    15.999   46.569511  -59.614813   -4.407492
  20 O     8.0000    0    15.999   46.277312  -56.714713   -0.485195
  21 O     8.0000    0    15.999   33.993386  -58.131408    7.322873
  22 O     8.0000    0    15.999   32.830512  -55.716402    3.053581
  23 C     6.0000    0    12.011   47.071108  -57.198712    2.041536
  24 C     6.0000    0    12.011   47.762427  -60.029126    2.347938
  25 C     6.0000    0    12.011   45.376568  -61.616179    2.410875
  26 C     6.0000    0    12.011   49.393031  -55.508989    2.424032
  27 O     8.0000    0    15.999   48.784976  -52.946504    2.138589
  28 C     6.0000    0    12.011   43.574112  -61.153560    4.272679
  29 C     6.0000    0    12.011   41.301556  -62.437007    4.258266
  30 C     6.0000    0    12.011   40.842518  -64.269940    2.395424
  31 C     6.0000    0    12.011   42.698131  -64.831581    0.647441
  32 C     6.0000    0    12.011   44.947625  -63.494829    0.645116
  33 C     6.0000    0    12.011   46.881178  -61.091064   -6.597550
  34 C     6.0000    0    12.011   39.316733  -55.324664    3.073641
  35 C     6.0000    0    12.011   32.072286  -54.371784    0.893354
  36 O     8.0000    0    15.999   49.446697  -60.750529    0.439740
  37 O     8.0000    0    15.999   37.100412  -67.259191   -2.622764
  38 O     8.0000    0    15.999   32.593853  -67.392416   -5.472137
  39 O     8.0000    0    15.999   39.355382  -62.092034    5.943033
  40 O     8.0000    0    15.999   38.577952  -65.512750    2.341386
  41 C     6.0000    0    12.011   39.782222  -60.550497    8.069998
  42 H     1.0000    0     1.008   37.690412  -57.881877   -0.543325
  43 H     1.0000    0     1.008   42.073562  -61.104853   -6.438384
  44 H     1.0000    0     1.008   37.562100  -60.986903   -6.780935
  45 H     1.0000    0     1.008   35.866591  -58.935496   -4.773086
  46 H     1.0000    0     1.008   36.413365  -62.388847   -1.344715
  47 H     1.0000    0     1.008   32.544173  -61.189914   -4.327320
  48 H     1.0000    0     1.008   32.405782  -65.905392   -1.036236
  49 H     1.0000    0     1.008   29.867119  -63.904232   -1.798987
  50 H     1.0000    0     1.008   31.821198  -58.832857   -0.932492
  51 H     1.0000    0     1.008   33.986779  -63.035501    7.086013
  52 H     1.0000    0     1.008   33.092060  -65.581153    3.264050
  53 H     1.0000    0     1.008   37.549599  -65.593962   -6.005145
  54 H     1.0000    0     1.008   39.741391  -64.592222   -3.684610
  55 H     1.0000    0     1.008   30.613082  -64.398763   -6.599751
  56 H     1.0000    0     1.008   33.786607  -64.380225   -7.661010
  57 H     1.0000    0     1.008   33.733640  -56.372631    6.903721
  58 H     1.0000    0     1.008   45.587724  -56.652088    3.373485
  59 H     1.0000    0     1.008   48.781958  -60.259740    4.139051
  60 H     1.0000    0     1.008   50.123235  -55.737869    4.339717
  61 H     1.0000    0     1.008   50.855875  -56.080852    1.066619
  62 H     1.0000    0     1.008   47.867019  -52.792109    0.569146
  63 H     1.0000    0     1.008   43.967239  -59.772799    5.718476
  64 H     1.0000    0     1.008   42.371743  -66.330110   -0.694061
  65 H     1.0000    0     1.008   46.391296  -63.933519   -0.724480
  66 H     1.0000    0     1.008   46.080636  -62.982748   -6.355499
  67 H     1.0000    0     1.008   46.027831  -60.186644   -8.249113
  68 H     1.0000    0     1.008   48.913878  -61.240787   -6.878517
  69 H     1.0000    0     1.008   38.126798  -54.193430    1.817547
  70 H     1.0000    0     1.008   38.305882  -57.045282    3.613693
  71 H     1.0000    0     1.008   39.754949  -54.221680    4.755674
  72 H     1.0000    0     1.008   32.126130  -52.384666    1.425549
  73 H     1.0000    0     1.008   33.363476  -54.687966   -0.692989
  74 H     1.0000    0     1.008   30.149879  -54.876659    0.323982
  75 H     1.0000    0     1.008   48.781128  -60.107288   -1.149012
  76 H     1.0000    0     1.008   37.457620  -66.932763   -0.853222
  77 H     1.0000    0     1.008   34.153443  -67.785153   -4.586800
  78 H     1.0000    0     1.008   37.549208  -64.863871    3.711222
  79 H     1.0000    0     1.008   40.309730  -58.628769    7.528028
  80 H     1.0000    0     1.008   37.991345  -60.492461    9.079474
  81 H     1.0000    0     1.008   41.253755  -61.349454    9.283587

--------------------------------
INTERNAL COORDINATES (ANGSTROEM)
--------------------------------
 C      0   0   0     0.000000000000     0.00000000     0.00000000
 C      1   0   0     1.402122478578     0.00000000     0.00000000
 C      2   1   0     1.400169496852   119.42642952     0.00000000
 C      3   2   1     1.388473493543   119.15364529   359.09943696
 C      4   3   2     1.386592130756   121.28462421   358.55595638
 C      5   4   3     1.385858373372   119.60345989     2.22642678
 C      5   4   3     1.503342992089   118.89129907   181.44560539
 C      7   5   4     1.541097822388   111.33607408   285.46338256
 C      8   7   5     1.549077056761   111.76218142   157.02885163
 C      9   8   7     1.538368798866   111.66468237   217.02927266
 C     10   9   8     1.503095520032   114.36292970    51.89349114
 C     11  10   9     1.393864220383   121.10687369    47.96477545
 C     12  11  10     1.381864387532   120.84643284   180.52496519
 C     13  12  11     1.404201616675   119.95905785   359.06337411
 C     14  13  12     1.382672236179   119.26023724   359.79382830
 C     15  14  13     1.386103952913   120.20103923     0.95328895
 C      8   7   5     1.534744066988   108.23078023   284.94898137
 C      9   8   7     1.540985472941   114.84223604    92.04697750
 O      3   2   1     1.365505095858   116.99067004   179.30446372
 O      1   2   3     1.366707404259   114.64489684   183.00385818
 O      2   1   3     1.375976112785   116.25996618   184.53033458
 O     14  13  12     1.362698010063   120.36549575   179.92155281
 O     13  12  11     1.381321152774   125.52045594   178.96538756
 C     21   2   1     1.424729579491   119.27875829   234.14057344
 C     24  21   2     1.550322026950   109.96225812    67.92154247
 C     25  24  21     1.516720094558   109.92712080   285.86983305
 C     24  21   2     1.533043477367   104.79498833   187.43966005
 O     27  24  21     1.401824011534   111.46924086    61.00418934
 C     26  25  24     1.392970481632   119.22259850   301.09874640
 C     29  26  25     1.381138229716   120.39020433   175.03601801
 C     30  29  26     1.404119513854   119.61726125     1.84931438
 C     31  30  29     1.381363779970   119.72005211     2.14201861
 C     26  25  24     1.383089759604   121.31738965   120.52149137
 C     20   1   2     1.407333443281   118.44811552   178.61356377
 C     19   3   2     1.408064612116   118.29183327   178.42015941
 C     23  13  12     1.405011148590   118.14553174     4.05485589
 O     25  24  21     1.399912156721   109.77036812    51.07952302
 O     17   8   7     1.407443097457   113.80322801   174.27857121
 O     18   9   8     1.399578513992   115.04909145    81.39756186
 O     30  29  26     1.374337531524   125.70277608   182.00511664
 O     31  30  29     1.367260585423   119.90654615   181.25182152
 C     40  30  29     1.408298618276   118.37311547   351.27267358
 H      4   3   2     1.077946724854   120.23015726   179.53697258
 H      6   5   4     1.077770733053   119.24594240   179.34840259
 H      7   5   4     1.091087645840   110.38001199   163.33171948
 H      7   5   4     1.092000630624   108.37096429    45.46243566
 H      8   7   5     1.095856602130   107.28437977    40.01421396
 H      9   8   7     1.095039068482   107.04660246   335.23226619
 H     10   9   8     1.090247215226   109.03739230   289.50668592
 H     10   9   8     1.094306305260   107.83164221   173.50793638
 H     12  11  10     1.077990588981   119.14684185     0.63756702
 H     15  14  13     1.078134897246   118.60957863   181.16537018
 H     16  15  14     1.079933399285   119.46753750   180.44395447
 H     17   8   7     1.093295655289   110.93597195   294.01222715
 H     17   8   7     1.097688348076   107.57323483    51.69634683
 H     18   9   8     1.095091068268   108.72073966   199.10413247
 H     18   9   8     1.102375924541   109.07689956   315.90867241
 H     22  14  13     0.966593074814   107.73182783     3.66970512
 H     24  21   2     1.093915076053   110.21763631   305.30664306
 H     25  24  21     1.097415995411   108.28661328   166.65901482
 H     27  24  21     1.091624184670   109.97440875   179.23079394
 H     27  24  21     1.098537847302   108.52842340   298.50694002
 H     28  27  24     0.965604725059   106.85774118   310.08932503
 H     29  26  25     1.078195157950   119.26606819   355.45227900
 H     32  31  30     1.078242587560   119.02772509   175.88229180
 H     33  26  25     1.078331351874   119.50772784     4.39584385
 H     34  20   1     1.094505261500   111.46646885   300.46333570
 H     34  20   1     1.093981860068   111.50991427    63.18550582
 H     34  20   1     1.088771705561   105.58271118   181.78984315
 H     35  19   3     1.093926884815   111.44322683   298.22480091
 H     35  19   3     1.094003138465   111.60113804    60.90686481
 H     35  19   3     1.089365197200   105.58298079   179.99999350
 H     36  23  13     1.088970235420   105.73186989   177.83146950
 H     36  23  13     1.095234126556   111.59755005   296.48996831
 H     36  23  13     1.094096490004   111.46432768    59.10360835
 H     37  25  24     0.973005866231   107.30150857   313.13946535
 H     38  17   8     0.970781927618   108.11409714   295.62254077
 H     39  18   9     0.971495932480   108.77262228   312.81974182
 H     41  31  30     0.969392483576   107.82934442     0.53411968
 H     42  40  30     1.092854689156   111.72981480    59.56933892
 H     42  40  30     1.088311561311   105.60326772   177.89773954
 H     42  40  30     1.094327705131   111.06098348   297.14562992

---------------------------
INTERNAL COORDINATES (A.U.)
---------------------------
 C      0   0   0     0.000000000000     0.00000000     0.00000000
 C      1   0   0     2.649627490727     0.00000000     0.00000000
 C      2   1   0     2.645936890121   119.42642952     0.00000000
 C      3   2   1     2.623834647006   119.15364529   359.09943696
 C      4   3   2     2.620279386579   121.28462421   358.55595638
 C      5   4   3     2.618892786074   119.60345989     2.22642678
 C      5   4   3     2.840906540397   118.89129907   181.44560539
 C      7   5   4     2.912252829896   111.33607408   285.46338256
 C      8   7   5     2.927331397619   111.76218142   157.02885163
 C      9   8   7     2.907095722826   111.66468237   217.02927266
 C     10   9   8     2.840438885985   114.36292970    51.89349114
 C     11  10   9     2.634021644395   121.10687369    47.96477545
 C     12  11  10     2.611345246655   120.84643284   180.52496519
 C     13  12  11     2.653556492326   119.95905785   359.06337411
 C     14  13  12     2.612871859355   119.26023724   359.79382830
 C     15  14  13     2.619356864152   120.20103923     0.95328895
 C      8   7   5     2.900245972269   108.23078023   284.94898137
 C      9   8   7     2.912040520209   114.84223604    92.04697750
 O      3   2   1     2.580430665646   116.99067004   179.30446372
 O      1   2   3     2.582702699251   114.64489684   183.00385818
 O      2   1   3     2.600218019982   116.25996618   184.53033458
 O     14  13  12     2.575126042258   120.36549575   179.92155281
 O     13  12  11     2.610318681736   125.52045594   178.96538756
 C     21   2   1     2.692348720135   119.27875829   234.14057344
 C     24  21   2     2.929684050322   109.96225812    67.92154247
 C     25  24  21     2.866185600529   109.92712080   285.86983305
 C     24  21   2     2.897032323618   104.79498833   187.43966005
 O     27  24  21     2.649063469753   111.46924086    61.00418934
 C     26  25  24     2.632332722921   119.22259850   301.09874640
 C     29  26  25     2.609973007252   120.39020433   175.03601801
 C     30  29  26     2.653401340479   119.61726125     1.84931438
 C     31  30  29     2.610399235461   119.72005211     2.14201861
 C     26  25  24     2.613660864283   121.31738965   120.52149137
 C     20   1   2     2.659474786909   118.44811552   178.61356377
 C     19   3   2     2.660856495766   118.29183327   178.42015941
 C     23  13  12     2.655086285941   118.14553174     4.05485589
 O     25  24  21     2.645450587749   109.77036812    51.07952302
 O     17   8   7     2.659682003271   113.80322801   174.27857121
 O     18   9   8     2.644820094366   115.04909145    81.39756186
 O     30  29  26     2.597121550150   125.70277608   182.00511664
 O     31  30  29     2.583748060154   119.90654615   181.25182152
 C     40  30  29     2.661298703321   118.37311547   351.27267358
 H      4   3   2     2.037024096932   120.23015726   179.53697258
 H      6   5   4     2.036691520626   119.24594240   179.34840259
 H      7   5   4     2.061856838743   110.38001199   163.33171948
 H      7   5   4     2.063582129949   108.37096429    45.46243566
 H      8   7   5     2.070868860076   107.28437977    40.01421396
 H      9   8   7     2.069323945375   107.04660246   335.23226619
 H     10   9   8     2.060268655047   109.03739230   289.50668592
 H     10   9   8     2.067939223564   107.83164221   173.50793638
 H     12  11  10     2.037106988118   119.14684185     0.63756702
 H     15  14  13     2.037379691219   118.60957863   181.16537018
 H     16  15  14     2.040778367524   119.46753750   180.44395447
 H     17   8   7     2.066029371902   110.93597195   294.01222715
 H     17   8   7     2.074330358260   107.57323483    51.69634683
 H     18   9   8     2.069422210729   108.72073966   199.10413247
 H     18   9   8     2.083188594011   109.07689956   315.90867241
 H     22  14  13     1.826596194343   107.73182783     3.66970512
 H     24  21   2     2.067199907507   110.21763631   305.30664306
 H     25  24  21     2.073815686312   108.28661328   166.65901482
 H     27  24  21     2.062870750191   109.97440875   179.23079394
 H     27  24  21     2.075935679148   108.52842340   298.50694002
 H     28  27  24     1.824728483983   106.85774118   310.08932503
 H     29  26  25     2.037493567446   119.26606819   355.45227900
 H     32  31  30     2.037583196419   119.02772509   175.88229180
 H     33  26  25     2.037750936662   119.50772784     4.39584385
 H     34  20   1     2.068315196370   111.46646885   300.46333570
 H     34  20   1     2.067326111005   111.50991427    63.18550582
 H     34  20   1     2.057480345872   105.58271118   181.78984315
 H     35  19   3     2.067222222834   111.44322683   298.22480091
 H     35  19   3     2.067366321349   111.60113804    60.90686481
 H     35  19   3     2.058601882534   105.58298079   179.99999350
 H     36  23  13     2.057855512935   105.73186989   177.83146950
 H     36  23  13     2.069692551715   111.59755005   296.48996831
 H     36  23  13     2.067542730192   111.46432768    59.10360835
 H     37  25  24     1.838714613876   107.30150857   313.13946535
 H     38  17   8     1.834511978959   108.11409714   295.62254077
 H     39  18   9     1.835861252606   108.77262228   312.81974182
 H     41  31  30     1.831886310241   107.82934442     0.53411968
 H     42  40  30     2.065196066676   111.72981480    59.56933892
 H     42  40  30     2.056610799257   105.60326772   177.89773954
 H     42  40  30     2.067979663460   111.06098348   297.14562992

---------------------
BASIS SET INFORMATION
---------------------
There are 3 groups of distinct atoms

 Group   1 Type C   : 11s6p2d1f contracted to 5s3p2d1f pattern {62111/411/11/1}
 Group   2 Type O   : 11s6p2d1f contracted to 5s3p2d1f pattern {62111/411/11/1}
 Group   3 Type H   : 5s1p contracted to 3s1p pattern {311/1}

Atom   0C    basis set group =>   1
Atom   1C    basis set group =>   1
Atom   2C    basis set group =>   1
Atom   3C    basis set group =>   1
Atom   4C    basis set group =>   1
Atom   5C    basis set group =>   1
Atom   6C    basis set group =>   1
Atom   7C    basis set group =>   1
Atom   8C    basis set group =>   1
Atom   9C    basis set group =>   1
Atom  10C    basis set group =>   1
Atom  11C    basis set group =>   1
Atom  12C    basis set group =>   1
Atom  13C    basis set group =>   1
Atom  14C    basis set group =>   1
Atom  15C    basis set group =>   1
Atom  16C    basis set group =>   1
Atom  17C    basis set group =>   1
Atom  18O    basis set group =>   2
Atom  19O    basis set group =>   2
Atom  20O    basis set group =>   2
Atom  21O    basis set group =>   2
Atom  22O    basis set group =>   2
Atom  23C    basis set group =>   1
Atom  24C    basis set group =>   1
Atom  25C    basis set group =>   1
Atom  26C    basis set group =>   1
Atom  27O    basis set group =>   2
Atom  28C    basis set group =>   1
Atom  29C    basis set group =>   1
Atom  30C    basis set group =>   1
Atom  31C    basis set group =>   1
Atom  32C    basis set group =>   1
Atom  33C    basis set group =>   1
Atom  34C    basis set group =>   1
Atom  35C    basis set group =>   1
Atom  36O    basis set group =>   2
Atom  37O    basis set group =>   2
Atom  38O    basis set group =>   2
Atom  39O    basis set group =>   2
Atom  40O    basis set group =>   2
Atom  41C    basis set group =>   1
Atom  42H    basis set group =>   3
Atom  43H    basis set group =>   3
Atom  44H    basis set group =>   3
Atom  45H    basis set group =>   3
Atom  46H    basis set group =>   3
Atom  47H    basis set group =>   3
Atom  48H    basis set group =>   3
Atom  49H    basis set group =>   3
Atom  50H    basis set group =>   3
Atom  51H    basis set group =>   3
Atom  52H    basis set group =>   3
Atom  53H    basis set group =>   3
Atom  54H    basis set group =>   3
Atom  55H    basis set group =>   3
Atom  56H    basis set group =>   3
Atom  57H    basis set group =>   3
Atom  58H    basis set group =>   3
Atom  59H    basis set group =>   3
Atom  60H    basis set group =>   3
Atom  61H    basis set group =>   3
Atom  62H    basis set group =>   3
Atom  63H    basis set group =>   3
Atom  64H    basis set group =>   3
Atom  65H    basis set group =>   3
Atom  66H    basis set group =>   3
Atom  67H    basis set group =>   3
Atom  68H    basis set group =>   3
Atom  69H    basis set group =>   3
Atom  70H    basis set group =>   3
Atom  71H    basis set group =>   3
Atom  72H    basis set group =>   3
Atom  73H    basis set group =>   3
Atom  74H    basis set group =>   3
Atom  75H    basis set group =>   3
Atom  76H    basis set group =>   3
Atom  77H    basis set group =>   3
Atom  78H    basis set group =>   3
Atom  79H    basis set group =>   3
Atom  80H    basis set group =>   3
Atom  81H    basis set group =>   3
---------------------------------
AUXILIARY/J BASIS SET INFORMATION
---------------------------------
There are 3 groups of distinct atoms

 Group   1 Type C   : 12s5p4d2f1g contracted to 6s4p3d1f1g pattern {711111/2111/211/2/1}
 Group   2 Type O   : 12s5p4d2f1g contracted to 6s4p3d1f1g pattern {711111/2111/211/2/1}
 Group   3 Type H   : 5s2p1d contracted to 3s1p1d pattern {311/2/1}

Atom   0C    basis set group =>   1
Atom   1C    basis set group =>   1
Atom   2C    basis set group =>   1
Atom   3C    basis set group =>   1
Atom   4C    basis set group =>   1
Atom   5C    basis set group =>   1
Atom   6C    basis set group =>   1
Atom   7C    basis set group =>   1
Atom   8C    basis set group =>   1
Atom   9C    basis set group =>   1
Atom  10C    basis set group =>   1
Atom  11C    basis set group =>   1
Atom  12C    basis set group =>   1
Atom  13C    basis set group =>   1
Atom  14C    basis set group =>   1
Atom  15C    basis set group =>   1
Atom  16C    basis set group =>   1
Atom  17C    basis set group =>   1
Atom  18O    basis set group =>   2
Atom  19O    basis set group =>   2
Atom  20O    basis set group =>   2
Atom  21O    basis set group =>   2
Atom  22O    basis set group =>   2
Atom  23C    basis set group =>   1
Atom  24C    basis set group =>   1
Atom  25C    basis set group =>   1
Atom  26C    basis set group =>   1
Atom  27O    basis set group =>   2
Atom  28C    basis set group =>   1
Atom  29C    basis set group =>   1
Atom  30C    basis set group =>   1
Atom  31C    basis set group =>   1
Atom  32C    basis set group =>   1
Atom  33C    basis set group =>   1
Atom  34C    basis set group =>   1
Atom  35C    basis set group =>   1
Atom  36O    basis set group =>   2
Atom  37O    basis set group =>   2
Atom  38O    basis set group =>   2
Atom  39O    basis set group =>   2
Atom  40O    basis set group =>   2
Atom  41C    basis set group =>   1
Atom  42H    basis set group =>   3
Atom  43H    basis set group =>   3
Atom  44H    basis set group =>   3
Atom  45H    basis set group =>   3
Atom  46H    basis set group =>   3
Atom  47H    basis set group =>   3
Atom  48H    basis set group =>   3
Atom  49H    basis set group =>   3
Atom  50H    basis set group =>   3
Atom  51H    basis set group =>   3
Atom  52H    basis set group =>   3
Atom  53H    basis set group =>   3
Atom  54H    basis set group =>   3
Atom  55H    basis set group =>   3
Atom  56H    basis set group =>   3
Atom  57H    basis set group =>   3
Atom  58H    basis set group =>   3
Atom  59H    basis set group =>   3
Atom  60H    basis set group =>   3
Atom  61H    basis set group =>   3
Atom  62H    basis set group =>   3
Atom  63H    basis set group =>   3
Atom  64H    basis set group =>   3
Atom  65H    basis set group =>   3
Atom  66H    basis set group =>   3
Atom  67H    basis set group =>   3
Atom  68H    basis set group =>   3
Atom  69H    basis set group =>   3
Atom  70H    basis set group =>   3
Atom  71H    basis set group =>   3
Atom  72H    basis set group =>   3
Atom  73H    basis set group =>   3
Atom  74H    basis set group =>   3
Atom  75H    basis set group =>   3
Atom  76H    basis set group =>   3
Atom  77H    basis set group =>   3
Atom  78H    basis set group =>   3
Atom  79H    basis set group =>   3
Atom  80H    basis set group =>   3
Atom  81H    basis set group =>   3
--------------------------------------------------------------------------
WARNING: There was an error initializing an OpenFabrics device.

  Local host:   c09b01n01
  Local device: mlx5_0
--------------------------------------------------------------------------
--------------------------------------------------------------------------
WARNING: There is at least one non-excluded one OpenFabrics device found,
but there are no active ports detected (or Open MPI was unable to use
them).  This is most certainly not what you wanted.  Check your
cables, subnet manager configuration, etc.  The openib BTL will be
ignored for this job.

  Local host: c09b01n01
--------------------------------------------------------------------------


           ************************************************************
           *        Program running with 64 parallel MPI-processes    *
           *              working on a common directory               *
           ************************************************************
------------------------------------------------------------------------------
                             ORCA STARTUP CALCULATIONS
                           -- RI-GTO INTEGRALS CHOSEN --
------------------------------------------------------------------------------
------------------------------------------------------------------------------
                   ___                                                        
                  /   \      - P O W E R E D   B Y -                         
                 /     \                                                     
                 |  |  |   _    _      __       _____    __    __             
                 |  |  |  | |  | |    /  \     |  _  \  |  |  /  |          
                  \  \/   | |  | |   /    \    | | | |  |  | /  /          
                 / \  \   | |__| |  /  /\  \   | |_| |  |  |/  /          
                |  |  |   |  __  | /  /__\  \  |    /   |      \           
                |  |  |   | |  | | |   __   |  |    \   |  |\   \          
                \     /   | |  | | |  |  |  |  | |\  \  |  | \   \       
                 \___/    |_|  |_| |__|  |__|  |_| \__\ |__|  \__/        
                                                                              
                      - O R C A' S   B I G   F R I E N D -                    
                                      &                                       
                       - I N T E G R A L  F E E D E R -                       
                                                                              
 v1 FN, 2020, v2 2021, v3 2022-2024                                           
------------------------------------------------------------------------------


----------------------
SHARK INTEGRAL PACKAGE
----------------------

Number of atoms                             ...     82
Number of basis functions                   ...   1542
Number of shells                            ...    622
Maximum angular momentum                    ...      3
Integral batch strategy                     ... SHARK/LIBINT Hybrid
RI-J (if used) integral strategy            ... SPLIT-RIJ (Revised 2003 algorithm where possible)
Printlevel                                  ...      1
Contraction scheme used                     ... SEGMENTED contraction
Prescreening option                         ... SCHWARTZ
   Thresh                                   ... 2.500e-11
   Tcut                                     ... 2.500e-12
   Tpresel                                  ... 2.500e-12 
Coulomb Range Separation                    ... NOT USED
Exchange Range Separation                   ... NOT USED
Multipole approximations                    ... NOT USED
Finite Nucleus Model                        ... NOT USED
CABS basis                                  ... NOT available
Auxiliary Coulomb fitting basis             ... AVAILABLE
   # of basis functions in Aux-J            ...   2498
   # of shells in Aux-J                     ...    830
   Maximum angular momentum in Aux-J        ...      4
Auxiliary J/K fitting basis                 ... NOT available
Auxiliary Correlation fitting basis         ... NOT available
Auxiliary 'external' fitting basis          ... NOT available

Checking pre-screening integrals            ... done (  0.5 sec) Dimension = 622
[c09b01n01:1881301] 60 more processes have sent help message help-mpi-btl-openib.txt / error in device init
[c09b01n01:1881301] Set MCA parameter "orte_base_help_aggregate" to 0 to see all help / error messages
[c09b01n01:1881301] 2 more processes have sent help message help-mpi-btl-openib.txt / no active ports found
   => SHARK Basis and OBASIS are compatible. Storing Pre-screening
Shell pair information
Shell pair cut-off parameter TPreSel        ...   2.5e-12
Total number of shell pairs                 ...    193753
Shell pairs after pre-screening             ...    118220
Total number of primitive shell pairs       ...    584784
Primitive shell pairs kept                  ...    222934
          la=0 lb=0:  32923 shell pairs
          la=1 lb=0:  35240 shell pairs
          la=1 lb=1:   9548 shell pairs
          la=2 lb=0:  16019 shell pairs
          la=2 lb=1:   8819 shell pairs
          la=2 lb=2:   2022 shell pairs
          la=3 lb=0:   7322 shell pairs
          la=3 lb=1:   4106 shell pairs
          la=3 lb=2:   1791 shell pairs
          la=3 lb=3:    430 shell pairs

Checking whether 4 symmetric matrices of dimension 1542 fit in memory
:Max Core in MB      =   6000.00
 MB in use           =    141.58
 MB left             =   5858.42
 MB needed           =     36.31
 Data fit in memory  = YES
Calculating RI/J V-Matrix + Cholesky decomp.... done (  2.4 sec)
Calculating Nuclear repulsion               ... done (  0.0 sec) ENN=   5816.056537612115 Eh

Diagonalization of the overlap matrix:
Smallest eigenvalue                        ... 2.902e-06
Time for diagonalization                   ...   44.638 sec
Threshold for overlap eigenvalues          ... 1.000e-07
Number of eigenvalues below threshold      ... 0
Time for construction of square roots      ...    2.097 sec
Total time needed                          ...   47.111 sec

-------------------
DFT GRID GENERATION
-------------------

General Integration Accuracy     IntAcc      ... 4.388
Radial Grid Type                 RadialGrid  ... OptM3 with GC (2021)
Angular Grid (max. ang.)         AngularGrid ... 4 (Lebedev-302)
Angular grid pruning method      GridPruning ... 4 (adaptive)
Weight generation scheme         WeightScheme... mBecke (2022)
Basis function cutoff            BFCut       ... 1.0000e-11
Integration weight cutoff        WCut        ... 1.0000e-14
Partially contracted basis set               ... off
Rotationally invariant grid construction     ... off
Angular grids for H and He will be reduced by one unit

Total number of grid points                  ...   373152
Total number of batches                      ...     5873
Average number of points per batch           ...       63
Average number of grid points per atom       ...     4551

--------------------
COSX GRID GENERATION
--------------------

GRIDX 1
-------
General Integration Accuracy     IntAcc      ... 3.816
Radial Grid Type                 RadialGrid  ... OptM3 with GC (2021)
Angular Grid (max. ang.)         AngularGrid ... 1 (Lebedev-50)
Angular grid pruning method      GridPruning ... 4 (adaptive)
Weight generation scheme         WeightScheme... mBecke (2022)
Basis function cutoff            BFCut       ... 1.0000e-11
Integration weight cutoff        WCut        ... 1.0000e-14
Partially contracted basis set               ... on
Rotationally invariant grid construction     ... off
Angular grids for H and He will be reduced by one unit

Total number of grid points                  ...    47211
Total number of batches                      ...      409
Average number of points per batch           ...      115
Average number of grid points per atom       ...      576
UseSFitting                                  ... on

GRIDX 2
-------
General Integration Accuracy     IntAcc      ... 4.020
Radial Grid Type                 RadialGrid  ... OptM3 with GC (2021)
Angular Grid (max. ang.)         AngularGrid ... 2 (Lebedev-110)
Angular grid pruning method      GridPruning ... 4 (adaptive)
Weight generation scheme         WeightScheme... mBecke (2022)
Basis function cutoff            BFCut       ... 1.0000e-11
[...]
freq.     647.87  E(vib)   ...       0.09 
freq.     657.02  E(vib)   ...       0.08 
freq.     665.04  E(vib)   ...       0.08 
freq.     688.84  E(vib)   ...       0.07 
freq.     729.86  E(vib)   ...       0.06 
freq.     741.82  E(vib)   ...       0.06 
freq.     747.00  E(vib)   ...       0.06 
freq.     759.99  E(vib)   ...       0.06 
freq.     762.63  E(vib)   ...       0.06 
freq.     777.38  E(vib)   ...       0.05 
freq.     784.14  E(vib)   ...       0.05 
freq.     800.03  E(vib)   ...       0.05 
freq.     808.12  E(vib)   ...       0.05 
freq.     815.27  E(vib)   ...       0.05 
freq.     840.57  E(vib)   ...       0.04 
freq.     850.13  E(vib)   ...       0.04 
freq.     852.42  E(vib)   ...       0.04 
freq.     857.67  E(vib)   ...       0.04 
freq.     875.27  E(vib)   ...       0.04 
freq.     879.88  E(vib)   ...       0.04 
freq.     881.91  E(vib)   ...       0.04 
freq.     896.63  E(vib)   ...       0.03 
freq.     904.82  E(vib)   ...       0.03 
freq.     916.92  E(vib)   ...       0.03 
freq.     929.17  E(vib)   ...       0.03 
freq.     930.51  E(vib)   ...       0.03 
freq.     956.26  E(vib)   ...       0.03 
freq.     958.18  E(vib)   ...       0.03 
freq.     959.75  E(vib)   ...       0.03 
freq.     968.95  E(vib)   ...       0.03 
freq.     983.26  E(vib)   ...       0.02 
freq.     993.75  E(vib)   ...       0.02 
freq.    1014.93  E(vib)   ...       0.02 
freq.    1027.81  E(vib)   ...       0.02 
freq.    1040.80  E(vib)   ...       0.02 
freq.    1047.87  E(vib)   ...       0.02 
freq.    1048.73  E(vib)   ...       0.02 
freq.    1055.67  E(vib)   ...       0.02 
freq.    1064.29  E(vib)   ...       0.02 
freq.    1066.94  E(vib)   ...       0.02 
freq.    1088.22  E(vib)   ...       0.02 
freq.    1101.75  E(vib)   ...       0.02 
freq.    1112.75  E(vib)   ...       0.01 
freq.    1114.14  E(vib)   ...       0.01 
freq.    1136.00  E(vib)   ...       0.01 
freq.    1140.77  E(vib)   ...       0.01 
freq.    1142.54  E(vib)   ...       0.01 
freq.    1144.43  E(vib)   ...       0.01 
freq.    1170.31  E(vib)   ...       0.01 
freq.    1171.01  E(vib)   ...       0.01 
freq.    1171.64  E(vib)   ...       0.01 
freq.    1171.92  E(vib)   ...       0.01 
freq.    1172.12  E(vib)   ...       0.01 
freq.    1172.75  E(vib)   ...       0.01 
freq.    1179.14  E(vib)   ...       0.01 
freq.    1182.66  E(vib)   ...       0.01 
freq.    1199.60  E(vib)   ...       0.01 
freq.    1202.77  E(vib)   ...       0.01 
freq.    1207.11  E(vib)   ...       0.01 
freq.    1212.61  E(vib)   ...       0.01 
freq.    1214.64  E(vib)   ...       0.01 
freq.    1223.06  E(vib)   ...       0.01 
freq.    1224.02  E(vib)   ...       0.01 
freq.    1227.44  E(vib)   ...       0.01 
freq.    1238.13  E(vib)   ...       0.01 
freq.    1242.30  E(vib)   ...       0.01 
freq.    1245.94  E(vib)   ...       0.01 
freq.    1249.81  E(vib)   ...       0.01 
freq.    1272.13  E(vib)   ...       0.01 
freq.    1275.14  E(vib)   ...       0.01 
freq.    1276.02  E(vib)   ...       0.01 
freq.    1287.01  E(vib)   ...       0.01 
freq.    1290.21  E(vib)   ...       0.01 
freq.    1293.24  E(vib)   ...       0.01 
freq.    1293.91  E(vib)   ...       0.01 
freq.    1308.93  E(vib)   ...       0.01 
freq.    1326.36  E(vib)   ...       0.01 
freq.    1327.23  E(vib)   ...       0.01 
freq.    1343.88  E(vib)   ...       0.01 
freq.    1345.46  E(vib)   ...       0.01 
freq.    1347.68  E(vib)   ...       0.01 
freq.    1359.90  E(vib)   ...       0.01 
freq.    1362.99  E(vib)   ...       0.01 
freq.    1368.01  E(vib)   ...       0.01 
freq.    1373.95  E(vib)   ...       0.01 
freq.    1384.65  E(vib)   ...       0.00 
freq.    1391.66  E(vib)   ...       0.00 
freq.    1397.26  E(vib)   ...       0.00 
freq.    1400.94  E(vib)   ...       0.00 
freq.    1406.54  E(vib)   ...       0.00 
freq.    1416.50  E(vib)   ...       0.00 
freq.    1426.12  E(vib)   ...       0.00 
freq.    1429.20  E(vib)   ...       0.00 
freq.    1439.16  E(vib)   ...       0.00 
freq.    1452.52  E(vib)   ...       0.00 
freq.    1455.45  E(vib)   ...       0.00 
freq.    1458.05  E(vib)   ...       0.00 
freq.    1462.92  E(vib)   ...       0.00 
freq.    1476.26  E(vib)   ...       0.00 
freq.    1478.18  E(vib)   ...       0.00 
freq.    1478.49  E(vib)   ...       0.00 
freq.    1478.98  E(vib)   ...       0.00 
freq.    1479.40  E(vib)   ...       0.00 
freq.    1480.68  E(vib)   ...       0.00 
freq.    1482.68  E(vib)   ...       0.00 
freq.    1484.85  E(vib)   ...       0.00 
freq.    1486.45  E(vib)   ...       0.00 
freq.    1489.19  E(vib)   ...       0.00 
freq.    1489.87  E(vib)   ...       0.00 
freq.    1491.14  E(vib)   ...       0.00 
freq.    1491.57  E(vib)   ...       0.00 
freq.    1491.81  E(vib)   ...       0.00 
freq.    1497.66  E(vib)   ...       0.00 
freq.    1502.33  E(vib)   ...       0.00 
freq.    1516.79  E(vib)   ...       0.00 
freq.    1536.06  E(vib)   ...       0.00 
freq.    1543.43  E(vib)   ...       0.00 
freq.    1545.07  E(vib)   ...       0.00 
freq.    1628.28  E(vib)   ...       0.00 
freq.    1636.88  E(vib)   ...       0.00 
freq.    1642.36  E(vib)   ...       0.00 
freq.    1647.07  E(vib)   ...       0.00 
freq.    1649.10  E(vib)   ...       0.00 
freq.    1652.15  E(vib)   ...       0.00 
freq.    2979.80  E(vib)   ...       0.00 
freq.    3002.47  E(vib)   ...       0.00 
freq.    3023.08  E(vib)   ...       0.00 
freq.    3023.11  E(vib)   ...       0.00 
freq.    3024.01  E(vib)   ...       0.00 
freq.    3026.72  E(vib)   ...       0.00 
freq.    3026.94  E(vib)   ...       0.00 
freq.    3027.76  E(vib)   ...       0.00 
freq.    3029.66  E(vib)   ...       0.00 
freq.    3031.47  E(vib)   ...       0.00 
freq.    3038.99  E(vib)   ...       0.00 
freq.    3047.17  E(vib)   ...       0.00 
freq.    3049.33  E(vib)   ...       0.00 
freq.    3073.53  E(vib)   ...       0.00 
freq.    3082.67  E(vib)   ...       0.00 
freq.    3085.48  E(vib)   ...       0.00 
freq.    3086.32  E(vib)   ...       0.00 
freq.    3090.38  E(vib)   ...       0.00 
freq.    3090.75  E(vib)   ...       0.00 
freq.    3093.71  E(vib)   ...       0.00 
freq.    3097.57  E(vib)   ...       0.00 
freq.    3102.16  E(vib)   ...       0.00 
freq.    3142.04  E(vib)   ...       0.00 
freq.    3142.77  E(vib)   ...       0.00 
freq.    3143.06  E(vib)   ...       0.00 
freq.    3152.90  E(vib)   ...       0.00 
freq.    3166.56  E(vib)   ...       0.00 
freq.    3187.82  E(vib)   ...       0.00 
freq.    3191.90  E(vib)   ...       0.00 
freq.    3205.81  E(vib)   ...       0.00 
freq.    3208.93  E(vib)   ...       0.00 
freq.    3211.71  E(vib)   ...       0.00 
freq.    3212.84  E(vib)   ...       0.00 
freq.    3221.47  E(vib)   ...       0.00 
freq.    3533.08  E(vib)   ...       0.00 
freq.    3601.06  E(vib)   ...       0.00 
freq.    3610.06  E(vib)   ...       0.00 
freq.    3709.90  E(vib)   ...       0.00 
freq.    3725.93  E(vib)   ...       0.00 
freq.    3761.08  E(vib)   ...       0.00 

------------
INNER ENERGY
------------

The inner energy is: U= E(el) + E(ZPE) + E(vib) + E(rot) + E(trans)
    E(el)   - is the total energy from the electronic structure calculation
              = E(kin-el) + E(nuc-el) + E(el-el) + E(nuc-nuc)
    E(ZPE)  - the the zero temperature vibrational energy from the frequency calculation
    E(vib)  - the the finite temperature correction to E(ZPE) due to population
              of excited vibrational states
    E(rot)  - is the rotational thermal energy
    E(trans)- is the translational thermal energy

Summary of contributions to the inner energy U:
Electronic energy                ...  -2032.63998811 Eh
Zero point energy                ...      0.68063527 Eh     427.10 kcal/mol
Thermal vibrational correction   ...      0.03942142 Eh      24.74 kcal/mol
Thermal rotational correction    ...      0.00141627 Eh       0.89 kcal/mol
Thermal translational correction ...      0.00141627 Eh       0.89 kcal/mol
-----------------------------------------------------------------------
Total thermal energy                  -2031.91709888 Eh


Summary of corrections to the electronic energy:
(perhaps to be used in another calculation)
Total thermal correction                  0.04225396 Eh      26.51 kcal/mol
Non-thermal (ZPE) correction              0.68063527 Eh     427.10 kcal/mol
-----------------------------------------------------------------------
Total correction                          0.72288923 Eh     453.62 kcal/mol


--------
ENTHALPY
--------

The enthalpy is H = U + kB*T
                kB is Boltzmann's constant
Total thermal energy              ...  -2031.91709888 Eh 
Thermal Enthalpy correction       ...      0.00094421 Eh       0.59 kcal/mol
-----------------------------------------------------------------------
Total Enthalpy                    ...  -2031.91615467 Eh


Note: Only C1 symmetry has been detected, increase convergence thresholds 
      if your molecule has a higher symmetry. Symmetry factor of 1.0 is   
      used for the rotational entropy correction. 
 

Note: Rotational entropy computed according to Herzberg 
Infrared and Raman Spectra, Chapter V,1, Van Nostrand Reinhold, 1945 
Point Group:  C1, Symmetry Number:   1  
Rotational constants in cm-1:     0.003792     0.002366     0.002011 

Vibrational entropy computed according to the QRRHO of S. Grimme
Chem.Eur.J. 2012 18 9955 using a reference frequency of 100.0 cm-1


-------
ENTROPY
-------

The entropy contributions are T*S = T*(S(el)+S(vib)+S(rot)+S(trans))
     S(el)   - electronic entropy
     S(vib)  - vibrational entropy
     S(rot)  - rotational entropy
     S(trans)- translational entropy
The entropies will be listed as multiplied by the temperature to get
units of energy

Electronic entropy                ...      0.00000000 Eh      0.00 kcal/mol
Vibrational entropy               ...      0.06997883 Eh     43.91 kcal/mol
Rotational entropy                ...      0.01792851 Eh     11.25 kcal/mol
Translational entropy             ...      0.02138181 Eh     13.42 kcal/mol
-----------------------------------------------------------------------
Final entropy term                ...      0.10928916 Eh     68.58 kcal/mol

In case the symmetry of your molecule has not been determined correctly
or in case you have a reason to use a different symmetry number we print 
out the resulting rotational entropy values for sn=1,12:

 non-linear molecules -----------------------------------
|  sn= 1 | S(rot)=       0.01792851 Eh     11.25 kcal/mol|
|  sn= 2 | S(rot)=       0.01727406 Eh     10.84 kcal/mol|
|  sn= 3 | S(rot)=       0.01689123 Eh     10.60 kcal/mol|
|  sn= 4 | S(rot)=       0.01661960 Eh     10.43 kcal/mol|
|  sn= 5 | S(rot)=       0.01640891 Eh     10.30 kcal/mol|
|  sn= 6 | S(rot)=       0.01623677 Eh     10.19 kcal/mol|
|  sn= 7 | S(rot)=       0.01609122 Eh     10.10 kcal/mol|
|  sn= 8 | S(rot)=       0.01596514 Eh     10.02 kcal/mol|
|  sn= 9 | S(rot)=       0.01585394 Eh      9.95 kcal/mol|
|  sn=10 | S(rot)=       0.01575446 Eh      9.89 kcal/mol|
|  sn=11 | S(rot)=       0.01566447 Eh      9.83 kcal/mol|
|  sn=12 | S(rot)=       0.01558231 Eh      9.78 kcal/mol|
 linear molecules ---------------------------------------
|  Dinfh | S(rot)=       0.01118836 Eh      7.02 kcal/mol|
|  Cinfv | S(rot)=       0.01184282 Eh      7.43 kcal/mol|
 --------------------------------------------------------


-------------------
GIBBS FREE ENERGY
-------------------

The Gibbs free energy is G = H - T*S

Total enthalpy                    ...  -2031.91615467 Eh 
Total entropy correction          ...     -0.10928916 Eh    -68.58 kcal/mol
-----------------------------------------------------------------------
Final Gibbs free energy         ...  -2032.02544383 Eh

For completeness - the Gibbs free energy minus the electronic energy
G-E(el)                           ...      0.61454428 Eh    385.63 kcal/mol


Maximum memory used throughout the entire PROP-calculation: 1825.3 MB
--------------------------------------------------------------------------
WARNING: There was an error initializing an OpenFabrics device.

  Local host:   c09b01n01
  Local device: mlx5_0
--------------------------------------------------------------------------
--------------------------------------------------------------------------
WARNING: There is at least one non-excluded one OpenFabrics device found,
but there are no active ports detected (or Open MPI was unable to use
them).  This is most certainly not what you wanted.  Check your
cables, subnet manager configuration, etc.  The openib BTL will be
ignored for this job.

  Local host: c09b01n01
--------------------------------------------------------------------------
[c09b01n01:1971141] 59 more processes have sent help message help-mpi-btl-openib.txt / error in device init
[c09b01n01:1971141] Set MCA parameter "orte_base_help_aggregate" to 0 to see all help / error messages
[c09b01n01:1971141] 3 more processes have sent help message help-mpi-btl-openib.txt / no active ports found

--------------------------------
SUGGESTED CITATIONS FOR THIS RUN
--------------------------------

Below you find a list of papers that are relevant to this ORCA run
We neither can nor want to force you to cite these papers, but we appreciate if you do
You receive ORCA, which is the product of decades of hard work by many enthusiastic individuals, for free
The only thing we kindly ask in return is that you cite our papers,
We deeply appreciate it, if you show your appreciation for ORCA by not just citing the generic ORCA reference.

Please note that relegating all ORCA citations to the supporting information does *not* help us.
SI sections are not indexed - citations you put there will not count into any citation statistics
But we need these citations in order to attract the funding resources that allow us to do what we are doing

Therefore, if you are a happy ORCA user, please consider citing a few of the papers listed below in the main body of your paper

In addition to the list printed below, the program has created the file opt-conf-8.bibtex that contains the list in bibtex format
You can import this file easily into all common literature databanks and citation aid programs


List of essential papers. We consider these as the minimum necessary citations

  1. Neese, F.
     Software update: the ORCA program system, version 6.0
     WIRES Comput. Molec. Sci. 2025 15(1), e70019
     doi.org/10.1002/wcms.7019

List of papers to cite with high priority. The work reported in these papers was absolutely
necessary for this run to complete.
Our perspective: the developers of density functionals and basis sets usually get cited in chemistry papers
Good! But without the algorithms to do something with them, the functionals or basis sets would not do anything.
Hence, in our opinion, the algorithm design and method developments papers are equally worthy of getting cited

  1. Neese, F.
     An improvement of the resolution of the identity approximation for the formation of the Coulomb matrix
     J. Comp. Chem. 2003 24(14), 1740-1747
     doi.org/10.1002/jcc.10318
  2. Neese, F.; Wennmohs, F.; Hansen, A.; Becker, U.
     Efficient, approximate and parallel Hartree-Fock and hybrid DFT calculations. A 'chain-of-spheres' algorithm for the Hartree-Fock exchange
     Chem. Phys. 2009 356(1-3), 98-109
     doi.org/10.1016/j.chemphys.2008.10.036
  3. Bykov, D.; Petrenko, T.; Izsak, R.; Kossmann, S.; Becker, U.; Valeev, E.; Neese, F.
     Efficient implementation of the analytic second derivatives of Hartree-Fock and hybrid DFT energies: a detailed analysis of different approximations
     Molec. Phys. 2015 113 , 1961-1977
     doi.org/10.1080/00268976.2015.1025114
  4. Caldeweyher, E.; Bannwarth, C.; Grimme, S.
     Extension of the D3 dispersion coefficient model
     J. Chem. Phys. 2017 147 , 034112
     doi.org/10.1063/1.4993215
  5. Caldeweyher, E.; Ehlert, S.; Hansen, A.; Neugebauer, H.; Spicher, S.; Bannwarth, C.; Grimme, S.
     A generally applicable atomic-charge dependent London dispersion correction
     J. Chem. Phys. 2019 150 , 154122
     doi.org/10.1063/1.5090222
  6. Garcia-Rates, M.; Neese, F.
     Efficient implementation of the analytical second derivatives of hartree-fock and hybrid DFT energies within the framework of the conductor-like polarizable continuum model
     J. Comput. Chem. 2019 40 , 1816-1828
     doi.org/10.1002/jcc.25833
  7. Caldeweyher, E.; Mewes, J.; Ehlert, S.; Grimme, S.
     Extension and evaluation of the D4 London-dispersion model for periodic systems
     Phys. Chem. Chem. Phys. 2020 22(16), 8499-8512
     doi.org/10.1039/D0CP00502A
  8. Garcia-Rates, M.; Neese, F.
     Effect of the Solute Cavity on the Solvation Energy and its Derivatives within the Framework of the Gaussian Charge Scheme
     J. Comput. Chem. 2020 41 , 922-939
     doi.org/10.1002/jcc.26139
  9. Helmich-Paris, B.; de Souza, B.; Neese, F.; Izsák, R.
     An improved chain of spheres for exchange algorithm
     J. Chem. Phys. 2021 155(10), 104109
     doi.org/10.1063/5.0058766
 10. Neese, F.
     The SHARK Integral Generation and Digestion System
     J. Comp. Chem. 2022 44(3), 381
     doi.org/10.1002/jcc.26942
 11. Wittmann, L.; Gordiy, I.; Friede, M.; Helmich-Paris, B.; Grimme, S.; Hansen, A.; Bursch, M.
     Extension of the D3 and D4 London Dispersion Corrections to the full Actinides Series
     Phys. Chem. Chem. Phys. 2024 26(32), 21379-21394
     doi.org/10.1039/D4CP01514B

List of suggested additional citations. These are papers that are important in the 'surrounding' of 
of this run, or papers that preceded the highly important papers. If you like your results we are grateful for a citation.

  1. Izsak, R.; Neese, F.
     An overlap fitted chain of spheres exchange method
     J. Chem. Phys. 2011 135 , 144105
     doi.org/10.1063/1.3646921
  2. Izsak, R.; Hansen, A.; Neese, F.
     The resolution of identity and chain of spheres approximations for the LPNO-CCSD singles Fock term
     Molec. Phys. 2012 110 , 2413-2417
     doi.org/10.1080/00268976.2012.687466
  3. Neese, F.
     The ORCA program system
     WIRES Comput. Molec. Sci. 2012 2(1), 73-78
     doi.org/10.1002/wcms.81
  4. Izsak, R.; Neese, F.; Klopper, W.
     Robust fitting techniques in the chain of spheres approximation to the Fock exchange: The role of the complementary space
     J. Chem. Phys. 2013 139 , 
     doi.org/10.1063/1.4819264
  5. Neese, F.
     Software update: the ORCA program system, version 4.0
     WIRES Comput. Molec. Sci. 2018 8(1), 1-6
     doi.org/10.1002/wcms.1327
  6. Neese, F.; Wennmohs, F.; Becker, U.; Riplinger, C.
     The ORCA quantum chemistry program package
     J. Chem. Phys. 2020 152(22), 224108
     doi.org/10.1063/5.0004608
  7. Neese, F.
     Software update: The ORCA program system—Version 5.0
     WIRES Comput. Molec. Sci. 2022 12(1), e1606
     doi.org/10.1002/wcms.1606

List of optional additional citations

  1. Neese, F.
     Approximate second-order SCF convergence for spin unrestricted wavefunctions
     Chem. Phys. Lett. 2000 325(1-3), 93-98
     doi.org/10.1016/s0009-2614(00)00662-x

Timings for individual modules:

Sum of individual times          ...    23240.245 sec (= 387.337 min)
Startup calculation              ...     2276.893 sec (=  37.948 min)   9.8 %
SCF iterations                   ...    14354.566 sec (= 239.243 min)  61.8 %
Property integrals               ...     1485.363 sec (=  24.756 min)   6.4 %
SCF Response                     ...     3189.101 sec (=  53.152 min)  13.7 %
Property calculations            ...      672.463 sec (=  11.208 min)   2.9 %
SCF Gradient evaluation          ...     1255.705 sec (=  20.928 min)   5.4 %
Geometry relaxation              ...        6.154 sec (=   0.103 min)   0.0 %
                             ****ORCA TERMINATED NORMALLY****
TOTAL RUN TIME: 0 days 6 hours 35 minutes 5 seconds 286 msec
