
                                 *****************
                                 * O   R   C   A *
                                 *****************

                                            #,                                       
                                            ###                                      
                                            ####                                     
                                            #####                                    
                                            ######                                   
                                           ########,                                 
                                     ,,################,,,,,                         
                               ,,#################################,,                 
                          ,,##########################################,,             
                       ,#########################################, ''#####,          
                    ,#############################################,,   '####,        
                  ,##################################################,,,,####,       
                ,###########''''           ''''###############################       
              ,#####''   ,,,,##########,,,,          '''####'''          '####       
            ,##' ,,,,###########################,,,                        '##       
           ' ,,###''''                  '''############,,,                           
         ,,##''                                '''############,,,,        ,,,,,,###''
      ,#''                                            '''#######################'''  
     '                                                          ''''####''''         
             ,#######,   #######,   ,#######,      ##                                
            ,#'     '#,  ##    ##  ,#'     '#,    #''#        ,####,    ,#,          
            ##       ##  ##   ,#'  ##            #'  '#       #'       ,# #          
            ##       ##  #######   ##           ,######,      #####,      #          
            '#,     ,#'  ##    ##  '#,     ,#' ,#      #,     #,   #      #          
             '#######'   ##     ##  '#######'  #'      '#     '####' #    #          



                #########################################################
                #                        -***-                          #
                #          Department of theory and spectroscopy        #
                #                                                       #
                #                      Frank Neese                      #
                #                                                       #
                #     Directorship, Architecture, Infrastructure        #
                #                    SHARK, DRIVERS                     #
                #        Core code/Algorithms in most modules           #
                #                                                       #
                #        Max Planck Institute fuer Kohlenforschung      #
                #                Kaiser Wilhelm Platz 1                 #
                #                 D-45470 Muelheim/Ruhr                 #
                #                      Germany                          #
                #                                                       #
                #                  All rights reserved                  #
                #                        -***-                          #
                #########################################################


                         Program Version 6.1.0-f.0  -   RELEASE   -


 With contributions from (in alphabetic order):
[Max-Planck-Institut fuer Kohlenforschung]                               
  Daniel Aravena         : Magnetic Suceptibility                        
  Michael Atanasov       : Ab Initio Ligand Field Theory (pilot matlab implementation)
  Alexander A. Auer      : GIAO ZORA, VPT2 properties, NMR spectrum      
  Ute Becker             : All parallelization in ORCA, NUMFREQ, NUMCALC 
  Giovanni Bistoni       : ED, misc. LED, open-shell LED, HFLD           
  Dmytro Bykov           : pre 5.0 version of the SCF Hessian            
  Marcos Casanova-Páez   : Triplet and SCS-CIS(D). UHF-(DLPNO)-IP/EA/STEOM-CCSD. UHF-CVS-IP/STEOM-CCSD   
  Vijay G. Chilkuri      : MRCI spin determinant printing, contributions to CSF-ICE 
  Pauline Colinet        : FMM embedding                                 
  Dipayan Datta          : RHF DLPNO-CCSD density                        
  Achintya Kumar Dutta   : EOM-CC, STEOM-CC                              
  Nicolas Foglia         : Exact transition moments, OPA infrastructure, MCD improvements    
  Dmitry Ganyushin       : Spin-Orbit,Spin-Spin,Magnetic field MRCI      
  Miquel Garcia-Rates    : C-PCM and meta-GGA Hessian, CCSD/C-PCM, Gaussian charge scheme 
  Tiago L. C. Gouveia    : GS-ROHF, GS-ROCIS                             
  Yang Guo               : DLPNO-NEVPT2, F12-NEVPT2, CIM, IAO-localization        
  Andreas Hansen         : Spin unrestricted coupled pair/coupled cluster methods 
  Ingolf Harden          : AUTO-CI MPn and infrastructure                
  Benjamin Helmich-Paris : MC-RPA, TRAH-(SCF,CASSCF), AVAS, COSX integrals, SCF dyn. polar., MC-PDFT, srDFT 
  Lee Huntington         : MR-EOM, pCC                                   
  Robert Izsak           : Overlap fitted RIJCOSX, COSX-SCS-MP3, EOM     
  Riya Kayal             : Wick's Theorem for AUTO-CI, AUTO-CI UHF-CCSDT 
  Emily Kempfer          : AUTO-CI RHF CISDT and CCSDT, approximate NEVPT4
  Christian Kollmar      : KDIIS, OOCD, Brueckner-CCSD(T), CCSD density, CASPT2, CASPT2-K, improved NEVPT2 
  Axel Koslowski         : Symmetry handling                             
  Simone Kossmann        : meta-GGA functionals, TD-DFT gradient, OOMP2, (MP2 Hessian; deprecated post 5.0) 
  Lucas Lang             : DCDCAS, Hyperfine gauge corrections, ICE-SOC+SSC
  Marvin Lechner         : AUTO-CI (C++ implementation), FIC-MRCC        
  Spencer Leger          : CASSCF response                               
  Dagmar Lenk            : GEPOL surface, SMD, ORCA-2-JSON               
  Dimitrios Liakos       : Extrapolation schemes; Compound Job, Property file
  Dimitrios Manganas     : Further ROCIS development; embedding schemes. LFT, Crystal Embedding 
  Dimitrios Pantazis     : SARC Basis sets                               
  Anastasios Papadopoulos: AUTO-CI, single reference methods and gradients 
  Taras Petrenko         : pre 6.0 DFT Hessian and TD-DFT gradient,  ECA, NRVS 
  Petra Pikulova         : Analytic Raman intensities                    
  Peter Pinski           : DLPNO-MP2, DLPNO-MP2 Gradient                 
  Shashank Vittal Rao    : ES-AILFT, MagRelax                            
  Christoph Reimann      : Effective Core Potentials                     
  Marius Retegan         : Local ZFS, SOC                                
  Christoph Riplinger    : Optimizer, TS searches, QM/MM, DLPNO-CCSD(T), (RO)-DLPNO pert. Triples 
  Michael Roemelt        : Original ROCIS implementation, recursive CI coupling coefficients
  Masaaki Saitow         : Open-shell DLPNO-CCSD energy and density      
  Barbara Sandhoefer     : DKH picture change effects                    
  Yorick L. A. Schmerwitz: GMF and freeze-and-release deltaSCF, NEB S-IDPP initial path                    
  Kantharuban Sivalingam : CASSCF convergence/infrastructure, NEVPT2, NEVPT3, NEVPT4(SD), FIC-MRCI and CEPA variants
  Bernardo de Souza      : ESD, SOC TD-DFT                               
  Georgi L. Stoychev     : AutoAux, RI-MP2 NMR, DLPNO-MP2 response, X2C  
  Van Anh Tran           : RI-MP2 g-tensors                              
  Willem Van den Heuvel  : Paramagnetic NMR                              
  Zikuan Wang            : NOTCH, Electric field optimization            
  Frank Wennmohs         : Technical directorship and infrastructure     
  Hang Xu                : AUTO-CI-Response properties                   
                                                                         
[FACCTs GmbH]                                                            
  Markus Bursch, Nicolas Foglia, Miquel Garcia-Rates, Ingolf Harden, Hagen Neugebauer, Anastasios Papadopoulos, 
  Christoph Riplinger, Bernardo de Souza, Georgi L. Stoychev                                                    
                                                                 
  APM, various basis sets, CI-OPT, improved COSX, DLPNO-Multilevel,           
  DOCKER, DRACO, updates on ESD, Fragmentator, GOAT, IRC, LR-CPCM, L-BFGS, MBIS, meta-GGA TD-DFT gradient, ML-optimized integration grids, 
  MM, NACMEs, nearIR, NEB, NEB-TS, NL-DFT gradient (VV10), 2- and 3-layer-ONIOM, interface openCOSMO-RS, QMMM,   
  Crystal-QMMM, RESP, rigid body optimization, SF, symmetry and pop. for TD-DFT, various functionals, SOLVATOR                                   
                                                                         
[Other institutions]                                                     
  V. Asgeirsson          : NEB                                           
  Christoph Bannwarth    : sTDA-DFT, sTD-DFT, PBEh-3c, B97-3c, D3        
  Giovanni Bistoni       : ETS/NOCV, ADLD/ADEX, COVALED                  
  Martin Brehm           : Molecular dynamics                            
  Ronald Cardenas        : ETS/NOCV                                      
  Martina Colucci        : COVALED                                       
  Sebastian Ehlert       : rSCAN, r2SCAN, r2SCAN-3c, D4, dhf basis sets  
  Marvin Friede          : D4 for Fr, Ra, Ac-Lr                          
  Lars Goerigk           : TD-DFT with DH, B97 family of functionals     
  Stefan Grimme          : VdW corrections, initial TS optimization, DFT functionals, gCP, sTDA/sTD-DF 
  Waldemar Hujo          : DFT-NL                                        
  H. Jonsson             : NEB                                           
  Holger Kruse           : gCP                                           
  Marcel Mueller         : wB97X-3c, vDZP basis set                      
  Hagen Neugebauer       : wr2SCAN, Native XTB                           
  Gianluca Regni         : ADLD/ADEX                                     
  Tobias Risthaus        : pre 6.0 range-separated hybrid DFT and stability analysis
  Lukas Wittmann         : regularized MP2, r2SCAN double-hybrids, wr2SCAN        
                                                                         
We gratefully acknowledge several colleagues who have allowed us to      
interface, adapt or use parts of their codes:                            
  Ed Valeev, F. Pavosevic, A. Kumar             : LibInt (2-el integral package), F12 methods 
  Garnet Chan, S. Sharma, J. Yang, R. Olivares  : DMRG                   
  Ulf Ekstrom                                   : XCFun DFT Library      
  Mihaly Kallay                                 : mrcc  (arbitrary order and MRCC methods)
  Frank Weinhold                                : gennbo (NPA and NBO analysis)           
  Simon Mueller                                 : openCOSMO-RS                            
  Christopher J. Cramer and Donald G. Truhlar   : smd solvation model                     
  S Lehtola, MJT Oliveira, MAL Marques          : LibXC Library                           
  Liviu Ungur et al                             : ANISO software                          


 Your calculation uses the libint2 library for the computation of 2-el integrals
 For citations please refer to: http://libint.valeyev.net

 Your ORCA version has been built with support for libXC version: 7.0.0
 For citations please refer to: https://libxc.gitlab.io

 This ORCA versions uses:
   CBLAS   interface :  Fast vector & matrix operations
   LAPACKE interface :  Fast linear algebra routines
   SCALAPACK package :  Parallel linear algebra routines
   Shared memory     :  Shared parallel matrices
   BLAS/LAPACK       :  OpenBLAS 0.3.29  USE64BITINT DYNAMIC_ARCH NO_AFFINITY Cooperlake SINGLE_THREADED
        Core in use  :  Cooperlake
   Copyright (c) 2011-2014, The OpenBLAS Project


  ***********************************
  * Starting time: Tue Mar  3 23:16:04 2026
  * Host name:     c09b01n02
  * Process ID:    2463481
  * Working dir.:  /lustre1/jiangy/jiangy_liuxy/NMR/B9D7C2-SSRR
  ***********************************

NOTE: MaxCore=6000 MB was set to SCF,MP2,MDCI,CIPSI,MRCI,RASCI and CIS
      => If you want to overwrite this, your respective input block should be placed after the MaxCore statement


***************************************
The coordinates will be read from file: conf-9.xyz
***************************************


Your calculation utilizes the atom-pairwise dispersion correction
based on EEQ partial charges (D4)


Warning: RI is on but no J-basis has been assigned. Assigning Def2/J (nothing to worry about!)
================================================================================

----- Orbital basis set information -----
Your calculation utilizes the basis: def2-TZVP
   F. Weigend and R. Ahlrichs, Phys. Chem. Chem. Phys. 7, 3297 (2005).

----- AuxJ basis set information -----
Your calculation utilizes the auxiliary basis: def2/J
   H-Rn: F. Weigend, Phys. Chem. Chem. Phys. 8, 1057 (2006).
   Fr-Lr: K. Eichkorn, F. Weigend, O. Treutler, R. Ahlrichs; Theor. Chem. Acc. 97, 119 (1997).

================================================================================
                                        WARNINGS
                       Please study these warnings very carefully!
================================================================================


WARNING: Geometry Optimization
  ===> : Switching off AutoStart
         For restart on a previous wavefunction, please use MOREAD

================================================================================
                                       INPUT FILE
================================================================================
NAME = opt-conf-9.inp
|  1> ! B3LYP OPT FREQ DEF2-TZVP D4 CPCM(Methanol) 
|  2> ! TightOpt
|  3> %pal nprocs 64 end
|  4> %maxcore 6000
|  5> 
|  6> %cpcm
|  7> end
|  8> 
|  9> %freq
| 10>    Temp 298.15
| 11> end
| 12> 
| 13> * xyzfile 0 1 conf-9.xyz
| 14> 
| 15> 
| 16>                          ****END OF INPUT****
================================================================================

                       *****************************
                       * Geometry Optimization Run *
                       *****************************

Geometry optimization settings:
Update method            Update   .... BFGS
Choice of coordinates    CoordSys .... (2022) Redundant Internals
Initial Hessian          InHess   .... Almloef's Model
Max. no of cycles        MaxIter  .... 246

Convergence Tolerances:
Energy Change            TolE     ....  1.0000e-06 Eh
Max. Gradient            TolMAXG  ....  1.0000e-04 Eh/bohr
RMS Gradient             TolRMSG  ....  3.0000e-05 Eh/bohr
Max. Displacement        TolMAXD  ....  1.0000e-03 bohr
RMS Displacement         TolRMSD  ....  6.0000e-04 bohr
Strict Convergence                .... False

------------------------------------------------------------------------------
                        ORCA OPTIMIZATION COORDINATE SETUP
------------------------------------------------------------------------------

The optimization will be done in redundant internal coordinates (2022)
Making redundant internal coordinates   ...  (2022 redundants) done
Evaluating the initial hessian          ...  (Almloef) done
Evaluating the coordinates              ...  done
Calculating the B-matrix                .... done
Calculating the G-matrix                .... done
The number of degrees of freedom        ....  407

    -----------------------------------------------------------------
                    Redundant Internal Coordinates


    -----------------------------------------------------------------
         Definition                    Initial Value    Approx d2E/dq
    -----------------------------------------------------------------
      1. B(C   1,C   0)                  1.4016         0.598810   
      2. B(C   2,C   1)                  1.4003         0.601576   
      3. B(C   3,C   2)                  1.3884         0.628366   
      4. B(C   4,C   3)                  1.3869         0.632007   
      5. B(C   5,C   0)                  1.3871         0.631597   
      6. B(C   5,C   4)                  1.3860         0.633985   
      7. B(C   6,C   4)                  1.5034         0.411941   
      8. B(C   7,C   6)                  1.5417         0.357920   
      9. B(C   8,C   7)                  1.5492         0.348178   
     10. B(C   9,C   8)                  1.5370         0.364125   
     11. B(C  10,C   9)                  1.5046         0.410129   
     12. B(C  11,C  10)                  1.3949         0.613712   
     13. B(C  12,C  11)                  1.3837         0.639355   
     14. B(C  13,C  12)                  1.4038         0.593974   
     15. B(C  14,C  13)                  1.3829         0.641424   
     16. B(C  15,C  10)                  1.3864         0.633138   
     17. B(C  15,C  14)                  1.3848         0.636901   
     18. B(C  16,C   7)                  1.5345         0.367516   
     19. B(C  17,C   8)                  1.5414         0.358243   
     20. B(O  18,C   2)                  1.3648         0.613839   
     21. B(O  19,C   0)                  1.3675         0.607822   
     22. B(O  20,C   1)                  1.3770         0.587024   
     23. B(O  21,C  13)                  1.3617         0.620853   
     24. B(O  22,C  12)                  1.3788         0.583004   
     25. B(C  23,O  20)                  1.4241         0.493781   
     26. B(C  24,C  23)                  1.5499         0.347257   
     27. B(C  25,C  24)                  1.5171         0.391698   
     28. B(C  26,C  23)                  1.5331         0.369347   
     29. B(O  27,C  26)                  1.4015         0.536512   
     30. B(C  28,C  25)                  1.3929         0.618201   
     31. B(C  29,C  28)                  1.3810         0.645833   
     32. B(C  30,C  29)                  1.4028         0.596192   
     33. B(C  31,C  30)                  1.3811         0.645569   
     34. B(C  32,C  31)                  1.3844         0.637785   
     35. B(C  32,C  25)                  1.3835         0.639846   
     36. B(C  33,O  19)                  1.4071         0.525492   
     37. B(C  34,O  18)                  1.4090         0.521943   
     38. B(C  35,O  22)                  1.4057         0.528150   
     39. B(O  36,C  24)                  1.3999         0.539633   
     40. B(O  37,C  16)                  1.4084         0.523056   
     41. B(O  38,C  17)                  1.4000         0.539420   
     42. B(O  39,C  29)                  1.3764         0.588167   
     43. B(O  40,C  30)                  1.3692         0.604061   
     44. B(C  41,O  39)                  1.4078         0.524105   
     45. B(H  42,C   3)                  1.0780         0.376342   
     46. B(H  43,C   5)                  1.0778         0.376553   
     47. B(H  44,C   6)                  1.0910         0.358720   
     48. B(H  45,C   6)                  1.0912         0.358452   
     49. B(H  46,C   7)                  1.0958         0.352527   
     50. B(H  47,C   8)                  1.0942         0.354622   
     51. B(H  48,C   9)                  1.0908         0.358981   
     52. B(H  49,C   9)                  1.0947         0.353907   
     53. B(H  50,C  11)                  1.0797         0.374030   
     54. B(H  51,C  14)                  1.0786         0.375488   
     55. B(H  52,C  15)                  1.0782         0.376051   
     56. B(H  53,C  16)                  1.0931         0.356062   
     57. B(H  54,C  16)                  1.0980         0.349689   
     58. B(H  55,C  17)                  1.0950         0.353608   
     59. B(H  56,C  17)                  1.1020         0.344519   
     60. B(H  57,O  21)                  0.9662         0.508243   
     61. B(H  57,O  22)                  2.1305         0.010000   
     62. B(H  58,C  23)                  1.0939         0.354932   
     63. B(H  59,C  24)                  1.0976         0.350201   
     64. B(H  60,C  26)                  1.0917         0.357835   
     65. B(H  61,C  26)                  1.0986         0.348889   
     66. B(H  62,O  20)                  2.3147         0.010000   
     67. B(H  62,O  27)                  0.9656         0.509325   
     68. B(H  63,C  28)                  1.0782         0.376069   
     69. B(H  64,C  31)                  1.0781         0.376185   
     70. B(H  65,C  32)                  1.0783         0.375942   
     71. B(H  66,C  33)                  1.0888         0.361692   
     72. B(H  67,C  33)                  1.0946         0.354051   
     73. B(H  68,C  33)                  1.0939         0.354919   
     74. B(H  69,C  34)                  1.0937         0.355297   
     75. B(H  70,H  51)                  2.8140         0.010000   
     76. B(H  70,C  34)                  1.0939         0.354992   
     77. B(H  71,C  34)                  1.0891         0.361337   
     78. B(H  72,C  35)                  1.0891         0.361307   
     79. B(H  73,C  35)                  1.0939         0.354959   
     80. B(H  74,C  35)                  1.0947         0.353895   
     81. B(H  75,O  20)                  2.2528         0.010000   
     82. B(H  75,O  19)                  2.0985         0.010000   
     83. B(H  75,O  36)                  0.9733         0.495252   
     84. B(H  76,O  40)                  1.9293         0.014777   
     85. B(H  76,O  37)                  0.9708         0.499727   
     86. B(H  77,O  37)                  1.8786         0.017798   
     87. B(H  77,O  38)                  0.9720         0.497506   
     88. B(H  78,H  74)                  2.4782         0.010000   
     89. B(H  78,O  39)                  2.1060         0.010000   
     90. B(H  78,O  40)                  0.9695         0.502168   
     91. B(H  79,C  41)                  1.0939         0.355016   
     92. B(H  80,H  70)                  2.5297         0.010000   
     93. B(H  80,C  41)                  1.0936         0.355378   
     94. B(H  81,C  41)                  1.0886         0.361893   
     95. A(C   1,C   0,O  19)          114.6834         0.427022   
     96. A(C   5,C   0,O  19)          124.9574         0.431126   
     97. A(C   1,C   0,C   5)          120.3551         0.432800   
     98. A(C   0,C   1,O  20)          116.3534         0.424369   
     99. A(C   0,C   1,C   2)          119.5011         0.429031   
    100. A(C   2,C   1,O  20)          123.9927         0.424719   
    101. A(C   3,C   2,O  18)          123.9563         0.431491   
    102. A(C   1,C   2,C   3)          119.1789         0.432759   
    103. A(C   1,C   2,O  18)          116.8648         0.428130   
    104. A(C   4,C   3,H  42)          118.5684         0.356717   
    105. A(C   2,C   3,H  42)          120.2472         0.356367   
    106. A(C   2,C   3,C   4)          121.1761         0.436620   
    107. A(C   5,C   4,C   6)          121.5196         0.405160   
    108. A(C   3,C   4,C   6)          118.7737         0.404937   
    109. A(C   3,C   4,C   5)          119.6922         0.437322   
    110. A(C   4,C   5,H  43)          119.2843         0.356941   
    111. A(C   0,C   5,H  43)          120.6722         0.356712   
    112. A(C   0,C   5,C   4)          120.0435         0.437270   
    113. A(C   4,C   6,H  44)          110.5140         0.329375   
    114. A(C   7,C   6,H  45)          109.1768         0.321808   
    115. A(C   4,C   6,C   7)          110.9126         0.366785   
    116. A(H  44,C   6,H  45)          107.9604         0.290455   
    117. A(C   4,C   6,H  45)          108.3847         0.329334   
    118. A(C   7,C   6,H  44)          109.8210         0.321847   
    119. A(C   6,C   7,C  16)          108.2075         0.359702   
    120. A(C   8,C   7,C  16)          115.2377         0.358017   
    121. A(C  16,C   7,H  46)          107.0276         0.322324   
    122. A(C   8,C   7,H  46)          106.8196         0.319487   
    123. A(C   6,C   7,H  46)          106.9661         0.320931   
    124. A(C   6,C   7,C   8)          112.1456         0.356411   
    125. A(C   7,C   8,C  17)          115.1226         0.356465   
    126. A(C  17,C   8,H  47)          105.4405         0.321290   
    127. A(C   7,C   8,C   9)          111.2308         0.357453   
    128. A(C   9,C   8,H  47)          108.2053         0.322148   
    129. A(C   7,C   8,H  47)          107.2896         0.319796   
    130. A(C   9,C   8,C  17)          109.1732         0.359190   
    131. A(H  48,C   9,H  49)          106.9105         0.289907   
    132. A(C  10,C   9,H  48)          109.3497         0.329175   
    133. A(C  10,C   9,H  49)          108.6408         0.328402   
    134. A(C   8,C   9,C  10)          114.8536         0.367590   
    135. A(C   8,C   9,H  48)          108.9632         0.322793   
    136. A(C   8,C   9,H  49)          107.8254         0.322041   
    137. A(C   9,C  10,C  11)          119.1063         0.402530   
    138. A(C  11,C  10,C  15)          118.4980         0.434909   
    139. A(C   9,C  10,C  15)          122.3644         0.404749   
    140. A(C  10,C  11,C  12)          121.0905         0.435675   
    141. A(C  10,C  11,H  50)          118.5287         0.354572   
    142. A(C  12,C  11,H  50)          120.3618         0.357044   
    143. A(C  11,C  12,C  13)          119.6859         0.433119   
    144. A(C  13,C  12,O  22)          114.6145         0.423234   
    145. A(C  11,C  12,O  22)          125.6990         0.428850   
    146. A(C  12,C  13,O  21)          120.6424         0.428026   
    147. A(C  12,C  13,C  14)          119.2737         0.433371   
    148. A(C  14,C  13,O  21)          120.0834         0.433975   
    149. A(C  13,C  14,H  51)          118.3643         0.357477   
    150. A(C  13,C  14,C  15)          120.4443         0.438853   
    151. A(C  15,C  14,H  51)          121.1836         0.357047   
    152. A(C  14,C  15,H  52)          118.7519         0.357138   
    153. A(C  10,C  15,H  52)          120.2521         0.356779   
    154. A(C  10,C  15,C  14)          120.9935         0.437824   
    155. A(O  37,C  16,H  54)          110.2157         0.339189   
    156. A(C   7,C  16,H  54)          107.5944         0.321898   
    157. A(O  37,C  16,H  53)          106.1160         0.340214   
    158. A(C   7,C  16,H  53)          111.0240         0.322852   
    159. A(C   7,C  16,O  37)          113.9163         0.381547   
    160. A(H  53,C  16,H  54)          107.8395         0.288992   
    161. A(O  38,C  17,H  56)          111.0523         0.340092   
    162. A(C   8,C  17,O  38)          115.0669         0.381895   
    163. A(H  55,C  17,H  56)          107.3874         0.288008   
    164. A(C   8,C  17,H  56)          109.1261         0.319775   
    165. A(O  38,C  17,H  55)          105.2259         0.341576   
    166. A(C   8,C  17,H  55)          108.6316         0.321140   
    167. A(C   2,O  18,C  34)          118.4380         0.414702   
    168. A(C   0,O  19,C  33)          118.4297         0.414476   
    169. A(C   1,O  20,C  23)          118.9850         0.407404   
    170. A(C  13,O  21,H  57)          107.6416         0.368757   
    171. A(C  12,O  22,C  35)          118.3110         0.411788   
    172. A(C  26,C  23,H  58)          109.5993         0.322947   
    173. A(C  24,C  23,H  58)          110.9476         0.319704   
    174. A(O  20,C  23,H  58)          110.2591         0.336782   
    175. A(C  24,C  23,C  26)          111.1163         0.358158   
    176. A(O  20,C  23,C  26)          104.8325         0.378083   
    177. A(O  20,C  23,C  24)          109.9208         0.374076   
    178. A(C  23,C  24,O  36)          109.7667         0.379863   
    179. A(O  36,C  24,H  59)          106.2368         0.341046   
    180. A(C  25,C  24,H  59)          109.0354         0.325360   
    181. A(C  23,C  24,H  59)          108.2847         0.319004   
    182. A(C  25,C  24,O  36)          113.1278         0.387900   
    183. A(C  23,C  24,C  25)          110.2072         0.361761   
    184. A(C  28,C  25,C  32)          119.4450         0.436307   
    185. A(C  24,C  25,C  32)          121.1301         0.402227   
    186. A(C  24,C  25,C  28)          119.4248         0.399796   
    187. A(O  27,C  26,H  61)          110.9726         0.340501   
    188. A(H  60,C  26,H  61)          109.0857         0.289114   
    189. A(C  23,C  26,H  61)          108.5257         0.322039   
    190. A(O  27,C  26,H  60)          106.7646         0.341947   
    191. A(C  23,C  26,H  60)          109.9955         0.323378   
    192. A(C  23,C  26,O  27)          111.4677         0.383565   
    193. A(C  26,O  27,H  62)          106.9172         0.359794   
    194. A(C  29,C  28,H  63)          120.3076         0.357987   
    195. A(C  25,C  28,H  63)          119.4241         0.355338   
    196. A(C  25,C  28,C  29)          120.2671         0.437040   
    197. A(C  30,C  29,O  39)          114.6372         0.424184   
    198. A(C  28,C  29,O  39)          125.6044         0.430307   
    199. A(C  28,C  29,C  30)          119.7549         0.434196   
    200. A(C  31,C  30,O  40)          120.5262         0.432341   
    201. A(C  29,C  30,O  40)          119.7059         0.426213   
    202. A(C  29,C  30,C  31)          119.7587         0.434164   
    203. A(C  32,C  31,H  64)          120.8547         0.357244   
    204. A(C  30,C  31,H  64)          119.1576         0.357981   
    205. A(C  30,C  31,C  32)          119.9828         0.439473   
    206. A(C  31,C  32,H  65)          119.9422         0.357205   
    207. A(C  25,C  32,H  65)          119.4336         0.357401   
    208. A(C  25,C  32,C  31)          120.6207         0.438767   
    209. A(H  67,C  33,H  68)          109.4870         0.289408   
    210. A(H  66,C  33,H  68)          109.3082         0.290379   
    211. A(O  19,C  33,H  68)          111.5131         0.340295   
    212. A(H  66,C  33,H  67)          109.3628         0.290268   
    213. A(O  19,C  33,H  67)          111.4832         0.340156   
    214. A(O  19,C  33,H  66)          105.5885         0.341373   
    215. A(H  69,C  34,H  71)          109.1187         0.290383   
    216. A(O  18,C  34,H  71)          105.5734         0.340930   
    217. A(H  69,C  34,H  70)          109.2621         0.289577   
    218. A(O  18,C  34,H  70)          111.8215         0.339922   
    219. A(O  18,C  34,H  69)          111.3505         0.339971   
    220. A(H  70,C  34,H  71)          109.6243         0.290344   
    221. A(H  73,C  35,H  74)          109.5192         0.289394   
    222. A(H  72,C  35,H  74)          109.1726         0.290199   
    223. A(O  22,C  35,H  74)          111.5773         0.340418   
    224. A(H  72,C  35,H  73)          109.2909         0.290336   
    225. A(O  22,C  35,H  73)          111.4737         0.340589   
    226. A(O  22,C  35,H  72)          105.7037         0.341600   
    227. A(C  24,O  36,H  75)          107.2953         0.358435   
    228. A(C  16,O  37,H  76)          108.0664         0.357084   
    229. A(C  17,O  38,H  77)          108.6143         0.358688   
    230. A(C  29,O  39,C  41)          118.0011         0.411870   
    231. A(C  30,O  40,H  78)          107.5266         0.366271   
    232. A(H  80,C  41,H  81)          109.4743         0.290464   
    233. A(H  79,C  41,H  81)          109.4246         0.290417   
    234. A(O  39,C  41,H  81)          105.4774         0.341254   
    235. A(H  79,C  41,H  80)          109.6189         0.289591   
    236. A(O  39,C  41,H  80)          111.5753         0.340219   
    237. A(O  39,C  41,H  79)          111.1723         0.340161   
    238. D(O  20,C   1,C   0,O  19)      7.1498         0.024714   
    239. D(C   2,C   1,C   0,O  19)   -177.1630         0.024714   
    240. D(C   2,C   1,C   0,C   5)      2.1403         0.024714   
    241. D(O  20,C   1,C   0,C   5)   -173.5469         0.024714   
    242. D(O  18,C   2,C   1,C   0)    179.4339         0.024955   
    243. D(C   3,C   2,C   1,C   0)     -0.5240         0.024955   
    244. D(C   3,C   2,C   1,O  20)    174.8140         0.024955   
    245. D(O  18,C   2,C   1,O  20)     -5.2281         0.024955   
    246. D(C   4,C   3,C   2,C   1)     -1.5317         0.027368   
    247. D(H  42,C   3,C   2,O  18)     -0.4210         0.027368   
    248. D(C   4,C   3,C   2,O  18)    178.5135         0.027368   
    249. D(H  42,C   3,C   2,C   1)    179.5338         0.027368   
    250. D(C   6,C   4,C   3,H  42)     -0.4359         0.027706   
    251. D(C   5,C   4,C   3,H  42)   -179.0723         0.027706   
    252. D(C   5,C   4,C   3,C   2)      1.9758         0.027706   
    253. D(C   6,C   4,C   3,C   2)   -179.3878         0.027706   
    254. D(H  43,C   5,C   4,C   6)      1.0384         0.027891   
    255. D(H  43,C   5,C   4,C   3)    179.6363         0.027891   
    256. D(C   0,C   5,C   4,C   3)     -0.3332         0.027891   
    257. D(C   4,C   5,C   0,O  19)    177.5133         0.027668   
    258. D(H  43,C   5,C   0,C   1)    178.3166         0.027668   
    259. D(H  43,C   5,C   0,O  19)     -2.4558         0.027668   
    260. D(C   0,C   5,C   4,C   6)   -178.9310         0.027891   
    261. D(C   4,C   5,C   0,C   1)     -1.7143         0.027668   
    262. D(H  45,C   6,C   4,C   3)     44.2706         0.012564   
    263. D(H  44,C   6,C   4,C   5)    -19.0002         0.012564   
    264. D(H  44,C   6,C   4,C   3)    162.3894         0.012564   
    265. D(C   7,C   6,C   4,C   5)    103.0422         0.012564   
    266. D(C   7,C   6,C   4,C   3)    -75.5682         0.012564   
    267. D(C   8,C   7,C   6,H  44)    -82.4560         0.010286   
    268. D(C   8,C   7,C   6,C   4)    155.0982         0.010286   
    269. D(C  16,C   7,C   6,H  45)    163.9377         0.010286   
    270. D(C  16,C   7,C   6,H  44)     45.7482         0.010286   
    271. D(C   8,C   7,C   6,H  45)     35.7336         0.010286   
    272. D(C  16,C   7,C   6,C   4)    -76.6976         0.010286   
    273. D(C  17,C   8,C   7,H  46)   -149.2474         0.010000   
    274. D(C  17,C   8,C   7,C  16)    -30.5168         0.010000   
    275. D(C  17,C   8,C   7,C   6)     93.8705         0.010000   
    276. D(C   9,C   8,C   7,C  16)     94.3257         0.010000   
    277. D(C   9,C   8,C   7,H  46)    -24.4050         0.010000   
    278. D(C   9,C   8,C   7,C   6)   -141.2871         0.010000   
    279. D(H  48,C   9,C   8,C  17)     60.4062         0.010621   
    280. D(H  48,C   9,C   8,C   7)    -67.7132         0.010621   
    281. D(C  10,C   9,C   8,H  47)    -62.2779         0.010621   
    282. D(C  10,C   9,C   8,C  17)   -176.5509         0.010621   
    283. D(H  48,C   9,C   8,H  47)    174.6792         0.010621   
    284. D(C  10,C   9,C   8,C   7)     55.3297         0.010621   
    285. D(C  15,C  10,C   9,H  48)    163.5724         0.012458   
    286. D(C  15,C  10,C   9,C   8)     40.7368         0.012458   
    287. D(C  11,C  10,C   9,H  49)     97.8527         0.012458   
    288. D(C  11,C  10,C   9,H  48)    -18.4951         0.012458   
    289. D(C  11,C  10,C   9,C   8)   -141.3307         0.012458   
    290. D(H  50,C  11,C  10,C  15)    178.5270         0.026031   
    291. D(H  50,C  11,C  10,C   9)      0.5141         0.026031   
    292. D(C  12,C  11,C  10,C  15)      0.1080         0.026031   
    293. D(C  12,C  11,C  10,C   9)   -177.9049         0.026031   
    294. D(O  22,C  12,C  11,H  50)      0.2570         0.028397   
    295. D(C  13,C  12,C  11,H  50)   -179.4502         0.028397   
    296. D(O  22,C  12,C  11,C  10)    178.6472         0.028397   
    297. D(C  13,C  12,C  11,C  10)     -1.0600         0.028397   
    298. D(O  21,C  13,C  12,C  11)   -179.2301         0.024296   
    299. D(C  14,C  13,C  12,O  22)   -178.7001         0.024296   
    300. D(C  14,C  13,C  12,C  11)      1.0383         0.024296   
    301. D(O  21,C  13,C  12,O  22)      1.0314         0.024296   
    302. D(H  51,C  14,C  13,O  21)     -0.8177         0.028594   
    303. D(H  51,C  14,C  13,C  12)    178.9154         0.028594   
    304. D(C  15,C  14,C  13,O  21)   -179.8102         0.028594   
    305. D(C  15,C  14,C  13,C  12)     -0.0772         0.028594   
    306. D(H  52,C  15,C  14,H  51)     -0.4265         0.028165   
    307. D(H  52,C  15,C  14,C  13)    178.5373         0.028165   
    308. D(C  10,C  15,C  14,H  51)   -179.8557         0.028165   
    309. D(C  10,C  15,C  14,C  13)     -0.8919         0.028165   
    310. D(H  52,C  15,C  10,C  11)   -178.5481         0.027812   
    311. D(H  52,C  15,C  10,C   9)     -0.6035         0.027812   
    312. D(C  14,C  15,C  10,C  11)      0.8726         0.027812   
    313. D(C  14,C  15,C  10,C   9)    178.8171         0.027812   
    314. D(H  53,C  16,C   7,H  46)    178.6379         0.010806   
    315. D(H  53,C  16,C   7,C   8)     60.0229         0.010806   
    316. D(H  53,C  16,C   7,C   6)    -66.4008         0.010806   
    317. D(O  37,C  16,C   7,H  46)     58.9180         0.010806   
    318. D(O  37,C  16,C   7,C   8)    -59.6970         0.010806   
    319. D(O  37,C  16,C   7,C   6)    173.8793         0.010806   
    320. D(H  55,C  17,C   8,H  47)    -42.9620         0.010303   
    321. D(H  55,C  17,C   8,C   9)     73.0906         0.010303   
    322. D(H  55,C  17,C   8,C   7)   -161.0005         0.010303   
    323. D(O  38,C  17,C   8,H  47)   -160.5857         0.010303   
    324. D(O  38,C  17,C   8,C   9)    -44.5331         0.010303   
    325. D(O  38,C  17,C   8,C   7)     81.3758         0.010303   
    326. D(C  34,O  18,C   2,C   3)     -3.0830         0.027605   
    327. D(C  34,O  18,C   2,C   1)    176.9613         0.027605   
    328. D(C  33,O  19,C   0,C   5)     -0.0092         0.029826   
    329. D(C  33,O  19,C   0,C   1)    179.2573         0.029826   
    330. D(C  23,O  20,C   1,C   2)     58.8635         0.030087   
    331. D(C  23,O  20,C   1,C   0)   -125.6643         0.030087   
    332. D(H  57,O  21,C  13,C  14)    174.8657         0.028286   
    333. D(H  57,O  21,C  13,C  12)     -4.8637         0.028286   
    334. D(C  35,O  22,C  12,C  13)    178.0633         0.027280   
    335. D(C  35,O  22,C  12,C  11)     -1.6570         0.027280   
    336. D(H  58,C  23,O  20,C   1)    -54.9661         0.022426   
    337. D(C  26,C  23,O  20,C   1)   -172.8466         0.022426   
    338. D(C  24,C  23,O  20,C   1)     67.6568         0.022426   
    339. D(O  36,C  24,C  23,H  58)    173.1917         0.010000   
    340. D(O  36,C  24,C  23,C  26)    -64.6085         0.010000   
    341. D(O  36,C  24,C  23,O  20)     50.9763         0.010000   
    342. D(C  25,C  24,C  23,H  58)     47.9502         0.010000   
    343. D(C  25,C  24,C  23,C  26)    170.1501         0.010000   
    344. D(C  25,C  24,C  23,O  20)    -74.2651         0.010000   
    345. D(C  32,C  25,C  24,O  36)     -2.0597         0.011409   
    346. D(C  32,C  25,C  24,C  23)    121.2437         0.011409   
    347. D(C  28,C  25,C  24,H  59)     59.8664         0.011409   
    348. D(C  28,C  25,C  24,O  36)    177.8352         0.011409   
    349. D(C  28,C  25,C  24,C  23)    -58.8613         0.011409   
    350. D(H  60,C  26,C  23,H  58)     61.3920         0.010908   
    351. D(H  60,C  26,C  23,C  24)    -61.5870         0.010908   
    352. D(H  60,C  26,C  23,O  20)    179.7205         0.010908   
    353. D(O  27,C  26,C  23,H  58)    -56.8324         0.010908   
    354. D(O  27,C  26,C  23,C  24)   -179.8113         0.010908   
    355. D(O  27,C  26,C  23,O  20)     61.4962         0.010908   
    356. D(H  62,O  27,C  26,H  61)     71.3666         0.022885   
    357. D(H  62,O  27,C  26,H  60)   -169.8698         0.022885   
    358. D(H  62,O  27,C  26,C  23)    -49.7231         0.022885   
    359. D(H  63,C  28,C  25,C  32)    176.6363         0.026436   
    360. D(H  63,C  28,C  25,C  24)     -3.2604         0.026436   
    361. D(C  29,C  28,C  25,C  32)     -3.7711         0.026436   
    362. D(C  29,C  28,C  25,C  24)    176.3321         0.026436   
    363. D(C  30,C  29,C  28,H  63)   -179.6142         0.029015   
    364. D(C  30,C  29,C  28,C  25)      0.7969         0.029015   
    365. D(O  39,C  29,C  28,H  63)     -0.3363         0.029015   
    366. D(O  39,C  29,C  28,C  25)   -179.9252         0.029015   
    367. D(O  40,C  30,C  29,O  39)      2.3789         0.024487   
    368. D(O  40,C  30,C  29,C  28)   -178.2669         0.024487   
    369. D(C  31,C  30,C  29,O  39)   -176.5189         0.024487   
    370. D(C  31,C  30,C  29,C  28)      2.8352         0.024487   
    371. D(H  64,C  31,C  30,O  40)     -3.1635         0.028990   
    372. D(H  64,C  31,C  30,C  29)    175.7252         0.028990   
    373. D(C  32,C  31,C  30,O  40)    177.6412         0.028990   
    374. D(C  32,C  31,C  30,C  29)     -3.4702         0.028990   
    375. D(H  65,C  32,C  31,H  64)      0.6056         0.028249   
    376. D(H  65,C  32,C  31,C  30)    179.7871         0.028249   
    377. D(C  25,C  32,C  31,H  64)   -178.7065         0.028249   
    378. D(C  25,C  32,C  31,C  30)      0.4749         0.028249   
    379. D(H  65,C  32,C  25,C  28)   -176.1662         0.028444   
    380. D(H  65,C  32,C  25,C  24)      3.7288         0.028444   
    381. D(C  31,C  32,C  25,C  28)      3.1494         0.028444   
    382. D(C  31,C  32,C  25,C  24)   -176.9556         0.028444   
    383. D(H  68,C  33,O  19,C   0)     62.6440         0.023787   
    384. D(H  67,C  33,O  19,C   0)    -60.0725         0.023787   
    385. D(H  66,C  33,O  19,C   0)   -178.7390         0.023787   
    386. D(H  71,C  34,O  18,C   2)   -178.5479         0.021605   
    387. D(H  70,C  34,O  18,C   2)     62.2983         0.021605   
    388. D(H  69,C  34,O  18,C   2)    -60.2531         0.021605   
    389. D(H  74,C  35,O  22,C  12)     64.7882         0.024041   
    390. D(H  73,C  35,O  22,C  12)    -58.0094         0.024041   
    391. D(H  72,C  35,O  22,C  12)   -176.6539         0.024041   
    392. D(H  75,O  36,C  24,H  59)   -163.2173         0.023165   
    393. D(H  75,O  36,C  24,C  25)     77.1939         0.023165   
    394. D(H  75,O  36,C  24,C  23)    -46.3523         0.023165   
    395. D(H  76,O  37,C  16,H  54)     59.9599         0.023557   
    396. D(H  76,O  37,C  16,H  53)    176.4610         0.023557   
    397. D(H  76,O  37,C  16,C   7)    -61.0832         0.023557   
    398. D(H  77,O  38,C  17,H  56)     75.8139         0.023145   
    399. D(H  77,O  38,C  17,H  55)   -168.2979         0.023145   
    400. D(H  77,O  38,C  17,C   8)    -48.7706         0.023145   
    401. D(C  41,O  39,C  29,C  30)    168.5659         0.027798   
    402. D(C  41,O  39,C  29,C  28)    -10.7445         0.027798   
    403. D(H  78,O  40,C  30,C  31)   -176.4940         0.029431   
    404. D(H  78,O  40,C  30,C  29)      4.6168         0.029431   
    405. D(H  81,C  41,O  39,C  29)   -170.6559         0.023656   
    406. D(H  80,C  41,O  39,C  29)     70.5615         0.023656   
    407. D(H  79,C  41,O  39,C  29)    -52.1462         0.023656   
    -----------------------------------------------------------------

Number of atoms                         .... 82
Number of degrees of freedom            .... 407


         *************************************************************
         *                GEOMETRY OPTIMIZATION CYCLE   1            *
         *************************************************************
---------------------------------
CARTESIAN COORDINATES (ANGSTROEM)
---------------------------------
  C     23.224496  -30.903655   -2.200923
  C     23.146615  -30.126448   -1.037193
  C     21.902463  -29.917521   -0.429492
  C     20.767554  -30.477440   -1.000687
  C     20.842240  -31.210604   -2.175557
  C     22.074060  -31.425935   -2.773319
  C     19.577360  -31.781010   -2.754254
  C     19.114127  -33.015145   -1.954867
  C     17.589313  -33.256163   -2.084350
  C     16.983874  -33.720128   -0.750007
  C     17.242899  -32.803483    0.414662
  C     17.510716  -33.356516    1.666899
  C     17.712322  -32.552431    2.774829
  C     17.669466  -31.156053    2.637472
  C     17.404095  -30.606492    1.396570
  C     17.184375  -31.423084    0.299981
  C     20.000316  -34.203454   -2.351262
  C     17.174222  -34.238439   -3.197351
  O     21.890403  -29.162455    0.707369
  O     24.492350  -31.094127   -2.676650
  O     24.317535  -29.536303   -0.616794
  O     17.880594  -30.346195    3.711644
  O     17.956281  -32.996132    4.057338
  C     24.764051  -29.761906    0.716501
  C     25.180117  -31.244753    0.890281
  C     23.949823  -32.130037    0.955506
  C     25.966307  -28.826799    0.891278
  O     25.597393  -27.483274    0.739773
  C     23.001287  -31.911118    1.951746
  C     21.839095  -32.656439    1.982179
  C     21.622923  -33.648791    1.014588
  C     22.599104  -33.913463    0.074137
  C     23.755063  -33.152280    0.043795
  C     24.663236  -31.876599   -3.833591
  C     20.649262  -28.876848    1.310007
  C     17.974394  -34.382179    4.291133
  O     26.067069  -31.610204   -0.129254
  O     19.769875  -35.366259   -1.590788
  O     17.279014  -35.593604   -2.861889
  O     20.831288  -32.531801    2.911368
  O     20.454715  -34.362843    1.024259
  C     21.075555  -31.739438    4.049128
  H     19.802102  -30.333851   -0.543140
  H     22.125158  -32.001657   -3.683082
  H     19.723930  -32.051853   -3.800935
  H     18.802377  -31.013996   -2.710493
  H     19.313279  -32.804803   -0.898060
  H     17.130667  -32.299979   -2.353737
  H     17.361658  -34.716527   -0.516739
  H     15.901889  -33.813951   -0.887564
  H     17.532532  -34.431789    1.761737
  H     17.357047  -29.532287    1.311329
  H     16.956247  -30.966081   -0.649558
  H     19.834813  -34.485316   -3.394317
  H     21.046417  -33.885443   -2.250683
  H     16.115348  -34.080023   -3.426720
  H     17.746697  -34.011432   -4.111263
  H     17.966335  -30.910353    4.491337
  H     23.980511  -29.489408    1.429594
  H     25.738381  -31.337826    1.830694
  H     26.375717  -28.929320    1.898115
  H     26.736430  -29.107973    0.159982
  H     25.091039  -27.421664   -0.080128
  H     23.179406  -31.150377    2.694738
  H     22.452547  -34.724232   -0.621194
  H     24.518300  -33.361703   -0.688530
  H     25.737313  -31.908623   -4.009145
  H     24.288813  -32.894800   -3.687821
  H     24.168521  -31.426275   -4.699143
  H     19.994330  -28.324462    0.630291
  H     20.139919  -29.786011    1.642551
  H     20.879422  -28.250814    2.170921
  H     18.121244  -34.498254    5.364016
  H     17.028009  -34.849244    4.003288
  H     18.798901  -34.869204    3.760631
  H     25.694695  -31.284297   -0.967312
  H     19.964324  -35.161929   -0.661867
  H     18.155344  -35.749701   -2.471387
  H     19.889304  -33.988255    1.716991
  H     22.000738  -32.040541    4.549053
  H     21.124019  -30.676613    3.796145
  H     20.231150  -31.916338    4.713087

----------------------------
CARTESIAN COORDINATES (A.U.)
----------------------------
  NO LB      ZA    FRAG     MASS         X           Y           Z
   0 C     6.0000    0    12.011   43.887937  -58.399444   -4.159141
   1 C     6.0000    0    12.011   43.740764  -56.930737   -1.960011
   2 C     6.0000    0    12.011   41.389657  -56.535921   -0.811622
   3 C     6.0000    0    12.011   39.244990  -57.594015   -1.891025
   4 C     6.0000    0    12.011   39.386126  -58.979494   -4.111207
   5 C     6.0000    0    12.011   41.713929  -59.386411   -5.240813
   6 C     6.0000    0    12.011   36.995849  -60.057404   -5.204786
   7 C     6.0000    0    12.011   36.120466  -62.389582   -3.694163
   8 C     6.0000    0    12.011   33.238985  -62.845041   -3.938850
   9 C     6.0000    0    12.011   32.094871  -63.721807   -1.417309
  10 C     6.0000    0    12.011   32.584358  -61.989598    0.783597
  11 C     6.0000    0    12.011   33.090458  -63.034680    3.149982
  12 C     6.0000    0    12.011   33.471438  -61.515179    5.243667
  13 C     6.0000    0    12.011   33.390451  -58.876408    4.984099
  14 C     6.0000    0    12.011   32.888973  -57.837889    2.639135
  15 C     6.0000    0    12.011   32.473762  -59.381023    0.566881
  16 C     6.0000    0    12.011   37.795120  -64.635161   -4.443241
  17 C     6.0000    0    12.011   32.454576  -64.701272   -6.042117
  18 O     8.0000    0    15.999   41.366867  -55.109052    1.336734
  19 O     8.0000    0    15.999   46.283834  -58.759384   -5.058136
  20 O     8.0000    0    15.999   45.953481  -55.815523   -1.165572
  21 O     8.0000    0    15.999   33.789425  -57.345998    7.013991
  22 O     8.0000    0    15.999   33.932453  -62.353652    7.667258
  23 C     6.0000    0    12.011   46.797275  -56.241851    1.353990
  24 C     6.0000    0    12.011   47.583526  -59.044026    1.682387
  25 C     6.0000    0    12.011   45.258606  -60.716970    1.805646
  26 C     6.0000    0    12.011   49.069208  -54.474756    1.684271
  27 O     8.0000    0    15.999   48.372063  -51.935861    1.397968
  28 C     6.0000    0    12.011   43.466134  -60.303273    3.688266
  29 C     6.0000    0    12.011   41.269908  -61.711726    3.745775
  30 C     6.0000    0    12.011   40.861403  -63.587001    1.917293
  31 C     6.0000    0    12.011   42.706118  -64.087157    0.140098
  32 C     6.0000    0    12.011   44.890564  -62.648730    0.082761
  33 C     6.0000    0    12.011   46.606762  -60.238042   -7.244438
  34 C     6.0000    0    12.011   39.021450  -54.569334    2.475554
  35 C     6.0000    0    12.011   33.966682  -64.972902    8.109066
  36 O     8.0000    0    15.999   49.259621  -59.734628   -0.244255
  37 O     8.0000    0    15.999   37.359650  -66.832545   -3.006154
  38 O     8.0000    0    15.999   32.652604  -67.262164   -5.408186
  39 O     8.0000    0    15.999   39.365429  -61.476194    5.501688
  40 O     8.0000    0    15.999   38.653809  -64.936363    1.935570
  41 C     6.0000    0    12.011   39.827028  -59.978845    7.651743
  42 H     1.0000    0     1.008   37.420550  -57.322670   -1.026386
  43 H     1.0000    0     1.008   41.810490  -60.474368   -6.960016
  44 H     1.0000    0     1.008   37.272826  -60.569224   -7.182727
  45 H     1.0000    0     1.008   35.531344  -58.607959   -5.122089
  46 H     1.0000    0     1.008   36.496808  -61.992094   -1.697087
  47 H     1.0000    0     1.008   32.372268  -61.038115   -4.447917
  48 H     1.0000    0     1.008   32.808778  -65.604729   -0.976494
  49 H     1.0000    0     1.008   30.050215  -63.899108   -1.677253
  50 H     1.0000    0     1.008   33.131684  -65.066652    3.329200
  51 H     1.0000    0     1.008   32.800065  -55.807934    2.478054
  52 H     1.0000    0     1.008   32.042664  -58.517412   -1.227487
  53 H     1.0000    0     1.008   37.482365  -65.167802   -6.414330
  54 H     1.0000    0     1.008   39.771964  -64.034206   -4.253175
  55 H     1.0000    0     1.008   30.453594  -64.401911   -6.475563
  56 H     1.0000    0     1.008   33.536396  -64.272293   -7.769160
  57 H     1.0000    0     1.008   33.951453  -58.412102    8.487396
  58 H     1.0000    0     1.008   45.316598  -55.726904    2.701542
  59 H     1.0000    0     1.008   48.638491  -59.219909    3.459511
  60 H     1.0000    0     1.008   49.842881  -54.668492    3.586917
  61 H     1.0000    0     1.008   50.524531  -55.006098    0.302322
  62 H     1.0000    0     1.008   47.415192  -51.819436   -0.151421
  63 H     1.0000    0     1.008   43.802728  -58.865681    5.092317
  64 H     1.0000    0     1.008   42.429165  -65.619288   -1.173886
  65 H     1.0000    0     1.008   46.332872  -63.044482   -1.301133
  66 H     1.0000    0     1.008   48.636472  -60.298558   -7.576185
  67 H     1.0000    0     1.008   45.899204  -62.162163   -6.968971
  68 H     1.0000    0     1.008   45.671885  -59.387052   -8.880094
  69 H     1.0000    0     1.008   37.783807  -53.525476    1.191076
  70 H     1.0000    0     1.008   38.058932  -56.287403    3.103971
  71 H     1.0000    0     1.008   39.456389  -53.386301    4.102446
  72 H     1.0000    0     1.008   34.244188  -65.192252   10.136521
  73 H     1.0000    0     1.008   32.178273  -65.855526    7.565118
  74 H     1.0000    0     1.008   35.524774  -65.893246    7.106564
  75 H     1.0000    0     1.008   48.555937  -59.118754   -1.827954
  76 H     1.0000    0     1.008   37.727105  -66.446415   -1.250747
  77 H     1.0000    0     1.008   34.308629  -67.557144   -4.670245
  78 H     1.0000    0     1.008   37.585338  -64.228494    3.244643
  79 H     1.0000    0     1.008   41.575370  -60.547849    8.596464
  80 H     1.0000    0     1.008   39.918611  -57.970397    7.173675
  81 H     1.0000    0     1.008   38.231334  -60.313138    8.906445

--------------------------------
INTERNAL COORDINATES (ANGSTROEM)
--------------------------------
 C      0   0   0     0.000000000000     0.00000000     0.00000000
 C      1   0   0     1.401563993166     0.00000000     0.00000000
 C      2   1   0     1.400309453785   119.50111087     0.00000000
 C      3   2   1     1.388449441459   119.17892019   359.47595242
 C      4   3   2     1.386876463365   121.17612273   358.46825260
 C      5   4   3     1.386025722673   119.69218613     1.97582112
 C      5   4   3     1.503387942677   118.77373688   180.61219327
 C      7   5   4     1.541652869609   110.91260492   284.43176873
 C      8   7   5     1.549165118002   112.14556435   155.09821721
 C      9   8   7     1.536974117247   111.23082109   218.71293828
 C     10   9   8     1.504588329792   114.85360951    55.32966987
 C     11  10   9     1.394872447881   119.10629461   218.66929648
 C     12  11  10     1.383729810559   121.09046468   182.09510164
 C     13  12  11     1.403771388763   119.68589756   358.93995904
 C     14  13  12     1.382850373793   119.27367963     1.03834528
 C     15  14  13     1.384776947278   120.44428211   359.92281989
 C      8   7   5     1.534450670244   108.20747061   283.30236676
 C      9   8   7     1.541407528272   115.12264412    93.87048771
 O      3   2   1     1.364816322733   116.86481190   179.43386954
 O      1   2   3     1.367497580041   114.68342613   182.83696721
 O      2   1   3     1.376974983086   116.35342818   184.31287799
 O     14  13  12     1.361723631760   120.64236381   180.76987136
 O     13  12  11     1.378845457847   125.69902860   178.64716250
 C     21   2   1     1.424060254621   118.98501116   234.33566898
 C     24  21   2     1.549886052255   109.92078476    67.65682842
 C     25  24  21     1.517104660414   110.20723852   285.73486239
 C     24  21   2     1.533097806897   104.83252665   187.15339603
 O     27  24  21     1.401467492485   111.46765997    61.49615972
 C     26  25  24     1.392888676198   119.42477276   301.13870678
 C     29  26  25     1.380985664118   120.26705614   176.33211009
 C     30  29  26     1.402756507849   119.75492293     0.79686993
 C     31  30  29     1.381097041921   119.75868855     2.83520721
 C     26  25  24     1.383520867777   121.13010617   121.24371427
 C     20   1   2     1.407116927566   118.42967255   179.25725060
 C     19   3   2     1.408961894742   118.43801477   176.96131803
 C     23  13  12     1.405743889813   118.31097491   358.34304677
 O     25  24  21     1.399889003287   109.76672669    50.97629914
 O     17   8   7     1.408381782834   113.91630548   173.87934480
 O     18   9   8     1.399996494625   115.06689112    81.37581849
 O     30  29  26     1.376445704036   125.60437579   180.07480227
 O     31  30  29     1.369187421857   119.70585001   181.73305351
 C     40  30  29     1.407836485341   118.00107483   349.25554203
 H      4   3   2     1.077991078434   120.24716356   179.53378335
 H      6   5   4     1.077838106112   119.28426279   179.63628804
 H      7   5   4     1.091045509307   110.51400111   162.38942968
 H      7   5   4     1.091248529564   108.38465407    44.27058821
 H      8   7   5     1.095785694985   106.96611690    38.30406516
 H      9   8   7     1.094172733842   107.28963812   336.87442916
 H     10   9   8     1.090846880594   108.96317225   292.28681706
 H     10   9   8     1.094722220354   107.82536299   176.59261064
 H     12  11  10     1.079668336571   118.52872853     0.51405142
 H     15  14  13     1.078609195198   118.36429529   178.91539283
 H     16  15  14     1.078201576877   118.75193637   178.53728192
 H     17   8   7     1.093069791747   111.02404944   293.59923059
 H     17   8   7     1.097986324485   107.59441850    51.38634780
 H     18   9   8     1.094952016645   108.63157961   198.99953542
 H     18   9   8     1.102040582756   109.12605649   315.78837001
 H     22  14  13     0.966202087615   107.64160675   355.13631748
 H     24  21   2     1.093934782440   110.25913251   305.03392086
 H     25  24  21     1.097587753964   108.28472406   166.54907103
 H     27  24  21     1.091717690545   109.99553931   179.72050558
 H     27  24  21     1.098609683662   108.52565941   298.98932626
 H     28  27  24     0.965623491744   106.91724336   310.27687962
 H     29  26  25     1.078188361256   119.42408286   356.73955723
 H     32  31  30     1.078104720843   119.15759939   175.72518295
 H     33  26  25     1.078280232437   119.43357175     3.72879130
 H     34  20   1     1.088799534326   105.58850585   181.26097470
 H     34  20   1     1.094611641646   111.48321143   299.92751847
 H     34  20   1     1.093945170933   111.51311116    62.64395707
 H     35  19   3     1.093654986148   111.35052960   299.74689468
 H     35  19   3     1.093888923426   111.82150436    62.29828763
 H     35  19   3     1.089066439263   105.57337750   181.45211362
 H     36  23  13     1.089089436251   105.70371526   183.34613099
 H     36  23  13     1.093914620323   111.47366579   301.99059175
 H     36  23  13     1.094731600755   111.57733865    64.78822533
 H     37  25  24     0.973250700942   107.29525548   313.64766815
 H     38  17   8     0.970801993157   108.06644950   298.91676571
 H     39  18   9     0.972014732741   108.61434031   311.22939308
 H     41  31  30     0.969475582284   107.52657072     4.61680718
 H     42  40  30     1.093870329646   111.17226672   307.85383583
 H     42  40  30     1.093593135037   111.57531032    70.56148799
 H     42  40  30     1.088648344747   105.47737102   189.34408467

---------------------------
INTERNAL COORDINATES (A.U.)
---------------------------
 C      0   0   0     0.000000000000     0.00000000     0.00000000
 C      1   0   0     2.648572106249     0.00000000     0.00000000
 C      2   1   0     2.646201370394   119.50111087     0.00000000
 C      3   2   1     2.623789195154   119.17892019   359.47595242
 C      4   3   2     2.620816697341   121.17612273   358.46825260
 C      5   4   3     2.619209030423   119.69218613     1.97582112
 C      5   4   3     2.840991484699   118.77373688   180.61219327
 C      7   5   4     2.913301717135   110.91260492   284.43176873
 C      8   7   5     2.927497809247   112.14556435   155.09821721
 C      9   8   7     2.904460156521   111.23082109   218.71293828
 C     10   9   8     2.843259887602   114.85360951    55.32966987
 C     11  10   9     2.635926918248   119.10629461   218.66929648
 C     12  11  10     2.614870385300   121.09046468   182.09510164
 C     13  12  11     2.652743479396   119.68589756   358.93995904
 C     14  13  12     2.613208490660   119.27367963     1.03834528
 C     15  14  13     2.616849186922   120.44428211   359.92281989
 C      8   7   5     2.899691532773   108.20747061   283.30236676
 C      9   8   7     2.912838089199   115.12264412    93.87048771
 O      3   2   1     2.579129073071   116.86481190   179.43386954
 O      1   2   3     2.584195915077   114.68342613   182.83696721
 O      2   1   3     2.602105611294   116.35342818   184.31287799
 O     14  13  12     2.573284734116   120.64236381   180.76987136
 O     13  12  11     2.605640296333   125.69902860   178.64716250
 C     21   2   1     2.691083879436   118.98501116   234.33566898
 C     24  21   2     2.928860177547   109.92078476    67.65682842
 C     25  24  21     2.866912324678   110.20723852   285.73486239
 C     24  21   2     2.897134991550   104.83252665   187.15339603
 O     27  24  21     2.648389746389   111.46765997    61.49615972
 C     26  25  24     2.632178133054   119.42477276   301.13870678
 C     29  26  25     2.609684700055   120.26705614   176.33211009
 C     30  29  26     2.650825632411   119.75492293     0.79686993
 C     31  30  29     2.609895173599   119.75868855     2.83520721
 C     26  25  24     2.614475540664   121.13010617   121.24371427
 C     20   1   2     2.659065631504   118.42967255   179.25725060
 C     19   3   2     2.662552114193   118.43801477   176.96131803
 C     23  13  12     2.656470966180   118.31097491   358.34304677
 O     25  24  21     2.645406834101   109.76672669    50.97629914
 O     17   8   7     2.661455861561   113.91630548   173.87934480
 O     18   9   8     2.645609963290   115.06689112    81.37581849
 O     30  29  26     2.601105418840   125.60437579   180.07480227
 O     31  30  29     2.587389253319   119.70585001   181.73305351
 C     40  30  29     2.660425398637   118.00107483   349.25554203
 H      4   3   2     2.037107913052   120.24716356   179.53378335
 H      6   5   4     2.036818837256   119.28426279   179.63628804
 H      7   5   4     2.061777212234   110.51400111   162.38942968
 H      7   5   4     2.062160864920   108.38465407    44.27058821
 H      8   7   5     2.070734864990   106.96611690    38.30406516
 H      9   8   7     2.067686810165   107.28963812   336.87442916
 H     10   9   8     2.061401858366   108.96317225   292.28681706
 H     10   9   8     2.068725189186   107.82536299   176.59261064
 H     12  11  10     2.040277471586   118.52872853     0.51405142
 H     15  14  13     2.038275984454   118.36429529   178.91539283
 H     16  15  14     2.037505697459   118.75193637   178.53728192
 H     17   8   7     2.065602551665   111.02404944   293.59923059
 H     17   8   7     2.074893452067   107.59441850    51.38634780
 H     18   9   8     2.069159441244   108.63157961   198.99953542
 H     18   9   8     2.082554889876   109.12605649   315.78837001
 H     22  14  13     1.825857335615   107.64160675   355.13631748
 H     24  21   2     2.067237147183   110.25913251   305.03392086
 H     25  24  21     2.074140262937   108.28472406   166.54907103
 H     27  24  21     2.063047450686   109.99553931   179.72050558
 H     27  24  21     2.076071430195   108.52565941   298.98932626
 H     28  27  24     1.824763947878   106.91724336   310.27687962
 H     29  26  25     2.037480723555   119.42408286   356.73955723
 H     32  31  30     2.037322666081   119.15759939   175.72518295
 H     33  26  25     2.037654334927   119.43357175     3.72879130
 H     34  20   1     2.057532934618   105.58850585   181.26097470
 H     34  20   1     2.068516225712   111.48321143   299.92751847
 H     34  20   1     2.067256778589   111.51311116    62.64395707
 H     35  19   3     2.066708408817   111.35052960   299.74689468
 H     35  19   3     2.067150486205   111.82150436    62.29828763
 H     35  19   3     2.058037311851   105.57337750   181.45211362
 H     36  23  13     2.058080769860   105.70371526   183.34613099
 H     36  23  13     2.067199046302   111.47366579   301.99059175
 H     36  23  13     2.068742915577   111.57733865    64.78822533
 H     37  25  24     1.839177284428   107.29525548   313.64766815
 H     38  17   8     1.834549897332   108.06644950   298.91676571
 H     39  18   9     1.836841643017   108.61434031   311.22939308
 H     41  31  30     1.832043344040   107.52657072     4.61680718
 H     42  40  30     2.067115349053   111.17226672   307.85383583
 H     42  40  30     2.066591527156   111.57531032    70.56148799
 H     42  40  30     2.057247227718   105.47737102   189.34408467

---------------------
BASIS SET INFORMATION
---------------------
There are 3 groups of distinct atoms

 Group   1 Type C   : 11s6p2d1f contracted to 5s3p2d1f pattern {62111/411/11/1}
 Group   2 Type O   : 11s6p2d1f contracted to 5s3p2d1f pattern {62111/411/11/1}
 Group   3 Type H   : 5s1p contracted to 3s1p pattern {311/1}

Atom   0C    basis set group =>   1
Atom   1C    basis set group =>   1
Atom   2C    basis set group =>   1
Atom   3C    basis set group =>   1
Atom   4C    basis set group =>   1
Atom   5C    basis set group =>   1
Atom   6C    basis set group =>   1
Atom   7C    basis set group =>   1
Atom   8C    basis set group =>   1
Atom   9C    basis set group =>   1
Atom  10C    basis set group =>   1
Atom  11C    basis set group =>   1
Atom  12C    basis set group =>   1
Atom  13C    basis set group =>   1
Atom  14C    basis set group =>   1
Atom  15C    basis set group =>   1
Atom  16C    basis set group =>   1
Atom  17C    basis set group =>   1
Atom  18O    basis set group =>   2
Atom  19O    basis set group =>   2
Atom  20O    basis set group =>   2
Atom  21O    basis set group =>   2
Atom  22O    basis set group =>   2
Atom  23C    basis set group =>   1
Atom  24C    basis set group =>   1
Atom  25C    basis set group =>   1
Atom  26C    basis set group =>   1
Atom  27O    basis set group =>   2
Atom  28C    basis set group =>   1
Atom  29C    basis set group =>   1
Atom  30C    basis set group =>   1
Atom  31C    basis set group =>   1
Atom  32C    basis set group =>   1
Atom  33C    basis set group =>   1
Atom  34C    basis set group =>   1
Atom  35C    basis set group =>   1
Atom  36O    basis set group =>   2
Atom  37O    basis set group =>   2
Atom  38O    basis set group =>   2
Atom  39O    basis set group =>   2
Atom  40O    basis set group =>   2
Atom  41C    basis set group =>   1
Atom  42H    basis set group =>   3
Atom  43H    basis set group =>   3
Atom  44H    basis set group =>   3
Atom  45H    basis set group =>   3
Atom  46H    basis set group =>   3
Atom  47H    basis set group =>   3
Atom  48H    basis set group =>   3
Atom  49H    basis set group =>   3
Atom  50H    basis set group =>   3
Atom  51H    basis set group =>   3
Atom  52H    basis set group =>   3
Atom  53H    basis set group =>   3
Atom  54H    basis set group =>   3
Atom  55H    basis set group =>   3
Atom  56H    basis set group =>   3
Atom  57H    basis set group =>   3
Atom  58H    basis set group =>   3
Atom  59H    basis set group =>   3
Atom  60H    basis set group =>   3
Atom  61H    basis set group =>   3
Atom  62H    basis set group =>   3
Atom  63H    basis set group =>   3
Atom  64H    basis set group =>   3
Atom  65H    basis set group =>   3
Atom  66H    basis set group =>   3
Atom  67H    basis set group =>   3
Atom  68H    basis set group =>   3
Atom  69H    basis set group =>   3
Atom  70H    basis set group =>   3
Atom  71H    basis set group =>   3
Atom  72H    basis set group =>   3
Atom  73H    basis set group =>   3
Atom  74H    basis set group =>   3
Atom  75H    basis set group =>   3
Atom  76H    basis set group =>   3
Atom  77H    basis set group =>   3
Atom  78H    basis set group =>   3
Atom  79H    basis set group =>   3
Atom  80H    basis set group =>   3
Atom  81H    basis set group =>   3
---------------------------------
AUXILIARY/J BASIS SET INFORMATION
---------------------------------
There are 3 groups of distinct atoms

 Group   1 Type C   : 12s5p4d2f1g contracted to 6s4p3d1f1g pattern {711111/2111/211/2/1}
 Group   2 Type O   : 12s5p4d2f1g contracted to 6s4p3d1f1g pattern {711111/2111/211/2/1}
 Group   3 Type H   : 5s2p1d contracted to 3s1p1d pattern {311/2/1}

Atom   0C    basis set group =>   1
Atom   1C    basis set group =>   1
Atom   2C    basis set group =>   1
Atom   3C    basis set group =>   1
Atom   4C    basis set group =>   1
Atom   5C    basis set group =>   1
Atom   6C    basis set group =>   1
Atom   7C    basis set group =>   1
Atom   8C    basis set group =>   1
Atom   9C    basis set group =>   1
Atom  10C    basis set group =>   1
Atom  11C    basis set group =>   1
Atom  12C    basis set group =>   1
Atom  13C    basis set group =>   1
Atom  14C    basis set group =>   1
Atom  15C    basis set group =>   1
Atom  16C    basis set group =>   1
Atom  17C    basis set group =>   1
Atom  18O    basis set group =>   2
Atom  19O    basis set group =>   2
Atom  20O    basis set group =>   2
Atom  21O    basis set group =>   2
Atom  22O    basis set group =>   2
Atom  23C    basis set group =>   1
Atom  24C    basis set group =>   1
Atom  25C    basis set group =>   1
Atom  26C    basis set group =>   1
Atom  27O    basis set group =>   2
Atom  28C    basis set group =>   1
Atom  29C    basis set group =>   1
Atom  30C    basis set group =>   1
Atom  31C    basis set group =>   1
Atom  32C    basis set group =>   1
Atom  33C    basis set group =>   1
Atom  34C    basis set group =>   1
Atom  35C    basis set group =>   1
Atom  36O    basis set group =>   2
Atom  37O    basis set group =>   2
Atom  38O    basis set group =>   2
Atom  39O    basis set group =>   2
Atom  40O    basis set group =>   2
Atom  41C    basis set group =>   1
Atom  42H    basis set group =>   3
Atom  43H    basis set group =>   3
Atom  44H    basis set group =>   3
Atom  45H    basis set group =>   3
Atom  46H    basis set group =>   3
Atom  47H    basis set group =>   3
Atom  48H    basis set group =>   3
Atom  49H    basis set group =>   3
Atom  50H    basis set group =>   3
Atom  51H    basis set group =>   3
Atom  52H    basis set group =>   3
Atom  53H    basis set group =>   3
Atom  54H    basis set group =>   3
Atom  55H    basis set group =>   3
Atom  56H    basis set group =>   3
Atom  57H    basis set group =>   3
Atom  58H    basis set group =>   3
Atom  59H    basis set group =>   3
Atom  60H    basis set group =>   3
Atom  61H    basis set group =>   3
Atom  62H    basis set group =>   3
Atom  63H    basis set group =>   3
Atom  64H    basis set group =>   3
Atom  65H    basis set group =>   3
Atom  66H    basis set group =>   3
Atom  67H    basis set group =>   3
Atom  68H    basis set group =>   3
Atom  69H    basis set group =>   3
Atom  70H    basis set group =>   3
Atom  71H    basis set group =>   3
Atom  72H    basis set group =>   3
Atom  73H    basis set group =>   3
Atom  74H    basis set group =>   3
Atom  75H    basis set group =>   3
Atom  76H    basis set group =>   3
Atom  77H    basis set group =>   3
Atom  78H    basis set group =>   3
Atom  79H    basis set group =>   3
Atom  80H    basis set group =>   3
Atom  81H    basis set group =>   3
--------------------------------------------------------------------------
WARNING: There is at least one non-excluded one OpenFabrics device found,
but there are no active ports detected (or Open MPI was unable to use
them).  This is most certainly not what you wanted.  Check your
cables, subnet manager configuration, etc.  The openib BTL will be
ignored for this job.

  Local host: c09b01n02
--------------------------------------------------------------------------
--------------------------------------------------------------------------
WARNING: There was an error initializing an OpenFabrics device.

  Local host:   c09b01n02
  Local device: mlx5_0
--------------------------------------------------------------------------


           ************************************************************
           *        Program running with 64 parallel MPI-processes    *
           *              working on a common directory               *
           ************************************************************
------------------------------------------------------------------------------
                             ORCA STARTUP CALCULATIONS
                           -- RI-GTO INTEGRALS CHOSEN --
------------------------------------------------------------------------------
------------------------------------------------------------------------------
                   ___                                                        
                  /   \      - P O W E R E D   B Y -                         
                 /     \                                                     
                 |  |  |   _    _      __       _____    __    __             
                 |  |  |  | |  | |    /  \     |  _  \  |  |  /  |          
                  \  \/   | |  | |   /    \    | | | |  |  | /  /          
                 / \  \   | |__| |  /  /\  \   | |_| |  |  |/  /          
                |  |  |   |  __  | /  /__\  \  |    /   |      \           
                |  |  |   | |  | | |   __   |  |    \   |  |\   \          
                \     /   | |  | | |  |  |  |  | |\  \  |  | \   \       
                 \___/    |_|  |_| |__|  |__|  |_| \__\ |__|  \__/        
                                                                              
                      - O R C A' S   B I G   F R I E N D -                    
                                      &                                       
                       - I N T E G R A L  F E E D E R -                       
                                                                              
 v1 FN, 2020, v2 2021, v3 2022-2024                                           
------------------------------------------------------------------------------


----------------------
SHARK INTEGRAL PACKAGE
----------------------

Number of atoms                             ...     82
Number of basis functions                   ...   1542
Number of shells                            ...    622
Maximum angular momentum                    ...      3
Integral batch strategy                     ... SHARK/LIBINT Hybrid
RI-J (if used) integral strategy            ... SPLIT-RIJ (Revised 2003 algorithm where possible)
Printlevel                                  ...      1
Contraction scheme used                     ... SEGMENTED contraction
Prescreening option                         ... SCHWARTZ
   Thresh                                   ... 2.500e-11
   Tcut                                     ... 2.500e-12
   Tpresel                                  ... 2.500e-12 
Coulomb Range Separation                    ... NOT USED
Exchange Range Separation                   ... NOT USED
Multipole approximations                    ... NOT USED
Finite Nucleus Model                        ... NOT USED
CABS basis                                  ... NOT available
Auxiliary Coulomb fitting basis             ... AVAILABLE
   # of basis functions in Aux-J            ...   2498
   # of shells in Aux-J                     ...    830
   Maximum angular momentum in Aux-J        ...      4
Auxiliary J/K fitting basis                 ... NOT available
Auxiliary Correlation fitting basis         ... NOT available
Auxiliary 'external' fitting basis          ... NOT available

Checking pre-screening integrals            ... done (  0.4 sec) Dimension = 622
   => SHARK Basis and OBASIS are compatible. Storing Pre-screening
Shell pair information
Shell pair cut-off parameter TPreSel        ...   2.5e-12
Total number of shell pairs                 ...    193753
Shell pairs after pre-screening             ...    117819
Total number of primitive shell pairs       ...    584784
Primitive shell pairs kept                  ...    222455
          la=0 lb=0:  32778 shell pairs
          la=1 lb=0:  35123 shell pairs
          la=1 lb=1:   9507 shell pairs
          la=2 lb=0:  15993 shell pairs
          la=2 lb=1:   8778 shell pairs
          la=2 lb=2:   2016 shell pairs
          la=3 lb=0:   7311 shell pairs
          la=3 lb=1:   4082 shell pairs
          la=3 lb=2:   1794 shell pairs
          la=3 lb=3:    437 shell pairs

Checking whether 4 symmetric matrices of dimension 1542 fit in memory
:Max Core in MB      =   6000.00
 MB in use           =    141.21
 MB left             =   5858.79
 MB needed           =     36.31
 Data fit in memory  = YES
[c09b01n02:2463482] 3 more processes have sent help message help-mpi-btl-openib.txt / no active ports found
[c09b01n02:2463482] Set MCA parameter "orte_base_help_aggregate" to 0 to see all help / error messages
[c09b01n02:2463482] 59 more processes have sent help message help-mpi-btl-openib.txt / error in device init
Calculating RI/J V-Matrix + Cholesky decomp.... done (  2.1 sec)
Calculating Nuclear repulsion               ... done (  0.1 sec) ENN=   5811.111073165018 Eh

Diagonalization of the overlap matrix:
Smallest eigenvalue                        ... 3.107e-06
Time for diagonalization                   ...   33.252 sec
Threshold for overlap eigenvalues          ... 1.000e-07
Number of eigenvalues below threshold      ... 0
Time for construction of square roots      ...    1.768 sec
Total time needed                          ...   35.400 sec

-------------------
DFT GRID GENERATION
-------------------

General Integration Accuracy     IntAcc      ... 4.388
Radial Grid Type                 RadialGrid  ... OptM3 with GC (2021)
Angular Grid (max. ang.)         AngularGrid ... 4 (Lebedev-302)
Angular grid pruning method      GridPruning ... 4 (adaptive)
Weight generation scheme         WeightScheme... mBecke (2022)
Basis function cutoff            BFCut       ... 1.0000e-11
Integration weight cutoff        WCut        ... 1.0000e-14
Partially contracted basis set               ... off
Rotationally invariant grid construction     ... off
Angular grids for H and He will be reduced by one unit

Total number of grid points                  ...   373218
Total number of batches                      ...     5869
Average number of points per batch           ...       63
Average number of grid points per atom       ...     4551

--------------------
COSX GRID GENERATION
--------------------

GRIDX 1
-------
General Integration Accuracy     IntAcc      ... 3.816
Radial Grid Type                 RadialGrid  ... OptM3 with GC (2021)
Angular Grid (max. ang.)         AngularGrid ... 1 (Lebedev-50)
Angular grid pruning method      GridPruning ... 4 (adaptive)
Weight generation scheme         WeightScheme... mBecke (2022)
Basis function cutoff            BFCut       ... 1.0000e-11
Integration weight cutoff        WCut        ... 1.0000e-14
Partially contracted basis set               ... on
Rotationally invariant grid construction     ... off
Angular grids for H and He will be reduced by one unit

Total number of grid points                  ...    47225
Total number of batches                      ...      410
Average number of points per batch           ...      115
Average number of grid points per atom       ...      576
UseSFitting                                  ... on

GRIDX 2
-------
General Integration Accuracy     IntAcc      ... 4.020
Radial Grid Type                 RadialGrid  ... OptM3 with GC (2021)
Angular Grid (max. ang.)         AngularGrid ... 2 (Lebedev-110)
Angular grid pruning method      GridPruning ... 4 (adaptive)
Weight generation scheme         WeightScheme... mBecke (2022)
Basis function cutoff            BFCut       ... 1.0000e-11
[...]
freq.     653.92  E(vib)   ...       0.08 
freq.     660.08  E(vib)   ...       0.08 
freq.     673.14  E(vib)   ...       0.08 
freq.     690.42  E(vib)   ...       0.07 
freq.     730.13  E(vib)   ...       0.06 
freq.     743.05  E(vib)   ...       0.06 
freq.     747.17  E(vib)   ...       0.06 
freq.     759.87  E(vib)   ...       0.06 
freq.     765.27  E(vib)   ...       0.06 
freq.     777.16  E(vib)   ...       0.05 
freq.     784.74  E(vib)   ...       0.05 
freq.     800.18  E(vib)   ...       0.05 
freq.     808.47  E(vib)   ...       0.05 
freq.     810.32  E(vib)   ...       0.05 
freq.     832.38  E(vib)   ...       0.04 
freq.     851.03  E(vib)   ...       0.04 
freq.     853.51  E(vib)   ...       0.04 
freq.     859.52  E(vib)   ...       0.04 
freq.     873.01  E(vib)   ...       0.04 
freq.     880.13  E(vib)   ...       0.04 
freq.     881.38  E(vib)   ...       0.04 
freq.     896.30  E(vib)   ...       0.03 
freq.     904.18  E(vib)   ...       0.03 
freq.     917.20  E(vib)   ...       0.03 
freq.     924.66  E(vib)   ...       0.03 
freq.     929.42  E(vib)   ...       0.03 
freq.     948.12  E(vib)   ...       0.03 
freq.     955.58  E(vib)   ...       0.03 
freq.     959.87  E(vib)   ...       0.03 
freq.     970.48  E(vib)   ...       0.03 
freq.     985.80  E(vib)   ...       0.02 
freq.     995.71  E(vib)   ...       0.02 
freq.    1015.13  E(vib)   ...       0.02 
freq.    1027.08  E(vib)   ...       0.02 
freq.    1039.74  E(vib)   ...       0.02 
freq.    1046.03  E(vib)   ...       0.02 
freq.    1049.09  E(vib)   ...       0.02 
freq.    1055.64  E(vib)   ...       0.02 
freq.    1063.76  E(vib)   ...       0.02 
freq.    1066.67  E(vib)   ...       0.02 
freq.    1089.52  E(vib)   ...       0.02 
freq.    1101.43  E(vib)   ...       0.02 
freq.    1114.06  E(vib)   ...       0.01 
freq.    1115.00  E(vib)   ...       0.01 
freq.    1135.57  E(vib)   ...       0.01 
freq.    1140.67  E(vib)   ...       0.01 
freq.    1144.37  E(vib)   ...       0.01 
freq.    1145.87  E(vib)   ...       0.01 
freq.    1169.79  E(vib)   ...       0.01 
freq.    1171.16  E(vib)   ...       0.01 
freq.    1171.61  E(vib)   ...       0.01 
freq.    1172.14  E(vib)   ...       0.01 
freq.    1172.30  E(vib)   ...       0.01 
freq.    1173.42  E(vib)   ...       0.01 
freq.    1179.58  E(vib)   ...       0.01 
freq.    1182.69  E(vib)   ...       0.01 
freq.    1200.86  E(vib)   ...       0.01 
freq.    1202.89  E(vib)   ...       0.01 
freq.    1207.26  E(vib)   ...       0.01 
freq.    1212.83  E(vib)   ...       0.01 
freq.    1220.10  E(vib)   ...       0.01 
freq.    1222.75  E(vib)   ...       0.01 
freq.    1224.00  E(vib)   ...       0.01 
freq.    1226.21  E(vib)   ...       0.01 
freq.    1238.43  E(vib)   ...       0.01 
freq.    1242.52  E(vib)   ...       0.01 
freq.    1245.94  E(vib)   ...       0.01 
freq.    1248.65  E(vib)   ...       0.01 
freq.    1272.78  E(vib)   ...       0.01 
freq.    1274.30  E(vib)   ...       0.01 
freq.    1276.39  E(vib)   ...       0.01 
freq.    1285.30  E(vib)   ...       0.01 
freq.    1286.95  E(vib)   ...       0.01 
freq.    1293.42  E(vib)   ...       0.01 
freq.    1296.78  E(vib)   ...       0.01 
freq.    1312.10  E(vib)   ...       0.01 
freq.    1326.69  E(vib)   ...       0.01 
freq.    1326.86  E(vib)   ...       0.01 
freq.    1343.60  E(vib)   ...       0.01 
freq.    1345.48  E(vib)   ...       0.01 
freq.    1346.34  E(vib)   ...       0.01 
freq.    1358.84  E(vib)   ...       0.01 
freq.    1361.20  E(vib)   ...       0.01 
freq.    1367.11  E(vib)   ...       0.01 
freq.    1374.31  E(vib)   ...       0.01 
freq.    1383.31  E(vib)   ...       0.00 
freq.    1391.86  E(vib)   ...       0.00 
freq.    1395.76  E(vib)   ...       0.00 
freq.    1399.05  E(vib)   ...       0.00 
freq.    1406.74  E(vib)   ...       0.00 
freq.    1416.36  E(vib)   ...       0.00 
freq.    1425.07  E(vib)   ...       0.00 
freq.    1432.37  E(vib)   ...       0.00 
freq.    1439.18  E(vib)   ...       0.00 
freq.    1452.95  E(vib)   ...       0.00 
freq.    1455.08  E(vib)   ...       0.00 
freq.    1458.88  E(vib)   ...       0.00 
freq.    1463.22  E(vib)   ...       0.00 
freq.    1474.87  E(vib)   ...       0.00 
freq.    1478.59  E(vib)   ...       0.00 
freq.    1479.16  E(vib)   ...       0.00 
freq.    1480.09  E(vib)   ...       0.00 
freq.    1480.67  E(vib)   ...       0.00 
freq.    1482.48  E(vib)   ...       0.00 
freq.    1485.35  E(vib)   ...       0.00 
freq.    1487.00  E(vib)   ...       0.00 
freq.    1487.41  E(vib)   ...       0.00 
freq.    1489.26  E(vib)   ...       0.00 
freq.    1489.63  E(vib)   ...       0.00 
freq.    1491.55  E(vib)   ...       0.00 
freq.    1492.42  E(vib)   ...       0.00 
freq.    1496.47  E(vib)   ...       0.00 
freq.    1497.79  E(vib)   ...       0.00 
freq.    1502.27  E(vib)   ...       0.00 
freq.    1516.18  E(vib)   ...       0.00 
freq.    1536.28  E(vib)   ...       0.00 
freq.    1543.32  E(vib)   ...       0.00 
freq.    1545.59  E(vib)   ...       0.00 
freq.    1628.21  E(vib)   ...       0.00 
freq.    1636.90  E(vib)   ...       0.00 
freq.    1641.81  E(vib)   ...       0.00 
freq.    1647.10  E(vib)   ...       0.00 
freq.    1647.73  E(vib)   ...       0.00 
freq.    1652.21  E(vib)   ...       0.00 
freq.    2979.41  E(vib)   ...       0.00 
freq.    3001.34  E(vib)   ...       0.00 
freq.    3022.97  E(vib)   ...       0.00 
freq.    3025.77  E(vib)   ...       0.00 
freq.    3026.16  E(vib)   ...       0.00 
freq.    3026.72  E(vib)   ...       0.00 
freq.    3027.41  E(vib)   ...       0.00 
freq.    3027.70  E(vib)   ...       0.00 
freq.    3030.22  E(vib)   ...       0.00 
freq.    3030.86  E(vib)   ...       0.00 
freq.    3039.09  E(vib)   ...       0.00 
freq.    3046.79  E(vib)   ...       0.00 
freq.    3049.33  E(vib)   ...       0.00 
freq.    3073.96  E(vib)   ...       0.00 
freq.    3080.26  E(vib)   ...       0.00 
freq.    3084.89  E(vib)   ...       0.00 
freq.    3089.92  E(vib)   ...       0.00 
freq.    3090.33  E(vib)   ...       0.00 
freq.    3091.94  E(vib)   ...       0.00 
freq.    3093.53  E(vib)   ...       0.00 
freq.    3095.72  E(vib)   ...       0.00 
freq.    3102.27  E(vib)   ...       0.00 
freq.    3141.15  E(vib)   ...       0.00 
freq.    3142.60  E(vib)   ...       0.00 
freq.    3143.58  E(vib)   ...       0.00 
freq.    3164.15  E(vib)   ...       0.00 
freq.    3178.26  E(vib)   ...       0.00 
freq.    3187.84  E(vib)   ...       0.00 
freq.    3190.21  E(vib)   ...       0.00 
freq.    3193.86  E(vib)   ...       0.00 
freq.    3206.85  E(vib)   ...       0.00 
freq.    3211.30  E(vib)   ...       0.00 
freq.    3211.84  E(vib)   ...       0.00 
freq.    3213.26  E(vib)   ...       0.00 
freq.    3527.89  E(vib)   ...       0.00 
freq.    3603.22  E(vib)   ...       0.00 
freq.    3605.06  E(vib)   ...       0.00 
freq.    3723.86  E(vib)   ...       0.00 
freq.    3726.34  E(vib)   ...       0.00 
freq.    3757.89  E(vib)   ...       0.00 

------------
INNER ENERGY
------------

The inner energy is: U= E(el) + E(ZPE) + E(vib) + E(rot) + E(trans)
    E(el)   - is the total energy from the electronic structure calculation
              = E(kin-el) + E(nuc-el) + E(el-el) + E(nuc-nuc)
    E(ZPE)  - the the zero temperature vibrational energy from the frequency calculation
    E(vib)  - the the finite temperature correction to E(ZPE) due to population
              of excited vibrational states
    E(rot)  - is the rotational thermal energy
    E(trans)- is the translational thermal energy

Summary of contributions to the inner energy U:
Electronic energy                ...  -2032.64001249 Eh
Zero point energy                ...      0.68077945 Eh     427.19 kcal/mol
Thermal vibrational correction   ...      0.03933191 Eh      24.68 kcal/mol
Thermal rotational correction    ...      0.00141627 Eh       0.89 kcal/mol
Thermal translational correction ...      0.00141627 Eh       0.89 kcal/mol
-----------------------------------------------------------------------
Total thermal energy                  -2031.91706859 Eh


Summary of corrections to the electronic energy:
(perhaps to be used in another calculation)
Total thermal correction                  0.04216445 Eh      26.46 kcal/mol
Non-thermal (ZPE) correction              0.68077945 Eh     427.19 kcal/mol
-----------------------------------------------------------------------
Total correction                          0.72294390 Eh     453.65 kcal/mol


--------
ENTHALPY
--------

The enthalpy is H = U + kB*T
                kB is Boltzmann's constant
Total thermal energy              ...  -2031.91706859 Eh 
Thermal Enthalpy correction       ...      0.00094421 Eh       0.59 kcal/mol
-----------------------------------------------------------------------
Total Enthalpy                    ...  -2031.91612438 Eh


Note: Only C1 symmetry has been detected, increase convergence thresholds 
      if your molecule has a higher symmetry. Symmetry factor of 1.0 is   
      used for the rotational entropy correction. 
 

Note: Rotational entropy computed according to Herzberg 
Infrared and Raman Spectra, Chapter V,1, Van Nostrand Reinhold, 1945 
Point Group:  C1, Symmetry Number:   1  
Rotational constants in cm-1:     0.003854     0.002363     0.001925 

Vibrational entropy computed according to the QRRHO of S. Grimme
Chem.Eur.J. 2012 18 9955 using a reference frequency of 100.0 cm-1


-------
ENTROPY
-------

The entropy contributions are T*S = T*(S(el)+S(vib)+S(rot)+S(trans))
     S(el)   - electronic entropy
     S(vib)  - vibrational entropy
     S(rot)  - rotational entropy
     S(trans)- translational entropy
The entropies will be listed as multiplied by the temperature to get
units of energy

Electronic entropy                ...      0.00000000 Eh      0.00 kcal/mol
Vibrational entropy               ...      0.06970482 Eh     43.74 kcal/mol
Rotational entropy                ...      0.01794212 Eh     11.26 kcal/mol
Translational entropy             ...      0.02138181 Eh     13.42 kcal/mol
-----------------------------------------------------------------------
Final entropy term                ...      0.10902876 Eh     68.42 kcal/mol

In case the symmetry of your molecule has not been determined correctly
or in case you have a reason to use a different symmetry number we print 
out the resulting rotational entropy values for sn=1,12:

 non-linear molecules -----------------------------------
|  sn= 1 | S(rot)=       0.01794212 Eh     11.26 kcal/mol|
|  sn= 2 | S(rot)=       0.01728767 Eh     10.85 kcal/mol|
|  sn= 3 | S(rot)=       0.01690483 Eh     10.61 kcal/mol|
|  sn= 4 | S(rot)=       0.01663321 Eh     10.44 kcal/mol|
|  sn= 5 | S(rot)=       0.01642252 Eh     10.31 kcal/mol|
|  sn= 6 | S(rot)=       0.01625038 Eh     10.20 kcal/mol|
|  sn= 7 | S(rot)=       0.01610483 Eh     10.11 kcal/mol|
|  sn= 8 | S(rot)=       0.01597875 Eh     10.03 kcal/mol|
|  sn= 9 | S(rot)=       0.01586755 Eh      9.96 kcal/mol|
|  sn=10 | S(rot)=       0.01576807 Eh      9.89 kcal/mol|
|  sn=11 | S(rot)=       0.01567808 Eh      9.84 kcal/mol|
|  sn=12 | S(rot)=       0.01559592 Eh      9.79 kcal/mol|
 linear molecules ---------------------------------------
|  Dinfh | S(rot)=       0.01122985 Eh      7.05 kcal/mol|
|  Cinfv | S(rot)=       0.01188430 Eh      7.46 kcal/mol|
 --------------------------------------------------------


-------------------
GIBBS FREE ENERGY
-------------------

The Gibbs free energy is G = H - T*S

Total enthalpy                    ...  -2031.91612438 Eh 
Total entropy correction          ...     -0.10902876 Eh    -68.42 kcal/mol
-----------------------------------------------------------------------
Final Gibbs free energy         ...  -2032.02515314 Eh

For completeness - the Gibbs free energy minus the electronic energy
G-E(el)                           ...      0.61485935 Eh    385.83 kcal/mol


Maximum memory used throughout the entire PROP-calculation: 1827.0 MB
--------------------------------------------------------------------------
WARNING: There was an error initializing an OpenFabrics device.

  Local host:   c09b01n02
  Local device: mlx5_0
--------------------------------------------------------------------------
--------------------------------------------------------------------------
WARNING: There is at least one non-excluded one OpenFabrics device found,
but there are no active ports detected (or Open MPI was unable to use
them).  This is most certainly not what you wanted.  Check your
cables, subnet manager configuration, etc.  The openib BTL will be
ignored for this job.

  Local host: c09b01n02
--------------------------------------------------------------------------
[c09b01n02:2533380] 58 more processes have sent help message help-mpi-btl-openib.txt / error in device init
[c09b01n02:2533380] Set MCA parameter "orte_base_help_aggregate" to 0 to see all help / error messages
[c09b01n02:2533380] 4 more processes have sent help message help-mpi-btl-openib.txt / no active ports found

--------------------------------
SUGGESTED CITATIONS FOR THIS RUN
--------------------------------

Below you find a list of papers that are relevant to this ORCA run
We neither can nor want to force you to cite these papers, but we appreciate if you do
You receive ORCA, which is the product of decades of hard work by many enthusiastic individuals, for free
The only thing we kindly ask in return is that you cite our papers,
We deeply appreciate it, if you show your appreciation for ORCA by not just citing the generic ORCA reference.

Please note that relegating all ORCA citations to the supporting information does *not* help us.
SI sections are not indexed - citations you put there will not count into any citation statistics
But we need these citations in order to attract the funding resources that allow us to do what we are doing

Therefore, if you are a happy ORCA user, please consider citing a few of the papers listed below in the main body of your paper

In addition to the list printed below, the program has created the file opt-conf-9.bibtex that contains the list in bibtex format
You can import this file easily into all common literature databanks and citation aid programs


List of essential papers. We consider these as the minimum necessary citations

  1. Neese, F.
     Software update: the ORCA program system, version 6.0
     WIRES Comput. Molec. Sci. 2025 15(1), e70019
     doi.org/10.1002/wcms.7019

List of papers to cite with high priority. The work reported in these papers was absolutely
necessary for this run to complete.
Our perspective: the developers of density functionals and basis sets usually get cited in chemistry papers
Good! But without the algorithms to do something with them, the functionals or basis sets would not do anything.
Hence, in our opinion, the algorithm design and method developments papers are equally worthy of getting cited

  1. Neese, F.
     An improvement of the resolution of the identity approximation for the formation of the Coulomb matrix
     J. Comp. Chem. 2003 24(14), 1740-1747
     doi.org/10.1002/jcc.10318
  2. Neese, F.; Wennmohs, F.; Hansen, A.; Becker, U.
     Efficient, approximate and parallel Hartree-Fock and hybrid DFT calculations. A 'chain-of-spheres' algorithm for the Hartree-Fock exchange
     Chem. Phys. 2009 356(1-3), 98-109
     doi.org/10.1016/j.chemphys.2008.10.036
  3. Bykov, D.; Petrenko, T.; Izsak, R.; Kossmann, S.; Becker, U.; Valeev, E.; Neese, F.
     Efficient implementation of the analytic second derivatives of Hartree-Fock and hybrid DFT energies: a detailed analysis of different approximations
     Molec. Phys. 2015 113 , 1961-1977
     doi.org/10.1080/00268976.2015.1025114
  4. Caldeweyher, E.; Bannwarth, C.; Grimme, S.
     Extension of the D3 dispersion coefficient model
     J. Chem. Phys. 2017 147 , 034112
     doi.org/10.1063/1.4993215
  5. Caldeweyher, E.; Ehlert, S.; Hansen, A.; Neugebauer, H.; Spicher, S.; Bannwarth, C.; Grimme, S.
     A generally applicable atomic-charge dependent London dispersion correction
     J. Chem. Phys. 2019 150 , 154122
     doi.org/10.1063/1.5090222
  6. Garcia-Rates, M.; Neese, F.
     Efficient implementation of the analytical second derivatives of hartree-fock and hybrid DFT energies within the framework of the conductor-like polarizable continuum model
     J. Comput. Chem. 2019 40 , 1816-1828
     doi.org/10.1002/jcc.25833
  7. Caldeweyher, E.; Mewes, J.; Ehlert, S.; Grimme, S.
     Extension and evaluation of the D4 London-dispersion model for periodic systems
     Phys. Chem. Chem. Phys. 2020 22(16), 8499-8512
     doi.org/10.1039/D0CP00502A
  8. Garcia-Rates, M.; Neese, F.
     Effect of the Solute Cavity on the Solvation Energy and its Derivatives within the Framework of the Gaussian Charge Scheme
     J. Comput. Chem. 2020 41 , 922-939
     doi.org/10.1002/jcc.26139
  9. Helmich-Paris, B.; de Souza, B.; Neese, F.; Izsák, R.
     An improved chain of spheres for exchange algorithm
     J. Chem. Phys. 2021 155(10), 104109
     doi.org/10.1063/5.0058766
 10. Neese, F.
     The SHARK Integral Generation and Digestion System
     J. Comp. Chem. 2022 44(3), 381
     doi.org/10.1002/jcc.26942
 11. Wittmann, L.; Gordiy, I.; Friede, M.; Helmich-Paris, B.; Grimme, S.; Hansen, A.; Bursch, M.
     Extension of the D3 and D4 London Dispersion Corrections to the full Actinides Series
     Phys. Chem. Chem. Phys. 2024 26(32), 21379-21394
     doi.org/10.1039/D4CP01514B

List of suggested additional citations. These are papers that are important in the 'surrounding' of 
of this run, or papers that preceded the highly important papers. If you like your results we are grateful for a citation.

  1. Izsak, R.; Neese, F.
     An overlap fitted chain of spheres exchange method
     J. Chem. Phys. 2011 135 , 144105
     doi.org/10.1063/1.3646921
  2. Izsak, R.; Hansen, A.; Neese, F.
     The resolution of identity and chain of spheres approximations for the LPNO-CCSD singles Fock term
     Molec. Phys. 2012 110 , 2413-2417
     doi.org/10.1080/00268976.2012.687466
  3. Neese, F.
     The ORCA program system
     WIRES Comput. Molec. Sci. 2012 2(1), 73-78
     doi.org/10.1002/wcms.81
  4. Izsak, R.; Neese, F.; Klopper, W.
     Robust fitting techniques in the chain of spheres approximation to the Fock exchange: The role of the complementary space
     J. Chem. Phys. 2013 139 , 
     doi.org/10.1063/1.4819264
  5. Neese, F.
     Software update: the ORCA program system, version 4.0
     WIRES Comput. Molec. Sci. 2018 8(1), 1-6
     doi.org/10.1002/wcms.1327
  6. Neese, F.; Wennmohs, F.; Becker, U.; Riplinger, C.
     The ORCA quantum chemistry program package
     J. Chem. Phys. 2020 152(22), 224108
     doi.org/10.1063/5.0004608
  7. Neese, F.
     Software update: The ORCA program system—Version 5.0
     WIRES Comput. Molec. Sci. 2022 12(1), e1606
     doi.org/10.1002/wcms.1606

List of optional additional citations

  1. Neese, F.
     Approximate second-order SCF convergence for spin unrestricted wavefunctions
     Chem. Phys. Lett. 2000 325(1-3), 93-98
     doi.org/10.1016/s0009-2614(00)00662-x

Timings for individual modules:

Sum of individual times          ...    18873.982 sec (= 314.566 min)
Startup calculation              ...     1589.719 sec (=  26.495 min)   8.4 %
SCF iterations                   ...    10560.369 sec (= 176.006 min)  56.0 %
Property integrals               ...     1506.306 sec (=  25.105 min)   8.0 %
SCF Response                     ...     3462.179 sec (=  57.703 min)  18.3 %
Property calculations            ...      720.852 sec (=  12.014 min)   3.8 %
SCF Gradient evaluation          ...     1028.171 sec (=  17.136 min)   5.4 %
Geometry relaxation              ...        6.386 sec (=   0.106 min)   0.0 %
                             ****ORCA TERMINATED NORMALLY****
TOTAL RUN TIME: 0 days 5 hours 20 minutes 50 seconds 900 msec
