
                                 *****************
                                 * O   R   C   A *
                                 *****************

                                            #,                                       
                                            ###                                      
                                            ####                                     
                                            #####                                    
                                            ######                                   
                                           ########,                                 
                                     ,,################,,,,,                         
                               ,,#################################,,                 
                          ,,##########################################,,             
                       ,#########################################, ''#####,          
                    ,#############################################,,   '####,        
                  ,##################################################,,,,####,       
                ,###########''''           ''''###############################       
              ,#####''   ,,,,##########,,,,          '''####'''          '####       
            ,##' ,,,,###########################,,,                        '##       
           ' ,,###''''                  '''############,,,                           
         ,,##''                                '''############,,,,        ,,,,,,###''
      ,#''                                            '''#######################'''  
     '                                                          ''''####''''         
             ,#######,   #######,   ,#######,      ##                                
            ,#'     '#,  ##    ##  ,#'     '#,    #''#        ,####,    ,#,          
            ##       ##  ##   ,#'  ##            #'  '#       #'       ,# #          
            ##       ##  #######   ##           ,######,      #####,      #          
            '#,     ,#'  ##    ##  '#,     ,#' ,#      #,     #,   #      #          
             '#######'   ##     ##  '#######'  #'      '#     '####' #    #          



                #########################################################
                #                        -***-                          #
                #          Department of theory and spectroscopy        #
                #                                                       #
                #                      Frank Neese                      #
                #                                                       #
                #     Directorship, Architecture, Infrastructure        #
                #                    SHARK, DRIVERS                     #
                #        Core code/Algorithms in most modules           #
                #                                                       #
                #        Max Planck Institute fuer Kohlenforschung      #
                #                Kaiser Wilhelm Platz 1                 #
                #                 D-45470 Muelheim/Ruhr                 #
                #                      Germany                          #
                #                                                       #
                #                  All rights reserved                  #
                #                        -***-                          #
                #########################################################


                         Program Version 6.1.0-f.0  -   RELEASE   -


 With contributions from (in alphabetic order):
[Max-Planck-Institut fuer Kohlenforschung]                               
  Daniel Aravena         : Magnetic Suceptibility                        
  Michael Atanasov       : Ab Initio Ligand Field Theory (pilot matlab implementation)
  Alexander A. Auer      : GIAO ZORA, VPT2 properties, NMR spectrum      
  Ute Becker             : All parallelization in ORCA, NUMFREQ, NUMCALC 
  Giovanni Bistoni       : ED, misc. LED, open-shell LED, HFLD           
  Dmytro Bykov           : pre 5.0 version of the SCF Hessian            
  Marcos Casanova-Páez   : Triplet and SCS-CIS(D). UHF-(DLPNO)-IP/EA/STEOM-CCSD. UHF-CVS-IP/STEOM-CCSD   
  Vijay G. Chilkuri      : MRCI spin determinant printing, contributions to CSF-ICE 
  Pauline Colinet        : FMM embedding                                 
  Dipayan Datta          : RHF DLPNO-CCSD density                        
  Achintya Kumar Dutta   : EOM-CC, STEOM-CC                              
  Nicolas Foglia         : Exact transition moments, OPA infrastructure, MCD improvements    
  Dmitry Ganyushin       : Spin-Orbit,Spin-Spin,Magnetic field MRCI      
  Miquel Garcia-Rates    : C-PCM and meta-GGA Hessian, CCSD/C-PCM, Gaussian charge scheme 
  Tiago L. C. Gouveia    : GS-ROHF, GS-ROCIS                             
  Yang Guo               : DLPNO-NEVPT2, F12-NEVPT2, CIM, IAO-localization        
  Andreas Hansen         : Spin unrestricted coupled pair/coupled cluster methods 
  Ingolf Harden          : AUTO-CI MPn and infrastructure                
  Benjamin Helmich-Paris : MC-RPA, TRAH-(SCF,CASSCF), AVAS, COSX integrals, SCF dyn. polar., MC-PDFT, srDFT 
  Lee Huntington         : MR-EOM, pCC                                   
  Robert Izsak           : Overlap fitted RIJCOSX, COSX-SCS-MP3, EOM     
  Riya Kayal             : Wick's Theorem for AUTO-CI, AUTO-CI UHF-CCSDT 
  Emily Kempfer          : AUTO-CI RHF CISDT and CCSDT, approximate NEVPT4
  Christian Kollmar      : KDIIS, OOCD, Brueckner-CCSD(T), CCSD density, CASPT2, CASPT2-K, improved NEVPT2 
  Axel Koslowski         : Symmetry handling                             
  Simone Kossmann        : meta-GGA functionals, TD-DFT gradient, OOMP2, (MP2 Hessian; deprecated post 5.0) 
  Lucas Lang             : DCDCAS, Hyperfine gauge corrections, ICE-SOC+SSC
  Marvin Lechner         : AUTO-CI (C++ implementation), FIC-MRCC        
  Spencer Leger          : CASSCF response                               
  Dagmar Lenk            : GEPOL surface, SMD, ORCA-2-JSON               
  Dimitrios Liakos       : Extrapolation schemes; Compound Job, Property file
  Dimitrios Manganas     : Further ROCIS development; embedding schemes. LFT, Crystal Embedding 
  Dimitrios Pantazis     : SARC Basis sets                               
  Anastasios Papadopoulos: AUTO-CI, single reference methods and gradients 
  Taras Petrenko         : pre 6.0 DFT Hessian and TD-DFT gradient,  ECA, NRVS 
  Petra Pikulova         : Analytic Raman intensities                    
  Peter Pinski           : DLPNO-MP2, DLPNO-MP2 Gradient                 
  Shashank Vittal Rao    : ES-AILFT, MagRelax                            
  Christoph Reimann      : Effective Core Potentials                     
  Marius Retegan         : Local ZFS, SOC                                
  Christoph Riplinger    : Optimizer, TS searches, QM/MM, DLPNO-CCSD(T), (RO)-DLPNO pert. Triples 
  Michael Roemelt        : Original ROCIS implementation, recursive CI coupling coefficients
  Masaaki Saitow         : Open-shell DLPNO-CCSD energy and density      
  Barbara Sandhoefer     : DKH picture change effects                    
  Yorick L. A. Schmerwitz: GMF and freeze-and-release deltaSCF, NEB S-IDPP initial path                    
  Kantharuban Sivalingam : CASSCF convergence/infrastructure, NEVPT2, NEVPT3, NEVPT4(SD), FIC-MRCI and CEPA variants
  Bernardo de Souza      : ESD, SOC TD-DFT                               
  Georgi L. Stoychev     : AutoAux, RI-MP2 NMR, DLPNO-MP2 response, X2C  
  Van Anh Tran           : RI-MP2 g-tensors                              
  Willem Van den Heuvel  : Paramagnetic NMR                              
  Zikuan Wang            : NOTCH, Electric field optimization            
  Frank Wennmohs         : Technical directorship and infrastructure     
  Hang Xu                : AUTO-CI-Response properties                   
                                                                         
[FACCTs GmbH]                                                            
  Markus Bursch, Nicolas Foglia, Miquel Garcia-Rates, Ingolf Harden, Hagen Neugebauer, Anastasios Papadopoulos, 
  Christoph Riplinger, Bernardo de Souza, Georgi L. Stoychev                                                    
                                                                 
  APM, various basis sets, CI-OPT, improved COSX, DLPNO-Multilevel,           
  DOCKER, DRACO, updates on ESD, Fragmentator, GOAT, IRC, LR-CPCM, L-BFGS, MBIS, meta-GGA TD-DFT gradient, ML-optimized integration grids, 
  MM, NACMEs, nearIR, NEB, NEB-TS, NL-DFT gradient (VV10), 2- and 3-layer-ONIOM, interface openCOSMO-RS, QMMM,   
  Crystal-QMMM, RESP, rigid body optimization, SF, symmetry and pop. for TD-DFT, various functionals, SOLVATOR                                   
                                                                         
[Other institutions]                                                     
  V. Asgeirsson          : NEB                                           
  Christoph Bannwarth    : sTDA-DFT, sTD-DFT, PBEh-3c, B97-3c, D3        
  Giovanni Bistoni       : ETS/NOCV, ADLD/ADEX, COVALED                  
  Martin Brehm           : Molecular dynamics                            
  Ronald Cardenas        : ETS/NOCV                                      
  Martina Colucci        : COVALED                                       
  Sebastian Ehlert       : rSCAN, r2SCAN, r2SCAN-3c, D4, dhf basis sets  
  Marvin Friede          : D4 for Fr, Ra, Ac-Lr                          
  Lars Goerigk           : TD-DFT with DH, B97 family of functionals     
  Stefan Grimme          : VdW corrections, initial TS optimization, DFT functionals, gCP, sTDA/sTD-DF 
  Waldemar Hujo          : DFT-NL                                        
  H. Jonsson             : NEB                                           
  Holger Kruse           : gCP                                           
  Marcel Mueller         : wB97X-3c, vDZP basis set                      
  Hagen Neugebauer       : wr2SCAN, Native XTB                           
  Gianluca Regni         : ADLD/ADEX                                     
  Tobias Risthaus        : pre 6.0 range-separated hybrid DFT and stability analysis
  Lukas Wittmann         : regularized MP2, r2SCAN double-hybrids, wr2SCAN        
                                                                         
We gratefully acknowledge several colleagues who have allowed us to      
interface, adapt or use parts of their codes:                            
  Ed Valeev, F. Pavosevic, A. Kumar             : LibInt (2-el integral package), F12 methods 
  Garnet Chan, S. Sharma, J. Yang, R. Olivares  : DMRG                   
  Ulf Ekstrom                                   : XCFun DFT Library      
  Mihaly Kallay                                 : mrcc  (arbitrary order and MRCC methods)
  Frank Weinhold                                : gennbo (NPA and NBO analysis)           
  Simon Mueller                                 : openCOSMO-RS                            
  Christopher J. Cramer and Donald G. Truhlar   : smd solvation model                     
  S Lehtola, MJT Oliveira, MAL Marques          : LibXC Library                           
  Liviu Ungur et al                             : ANISO software                          


 Your calculation uses the libint2 library for the computation of 2-el integrals
 For citations please refer to: http://libint.valeyev.net

 Your ORCA version has been built with support for libXC version: 7.0.0
 For citations please refer to: https://libxc.gitlab.io

 This ORCA versions uses:
   CBLAS   interface :  Fast vector & matrix operations
   LAPACKE interface :  Fast linear algebra routines
   SCALAPACK package :  Parallel linear algebra routines
   Shared memory     :  Shared parallel matrices
   BLAS/LAPACK       :  OpenBLAS 0.3.29  USE64BITINT DYNAMIC_ARCH NO_AFFINITY Cooperlake SINGLE_THREADED
        Core in use  :  Cooperlake
   Copyright (c) 2011-2014, The OpenBLAS Project


  ***********************************
  * Starting time: Tue Mar  3 23:14:46 2026
  * Host name:     c02b01n07
  * Process ID:    2850676
  * Working dir.:  /lustre1/jiangy/jiangy_liuxy/NMR/B9D7C2-SSRR
  ***********************************

NOTE: MaxCore=6000 MB was set to SCF,MP2,MDCI,CIPSI,MRCI,RASCI and CIS
      => If you want to overwrite this, your respective input block should be placed after the MaxCore statement


***************************************
The coordinates will be read from file: conf-1.xyz
***************************************


Your calculation utilizes the atom-pairwise dispersion correction
based on EEQ partial charges (D4)


Warning: RI is on but no J-basis has been assigned. Assigning Def2/J (nothing to worry about!)
================================================================================

----- Orbital basis set information -----
Your calculation utilizes the basis: def2-TZVP
   F. Weigend and R. Ahlrichs, Phys. Chem. Chem. Phys. 7, 3297 (2005).

----- AuxJ basis set information -----
Your calculation utilizes the auxiliary basis: def2/J
   H-Rn: F. Weigend, Phys. Chem. Chem. Phys. 8, 1057 (2006).
   Fr-Lr: K. Eichkorn, F. Weigend, O. Treutler, R. Ahlrichs; Theor. Chem. Acc. 97, 119 (1997).

================================================================================
                                        WARNINGS
                       Please study these warnings very carefully!
================================================================================


WARNING: Geometry Optimization
  ===> : Switching off AutoStart
         For restart on a previous wavefunction, please use MOREAD

================================================================================
                                       INPUT FILE
================================================================================
NAME = opt-conf-1.inp
|  1> ! B3LYP OPT FREQ DEF2-TZVP D4 CPCM(Methanol) 
|  2> ! TightOpt
|  3> %pal nprocs 64 end
|  4> %maxcore 6000
|  5> 
|  6> %cpcm
|  7> end
|  8> 
|  9> %freq
| 10>    Temp 298.15
| 11> end
| 12> 
| 13> * xyzfile 0 1 conf-1.xyz
| 14> 
| 15> 
| 16>                          ****END OF INPUT****
================================================================================

                       *****************************
                       * Geometry Optimization Run *
                       *****************************

Geometry optimization settings:
Update method            Update   .... BFGS
Choice of coordinates    CoordSys .... (2022) Redundant Internals
Initial Hessian          InHess   .... Almloef's Model
Max. no of cycles        MaxIter  .... 246

Convergence Tolerances:
Energy Change            TolE     ....  1.0000e-06 Eh
Max. Gradient            TolMAXG  ....  1.0000e-04 Eh/bohr
RMS Gradient             TolRMSG  ....  3.0000e-05 Eh/bohr
Max. Displacement        TolMAXD  ....  1.0000e-03 bohr
RMS Displacement         TolRMSD  ....  6.0000e-04 bohr
Strict Convergence                .... False

------------------------------------------------------------------------------
                        ORCA OPTIMIZATION COORDINATE SETUP
------------------------------------------------------------------------------

The optimization will be done in redundant internal coordinates (2022)
Making redundant internal coordinates   ...  (2022 redundants) done
Evaluating the initial hessian          ...  (Almloef) done
Evaluating the coordinates              ...  done
Calculating the B-matrix                .... done
Calculating the G-matrix                .... done
The number of degrees of freedom        ....  407

    -----------------------------------------------------------------
                    Redundant Internal Coordinates


    -----------------------------------------------------------------
         Definition                    Initial Value    Approx d2E/dq
    -----------------------------------------------------------------
      1. B(C   1,C   0)                  1.4002         0.601897   
      2. B(C   2,C   1)                  1.4015         0.598964   
      3. B(C   3,C   2)                  1.3863         0.633266   
      4. B(C   4,C   3)                  1.3879         0.629724   
      5. B(C   5,C   0)                  1.3899         0.625047   
      6. B(C   5,C   4)                  1.3868         0.632167   
      7. B(C   6,C   4)                  1.5039         0.411147   
      8. B(C   7,C   6)                  1.5418         0.357699   
      9. B(C   8,C   7)                  1.5465         0.351638   
     10. B(C   9,C   8)                  1.5534         0.342811   
     11. B(C  10,C   9)                  1.5037         0.411397   
     12. B(C  11,C  10)                  1.3929         0.618146   
     13. B(C  12,C  11)                  1.3797         0.648865   
     14. B(C  13,C  12)                  1.4034         0.594791   
     15. B(C  14,C  13)                  1.3833         0.640313   
     16. B(C  15,C  10)                  1.3852         0.635873   
     17. B(C  15,C  14)                  1.3866         0.632565   
     18. B(C  16,C   7)                  1.5353         0.366389   
     19. B(C  17,C   8)                  1.5479         0.349781   
     20. B(O  18,C   2)                  1.3682         0.606177   
     21. B(O  19,C   0)                  1.3644         0.614669   
     22. B(O  20,C   1)                  1.3771         0.586812   
     23. B(O  21,C  13)                  1.3625         0.619110   
     24. B(O  22,C  12)                  1.3832         0.573657   
     25. B(C  23,O  20)                  1.4239         0.494072   
     26. B(C  24,C  23)                  1.5503         0.346792   
     27. B(C  25,C  24)                  1.5157         0.393665   
     28. B(C  26,C  23)                  1.5331         0.369295   
     29. B(O  27,C  26)                  1.4016         0.536240   
     30. B(C  28,C  25)                  1.3925         0.619043   
     31. B(C  29,C  28)                  1.3818         0.643991   
     32. B(C  30,C  29)                  1.4034         0.594879   
     33. B(C  31,C  30)                  1.3822         0.642845   
     34. B(C  32,C  31)                  1.3837         0.639385   
     35. B(C  32,C  25)                  1.3829         0.641409   
     36. B(C  33,O  19)                  1.4089         0.522057   
     37. B(C  34,O  18)                  1.4067         0.526377   
     38. B(C  35,O  22)                  1.4109         0.518149   
     39. B(O  36,C  24)                  1.4000         0.539409   
     40. B(O  37,C  16)                  1.4123         0.515631   
     41. B(O  38,C  17)                  1.4002         0.538994   
     42. B(O  39,C  29)                  1.3755         0.590207   
     43. B(O  40,C  30)                  1.3685         0.605576   
     44. B(C  41,O  39)                  1.4076         0.524610   
     45. B(H  42,C   3)                  1.0782         0.375996   
     46. B(H  43,C   5)                  1.0781         0.376145   
     47. B(H  44,C   6)                  1.0922         0.357233   
     48. B(H  45,C   6)                  1.0897         0.360513   
     49. B(H  46,C   7)                  1.0944         0.354367   
     50. B(H  47,C   8)                  1.0972         0.350716   
     51. B(H  48,C   9)                  1.0927         0.356606   
     52. B(H  49,C   9)                  1.0917         0.357849   
     53. B(H  50,C  11)                  1.0777         0.376784   
     54. B(H  51,C  14)                  1.0785         0.375655   
     55. B(H  52,C  15)                  1.0805         0.372899   
     56. B(H  53,C  16)                  1.0928         0.356413   
     57. B(H  54,C  16)                  1.0971         0.350780   
     58. B(H  55,C  17)                  1.0947         0.353995   
     59. B(H  56,C  17)                  1.0982         0.349422   
     60. B(H  57,O  21)                  0.9669         0.506983   
     61. B(H  57,O  22)                  2.1233         0.010000   
     62. B(H  58,C  23)                  1.0939         0.354927   
     63. B(H  59,C  24)                  1.0972         0.350721   
     64. B(H  60,C  26)                  1.0917         0.357860   
     65. B(H  61,C  26)                  1.0987         0.348825   
     66. B(H  62,O  20)                  2.3096         0.010000   
     67. B(H  62,O  27)                  0.9656         0.509321   
     68. B(H  63,C  28)                  1.0782         0.376110   
     69. B(H  64,C  31)                  1.0777         0.376704   
     70. B(H  65,C  32)                  1.0782         0.376058   
     71. B(H  66,C  33)                  1.0930         0.356190   
     72. B(H  67,C  33)                  1.0893         0.361084   
     73. B(H  68,H  51)                  2.6736         0.010000   
     74. B(H  68,C  33)                  1.0935         0.355556   
     75. B(H  69,C  34)                  1.0948         0.353867   
     76. B(H  70,C  34)                  1.0941         0.354733   
     77. B(H  71,C  34)                  1.0888         0.361686   
     78. B(H  72,C  35)                  1.0930         0.356109   
     79. B(H  73,C  35)                  1.0931         0.355959   
     80. B(H  74,C  35)                  1.0891         0.361345   
     81. B(H  75,O  20)                  2.2448         0.010000   
     82. B(H  75,O  18)                  2.1308         0.010000   
     83. B(H  75,O  36)                  0.9730         0.495691   
     84. B(H  76,O  40)                  1.9443         0.013983   
     85. B(H  76,O  37)                  0.9723         0.496928   
     86. B(H  77,O  37)                  1.8057         0.023267   
     87. B(H  77,O  38)                  0.9761         0.490137   
     88. B(H  78,O  39)                  2.1262         0.010000   
     89. B(H  78,O  22)                  2.3336         0.010000   
     90. B(H  78,O  40)                  0.9698         0.501552   
     91. B(H  79,C  41)                  1.0884         0.362287   
     92. B(H  80,C  41)                  1.0942         0.354571   
     93. B(H  81,H  66)                  2.5700         0.010000   
     94. B(H  81,C  41)                  1.0933         0.355770   
     95. A(C   1,C   0,O  19)          116.5407         0.428275   
     96. A(C   5,C   0,O  19)          124.1127         0.431186   
     97. A(C   1,C   0,C   5)          119.3448         0.432389   
     98. A(C   0,C   1,O  20)          124.3443         0.424732   
     99. A(C   0,C   1,C   2)          119.4065         0.429092   
    100. A(C   2,C   1,O  20)          116.0565         0.424361   
    101. A(C   3,C   2,O  18)          125.0376         0.431120   
    102. A(C   1,C   2,C   3)          120.2960         0.433025   
    103. A(C   1,C   2,O  18)          114.6657         0.426835   
    104. A(C   4,C   3,H  42)          119.2999         0.356442   
    105. A(C   2,C   3,H  42)          120.4660         0.356782   
    106. A(C   2,C   3,C   4)          120.2312         0.436947   
    107. A(C   5,C   4,C   6)          119.6593         0.404817   
    108. A(C   3,C   4,C   6)          120.7958         0.404540   
    109. A(C   3,C   4,C   5)          119.5324         0.436810   
    110. A(C   4,C   5,H  43)          118.5667         0.356701   
    111. A(C   0,C   5,H  43)          120.3253         0.356015   
    112. A(C   0,C   5,C   4)          121.0799         0.436224   
    113. A(C   4,C   6,H  44)          109.6765         0.329044   
    114. A(C   7,C   6,H  45)          108.2589         0.322078   
    115. A(C   4,C   6,C   7)          113.7566         0.366625   
    116. A(H  44,C   6,H  45)          108.1957         0.290527   
    117. A(C   4,C   6,H  45)          108.2034         0.329541   
    118. A(C   7,C   6,H  44)          108.6051         0.321596   
    119. A(C   6,C   7,C  16)          109.4100         0.359476   
    120. A(C   8,C   7,C  16)          114.5065         0.358432   
    121. A(C  16,C   7,H  46)          106.7319         0.322437   
    122. A(C   8,C   7,H  46)          109.0025         0.320276   
    123. A(C   6,C   7,H  46)          108.0784         0.321172   
    124. A(C   6,C   7,C   8)          108.9202         0.356972   
    125. A(C   7,C   8,C  17)          114.9908         0.355618   
    126. A(C  17,C   8,H  47)          103.8403         0.319458   
    127. A(C   7,C   8,C   9)          111.6269         0.354406   
    128. A(C   9,C   8,H  47)          106.5525         0.318411   
    129. A(C   7,C   8,H  47)          107.2112         0.319734   
    130. A(C   9,C   8,C  17)          111.8440         0.354088   
    131. A(H  48,C   9,H  49)          107.0037         0.290109   
    132. A(C  10,C   9,H  48)          108.5119         0.328982   
    133. A(C  10,C   9,H  49)          108.3471         0.329171   
    134. A(C   8,C   9,C  10)          115.7955         0.364004   
    135. A(C   8,C   9,H  48)          107.9307         0.319277   
    136. A(C   8,C   9,H  49)          108.9168         0.319459   
    137. A(C   9,C  10,C  11)          119.9077         0.403261   
    138. A(C  11,C  10,C  15)          118.9407         0.435811   
    139. A(C   9,C  10,C  15)          121.1509         0.405278   
    140. A(C  10,C  11,C  12)          120.6738         0.437402   
    141. A(C  10,C  11,H  50)          118.4437         0.355447   
    142. A(C  12,C  11,H  50)          120.8628         0.358389   
    143. A(C  11,C  12,C  13)          120.0129         0.434378   
    144. A(C  13,C  12,O  22)          115.0764         0.422117   
    145. A(C  11,C  12,O  22)          124.9040         0.428743   
    146. A(C  12,C  13,O  21)          120.3955         0.427916   
    147. A(C  12,C  13,C  14)          119.2444         0.433343   
    148. A(C  14,C  13,O  21)          120.3600         0.433621   
    149. A(C  13,C  14,H  51)          118.5473         0.357398   
    150. A(C  13,C  14,C  15)          120.2473         0.438175   
    151. A(C  15,C  14,H  51)          121.2050         0.356660   
    152. A(C  14,C  15,H  52)          119.0799         0.356214   
    153. A(C  10,C  15,H  52)          120.1217         0.356530   
    154. A(C  10,C  15,C  14)          120.7955         0.437626   
    155. A(O  37,C  16,H  54)          109.2498         0.338557   
    156. A(C   7,C  16,H  54)          108.1963         0.321900   
    157. A(O  37,C  16,H  53)          106.1964         0.339458   
    158. A(C   7,C  16,H  53)          111.3608         0.322741   
    159. A(C   7,C  16,O  37)          113.4227         0.380399   
    160. A(H  53,C  16,H  54)          108.2923         0.289178   
    161. A(O  38,C  17,H  56)          109.6803         0.340851   
    162. A(C   8,C  17,O  38)          116.3817         0.380262   
    163. A(H  55,C  17,H  56)          107.3535         0.288695   
    164. A(C   8,C  17,H  56)          108.6137         0.319266   
    165. A(O  38,C  17,H  55)          106.2674         0.341593   
    166. A(C   8,C  17,H  55)          108.1725         0.319944   
    167. A(C   2,O  18,C  34)          118.4173         0.414400   
    168. A(C   0,O  19,C  33)          118.5130         0.414818   
    169. A(C   1,O  20,C  23)          119.6334         0.407420   
    170. A(C  13,O  21,H  57)          107.0229         0.368422   
    171. A(C  12,O  22,C  35)          117.5268         0.409220   
    172. A(C  26,C  23,H  58)          109.7087         0.322939   
    173. A(C  24,C  23,H  58)          110.8183         0.319633   
    174. A(O  20,C  23,H  58)          110.3373         0.336814   
    175. A(C  24,C  23,C  26)          111.1902         0.358068   
    176. A(O  20,C  23,C  26)          104.7691         0.378112   
    177. A(O  20,C  23,C  24)          109.8592         0.374027   
    178. A(C  23,C  24,O  36)          109.7943         0.379748   
    179. A(O  36,C  24,H  59)          106.3477         0.341107   
    180. A(C  25,C  24,H  59)          109.4548         0.325707   
    181. A(C  23,C  24,H  59)          108.4610         0.319012   
    182. A(C  25,C  24,O  36)          113.3264         0.388211   
    183. A(C  23,C  24,C  25)          109.3197         0.361988   
    184. A(C  28,C  25,C  32)          119.4511         0.436606   
    185. A(C  24,C  25,C  32)          121.2431         0.402755   
    186. A(C  24,C  25,C  28)          119.2871         0.400245   
    187. A(O  27,C  26,H  61)          110.9426         0.340462   
    188. A(H  60,C  26,H  61)          109.0841         0.289109   
    189. A(C  23,C  26,H  61)          108.5477         0.322022   
    190. A(O  27,C  26,H  60)          106.7794         0.341922   
    191. A(C  23,C  26,H  60)          109.9787         0.323375   
    192. A(C  23,C  26,O  27)          111.4784         0.383522   
    193. A(C  26,O  27,H  62)          106.8809         0.359762   
    194. A(C  29,C  28,H  63)          120.3957         0.357820   
    195. A(C  25,C  28,H  63)          119.1878         0.355427   
    196. A(C  25,C  28,C  29)          120.4115         0.436922   
    197. A(C  30,C  29,O  39)          114.9676         0.424280   
    198. A(C  28,C  29,O  39)          125.4409         0.430354   
    199. A(C  28,C  29,C  30)          119.5913         0.433801   
    200. A(C  31,C  30,O  40)          120.2459         0.432207   
    201. A(C  29,C  30,O  40)          120.0950         0.426236   
    202. A(C  29,C  30,C  31)          119.6551         0.433662   
    203. A(C  32,C  31,H  64)          120.3190         0.357480   
    204. A(C  30,C  31,H  64)          119.5091         0.357808   
    205. A(C  30,C  31,C  32)          120.1694         0.439336   
    206. A(C  31,C  32,H  65)          119.9417         0.357375   
    207. A(C  25,C  32,H  65)          119.5811         0.357567   
    208. A(C  25,C  32,C  31)          120.4767         0.439159   
    209. A(H  67,C  33,H  68)          109.1748         0.290384   
    210. A(H  66,C  33,H  68)          109.3270         0.289763   
    211. A(O  19,C  33,H  68)          111.2665         0.340024   
    212. A(H  66,C  33,H  67)          109.6552         0.290466   
    213. A(O  19,C  33,H  67)          105.5312         0.340902   
    214. A(O  19,C  33,H  66)          111.7958         0.340126   
    215. A(H  69,C  34,H  71)          109.3371         0.290243   
    216. A(O  18,C  34,H  71)          105.6006         0.341468   
    217. A(H  69,C  34,H  70)          109.4709         0.289361   
    218. A(O  18,C  34,H  70)          111.5421         0.340361   
    219. A(O  18,C  34,H  69)          111.5014         0.340222   
    220. A(H  70,C  34,H  71)          109.2898         0.290355   
    221. A(H  73,C  35,H  74)          109.5250         0.290469   
    222. A(H  72,C  35,H  74)          109.5906         0.290488   
    223. A(O  22,C  35,H  74)          105.6070         0.340516   
    224. A(H  72,C  35,H  73)          109.1745         0.289805   
    225. A(O  22,C  35,H  73)          111.7863         0.339662   
    226. A(O  22,C  35,H  72)          111.0880         0.339686   
    227. A(C  24,O  36,H  75)          107.3019         0.358464   
    228. A(C  16,O  37,H  76)          108.2361         0.355879   
    229. A(C  17,O  38,H  77)          105.8345         0.357731   
    230. A(C  29,O  39,C  41)          117.7727         0.412194   
    231. A(C  30,O  40,H  78)          107.8676         0.366351   
    232. A(H  80,C  41,H  81)          109.6046         0.289584   
    233. A(H  79,C  41,H  81)          109.0720         0.290564   
    234. A(O  39,C  41,H  81)          111.5312         0.340336   
    235. A(H  79,C  41,H  80)          109.4968         0.290410   
    236. A(O  39,C  41,H  80)          111.1294         0.340144   
    237. A(O  39,C  41,H  79)          105.9147         0.341371   
    238. D(O  20,C   1,C   0,O  19)     -5.3931         0.024983   
    239. D(C   2,C   1,C   0,O  19)    179.8569         0.024983   
    240. D(C   2,C   1,C   0,C   5)     -0.6119         0.024983   
    241. D(O  20,C   1,C   0,C   5)    174.1381         0.024983   
    242. D(O  18,C   2,C   1,C   0)   -176.7519         0.024727   
    243. D(C   3,C   2,C   1,C   0)      2.9601         0.024727   
    244. D(C   3,C   2,C   1,O  20)   -172.2159         0.024727   
    245. D(O  18,C   2,C   1,O  20)      8.0722         0.024727   
    246. D(C   4,C   3,C   2,C   1)     -2.4009         0.027824   
    247. D(H  42,C   3,C   2,O  18)     -3.3506         0.027824   
    248. D(C   4,C   3,C   2,O  18)    177.2793         0.027824   
    249. D(H  42,C   3,C   2,C   1)    176.9691         0.027824   
    250. D(C   6,C   4,C   3,H  42)     -1.1872         0.027494   
    251. D(C   5,C   4,C   3,H  42)   -179.9002         0.027494   
    252. D(C   5,C   4,C   3,C   2)     -0.5228         0.027494   
    253. D(C   6,C   4,C   3,C   2)    178.1902         0.027494   
    254. D(H  43,C   5,C   4,C   6)      2.2598         0.027721   
    255. D(H  43,C   5,C   4,C   3)   -179.0124         0.027721   
    256. D(C   0,C   5,C   4,C   3)      2.9097         0.027721   
    257. D(C   4,C   5,C   0,O  19)    177.1676         0.027061   
    258. D(H  43,C   5,C   0,C   1)    179.6299         0.027061   
    259. D(H  43,C   5,C   0,O  19)     -0.8767         0.027061   
    260. D(C   0,C   5,C   4,C   6)   -175.8181         0.027721   
    261. D(C   4,C   5,C   0,C   1)     -2.3258         0.027061   
    262. D(H  45,C   6,C   4,C   3)   -137.6373         0.012517   
    263. D(H  44,C   6,C   4,C   5)    158.8939         0.012517   
    264. D(H  44,C   6,C   4,C   3)    -19.8175         0.012517   
    265. D(C   7,C   6,C   4,C   5)    -79.2634         0.012517   
    266. D(C   7,C   6,C   4,C   3)    102.0252         0.012517   
    267. D(C   8,C   7,C   6,H  44)    -71.6137         0.010274   
    268. D(C   8,C   7,C   6,C   4)    165.9516         0.010274   
    269. D(C  16,C   7,C   6,H  45)    171.4968         0.010274   
    270. D(C  16,C   7,C   6,H  44)     54.2377         0.010274   
    271. D(C   8,C   7,C   6,H  45)     45.6454         0.010274   
    272. D(C  16,C   7,C   6,C   4)    -68.1969         0.010274   
    273. D(C  17,C   8,C   7,H  46)    -84.7317         0.010000   
    274. D(C  17,C   8,C   7,C  16)     34.7155         0.010000   
    275. D(C  17,C   8,C   7,C   6)    157.5588         0.010000   
    276. D(C   9,C   8,C   7,C  16)    163.5007         0.010000   
    277. D(C   9,C   8,C   7,H  46)     44.0536         0.010000   
    278. D(C   9,C   8,C   7,C   6)    -73.6560         0.010000   
    279. D(H  48,C   9,C   8,C  17)    -24.7549         0.010000   
    280. D(H  48,C   9,C   8,C   7)   -155.1874         0.010000   
    281. D(C  10,C   9,C   8,H  47)   -150.1190         0.010000   
    282. D(C  10,C   9,C   8,C  17)     97.0506         0.010000   
    283. D(H  48,C   9,C   8,H  47)     88.0754         0.010000   
    284. D(C  10,C   9,C   8,C   7)    -33.3818         0.010000   
    285. D(C  15,C  10,C   9,H  48)   -116.4504         0.012532   
    286. D(C  15,C  10,C   9,C   8)    122.0544         0.012532   
    287. D(C  11,C  10,C   9,H  49)    179.7115         0.012532   
    288. D(C  11,C  10,C   9,H  48)     63.8660         0.012532   
    289. D(C  11,C  10,C   9,C   8)    -57.6292         0.012532   
    290. D(H  50,C  11,C  10,C  15)    178.6909         0.026431   
    291. D(H  50,C  11,C  10,C   9)     -1.6185         0.026431   
    292. D(C  12,C  11,C  10,C  15)     -2.9104         0.026431   
    293. D(C  12,C  11,C  10,C   9)    176.7801         0.026431   
    294. D(O  22,C  12,C  11,H  50)      2.0299         0.029308   
    295. D(C  13,C  12,C  11,H  50)   -178.9612         0.029308   
    296. D(O  22,C  12,C  11,C  10)   -176.3298         0.029308   
    297. D(C  13,C  12,C  11,C  10)      2.6791         0.029308   
    298. D(O  21,C  13,C  12,C  11)    179.7069         0.024366   
    299. D(C  14,C  13,C  12,O  22)    178.8860         0.024366   
    300. D(C  14,C  13,C  12,C  11)     -0.2166         0.024366   
    301. D(O  21,C  13,C  12,O  22)     -1.1905         0.024366   
    302. D(H  51,C  14,C  13,O  21)     -1.6759         0.028488   
    303. D(H  51,C  14,C  13,C  12)    178.2476         0.028488   
    304. D(C  15,C  14,C  13,O  21)    178.1028         0.028488   
    305. D(C  15,C  14,C  13,C  12)     -1.9737         0.028488   
    306. D(H  52,C  15,C  14,H  51)      0.8965         0.027758   
    307. D(H  52,C  15,C  14,C  13)   -178.8762         0.027758   
    308. D(C  10,C  15,C  14,H  51)   -178.4879         0.027758   
    309. D(C  10,C  15,C  14,C  13)      1.7394         0.027758   
    310. D(H  52,C  15,C  10,C  11)   -178.6776         0.028068   
    311. D(H  52,C  15,C  10,C   9)      1.6358         0.028068   
    312. D(C  14,C  15,C  10,C  11)      0.7004         0.028068   
    313. D(C  14,C  15,C  10,C   9)   -178.9862         0.028068   
    314. D(H  53,C  16,C   7,H  46)    159.3752         0.010744   
    315. D(H  53,C  16,C   7,C   8)     38.6641         0.010744   
    316. D(H  53,C  16,C   7,C   6)    -83.9141         0.010744   
    317. D(O  37,C  16,C   7,H  46)     39.6505         0.010744   
    318. D(O  37,C  16,C   7,C   8)    -81.0605         0.010744   
    319. D(O  37,C  16,C   7,C   6)    156.3613         0.010744   
    320. D(H  55,C  17,C   8,H  47)    -69.7891         0.010000   
    321. D(H  55,C  17,C   8,C   9)     44.7221         0.010000   
    322. D(H  55,C  17,C   8,C   7)    173.3993         0.010000   
    323. D(O  38,C  17,C   8,H  47)    170.7443         0.010000   
    324. D(O  38,C  17,C   8,C   9)    -74.7446         0.010000   
    325. D(O  38,C  17,C   8,C   7)     53.9327         0.010000   
    326. D(C  34,O  18,C   2,C   3)     -0.1287         0.029653   
    327. D(C  34,O  18,C   2,C   1)    179.5675         0.029653   
    328. D(C  33,O  19,C   0,C   5)     -3.7092         0.027685   
    329. D(C  33,O  19,C   0,C   1)    175.7971         0.027685   
    330. D(C  23,O  20,C   1,C   2)   -127.8660         0.030064   
    331. D(C  23,O  20,C   1,C   0)     57.2246         0.030064   
    332. D(H  57,O  21,C  13,C  14)    177.7168         0.028116   
    333. D(H  57,O  21,C  13,C  12)     -2.2059         0.028116   
    334. D(C  35,O  22,C  12,C  13)    167.8299         0.028640   
    335. D(C  35,O  22,C  12,C  11)    -13.1176         0.028640   
    336. D(H  58,C  23,O  20,C   1)    -55.6014         0.022454   
    337. D(C  26,C  23,O  20,C   1)   -173.6139         0.022454   
    338. D(C  24,C  23,O  20,C   1)     66.8697         0.022454   
    339. D(O  36,C  24,C  23,H  58)    173.0532         0.010000   
    340. D(O  36,C  24,C  23,C  26)    -64.6460         0.010000   
    341. D(O  36,C  24,C  23,O  20)     50.8674         0.010000   
    342. D(C  25,C  24,C  23,H  58)     48.1548         0.010000   
    343. D(C  25,C  24,C  23,C  26)    170.4555         0.010000   
    344. D(C  25,C  24,C  23,O  20)    -74.0310         0.010000   
    345. D(C  32,C  25,C  24,O  36)     -5.4419         0.011518   
    346. D(C  32,C  25,C  24,C  23)    117.3759         0.011518   
    347. D(C  28,C  25,C  24,H  59)     57.6255         0.011518   
    348. D(C  28,C  25,C  24,O  36)    176.1411         0.011518   
    349. D(C  28,C  25,C  24,C  23)    -61.0410         0.011518   
    350. D(H  60,C  26,C  23,H  58)     61.0211         0.010905   
    351. D(H  60,C  26,C  23,C  24)    -61.9197         0.010905   
    352. D(H  60,C  26,C  23,O  20)    179.4603         0.010905   
    353. D(O  27,C  26,C  23,H  58)    -57.2175         0.010905   
    354. D(O  27,C  26,C  23,C  24)    179.8418         0.010905   
    355. D(O  27,C  26,C  23,O  20)     61.2218         0.010905   
    356. D(H  62,O  27,C  26,H  61)     71.4175         0.022860   
    357. D(H  62,O  27,C  26,H  60)   -169.8286         0.022860   
    358. D(H  62,O  27,C  26,C  23)    -49.6869         0.022860   
    359. D(H  63,C  28,C  25,C  32)    176.4359         0.026512   
    360. D(H  63,C  28,C  25,C  24)     -5.1184         0.026512   
    361. D(C  29,C  28,C  25,C  32)     -4.3746         0.026512   
    362. D(C  29,C  28,C  25,C  24)    174.0711         0.026512   
    363. D(C  30,C  29,C  28,H  63)    179.8158         0.028839   
    364. D(C  30,C  29,C  28,C  25)      0.6362         0.028839   
    365. D(O  39,C  29,C  28,H  63)     -0.3379         0.028839   
    366. D(O  39,C  29,C  28,C  25)   -179.5175         0.028839   
    367. D(O  40,C  30,C  29,O  39)      3.0116         0.024374   
    368. D(O  40,C  30,C  29,C  28)   -177.1265         0.024374   
    369. D(C  31,C  30,C  29,O  39)   -176.2616         0.024374   
    370. D(C  31,C  30,C  29,C  28)      3.6003         0.024374   
    371. D(H  64,C  31,C  30,O  40)     -3.9425         0.028729   
    372. D(H  64,C  31,C  30,C  29)    175.3295         0.028729   
    373. D(C  32,C  31,C  30,O  40)    176.6357         0.028729   
    374. D(C  32,C  31,C  30,C  29)     -4.0922         0.028729   
    375. D(H  65,C  32,C  31,H  64)      0.6564         0.028400   
    376. D(H  65,C  32,C  31,C  30)   -179.9265         0.028400   
    377. D(C  25,C  32,C  31,H  64)   -179.0847         0.028400   
    378. D(C  25,C  32,C  31,C  30)      0.3323         0.028400   
    379. D(H  65,C  32,C  25,C  28)   -175.8393         0.028592   
    380. D(H  65,C  32,C  25,C  24)      5.7464         0.028592   
    381. D(C  31,C  32,C  25,C  28)      3.9028         0.028592   
    382. D(C  31,C  32,C  25,C  24)   -174.5116         0.028592   
    383. D(H  68,C  33,O  19,C   0)    -58.6381         0.021615   
    384. D(H  67,C  33,O  19,C   0)   -176.9307         0.021615   
    385. D(H  66,C  33,O  19,C   0)     63.9180         0.021615   
    386. D(H  71,C  34,O  18,C   2)   -178.5022         0.023871   
    387. D(H  70,C  34,O  18,C   2)     62.8802         0.023871   
    388. D(H  69,C  34,O  18,C   2)    -59.8494         0.023871   
    389. D(H  74,C  35,O  22,C  12)   -174.6136         0.024804   
    390. D(H  73,C  35,O  22,C  12)     66.3508         0.024804   
    391. D(H  72,C  35,O  22,C  12)    -55.8732         0.024804   
    392. D(H  75,O  36,C  24,H  59)   -162.3935         0.023144   
    393. D(H  75,O  36,C  24,C  25)     77.3098         0.023144   
    394. D(H  75,O  36,C  24,C  23)    -45.2453         0.023144   
    395. D(H  76,O  37,C  16,H  54)     61.3738         0.022862   
    396. D(H  76,O  37,C  16,H  53)    177.9651         0.022862   
    397. D(H  76,O  37,C  16,C   7)    -59.4068         0.022862   
    398. D(H  77,O  38,C  17,H  56)     50.5971         0.023107   
    399. D(H  77,O  38,C  17,H  55)    166.3409         0.023107   
    400. D(H  77,O  38,C  17,C   8)    -73.1688         0.023107   
    401. D(C  41,O  39,C  29,C  30)    170.9156         0.028004   
    402. D(C  41,O  39,C  29,C  28)     -8.9370         0.028004   
    403. D(H  78,O  40,C  30,C  31)    177.8498         0.029589   
    404. D(H  78,O  40,C  30,C  29)     -1.4191         0.029589   
    405. D(H  81,C  41,O  39,C  29)     67.2196         0.023703   
    406. D(H  80,C  41,O  39,C  29)    -55.4074         0.023703   
    407. D(H  79,C  41,O  39,C  29)   -174.2407         0.023703   
    -----------------------------------------------------------------

Number of atoms                         .... 82
Number of degrees of freedom            .... 407


         *************************************************************
         *                GEOMETRY OPTIMIZATION CYCLE   1            *
         *************************************************************
---------------------------------
CARTESIAN COORDINATES (ANGSTROEM)
---------------------------------
  C     23.032659  -32.338597   -0.497487
  C     23.721862  -33.117822    0.439673
  C     23.163108  -34.328080    0.872403
  C     21.969046  -34.779887    0.332023
  C     21.292048  -34.013004   -0.605913
  C     21.812882  -32.786645   -0.990633
  C     20.016879  -34.508870   -1.230265
  C     18.745228  -33.871437   -0.635458
  C     17.549366  -34.173854   -1.568216
  C     17.607995  -33.324960   -2.867821
  C     18.194803  -31.947921   -2.724032
  C     17.633707  -31.044310   -1.824663
  C     18.198768  -29.800496   -1.631702
  C     19.317217  -29.412973   -2.385641
  C     19.843342  -30.292193   -3.315020
  C     19.295409  -31.556683   -3.468629
  C     18.562140  -34.352338    0.811028
  C     16.158318  -34.098625   -0.893409
  O     23.882991  -34.976131    1.838770
  O     23.628414  -31.170718   -0.875447
  O     24.985056  -32.833008    0.908237
  O     19.877803  -28.184261   -2.205684
  O     17.759190  -28.865508   -0.711954
  C     25.238254  -31.578374    1.532154
  C     24.462690  -31.490247    2.871561
  C     22.989617  -31.277172    2.584984
  C     26.753215  -31.557115    1.766563
  O     27.460525  -31.640124    0.559366
  C     22.587855  -30.135803    1.895802
  C     21.269181  -29.976537    1.515011
  C     20.329863  -30.967662    1.838685
  C     20.717547  -32.055294    2.598531
  C     22.042496  -32.209800    2.966378
  C     23.015935  -30.398295   -1.882044
  C     23.388777  -36.195128    2.337256
  C     16.498421  -29.079874   -0.115898
  O     24.718107  -32.630139    3.643191
  O     17.788101  -33.474018    1.600922
  O     15.857329  -32.908843   -0.219305
  O     20.762675  -28.899687    0.825191
  O     19.033690  -30.848898    1.416030
  C     21.602363  -27.785180    0.640625
  H     21.561554  -35.733517    0.627226
  H     21.265952  -32.196491   -1.708240
  H     19.949092  -35.592998   -1.116602
  H     20.047648  -34.279640   -2.295125
  H     18.897233  -32.788605   -0.590621
  H     17.635228  -35.223401   -1.876275
  H     16.590168  -33.229780   -3.253649
  H     18.184826  -33.867566   -3.619265
  H     16.764717  -31.349560   -1.265151
  H     20.685116  -29.972126   -3.908409
  H     19.732728  -32.234765   -4.187254
  H     18.056894  -35.320637    0.847632
  H     19.555510  -34.464953    1.262963
  H     15.395453  -34.212384   -1.670174
  H     16.055570  -34.949153   -0.206333
  H     19.342163  -27.722580   -1.546295
  H     24.956612  -30.758341    0.865126
  H     24.850993  -30.637516    3.442422
  H     27.044478  -30.616756    2.238469
  H     27.015395  -32.389981    2.433383
  H     27.088115  -32.382399    0.066649
  H     23.320871  -29.383897    1.651356
  H     19.978979  -32.775903    2.909564
  H     22.341057  -33.060213    3.558128
  H     22.035629  -30.029035   -1.570220
  H     23.686767  -29.557349   -2.053144
  H     22.909928  -30.967637   -2.809547
  H     22.399641  -36.072009    2.789955
  H     23.339408  -36.958544    1.555087
  H     24.098487  -36.508326    3.101267
  H     15.717583  -29.183221   -0.873747
  H     16.497513  -29.966332    0.523762
  H     16.305774  -28.194667    0.488542
  H     24.646433  -33.400783    3.053514
  H     18.230226  -32.608140    1.615383
  H     16.392019  -32.922741    0.597175
  H     18.953965  -30.012196    0.932187
  H     20.984903  -27.020472    0.173213
  H     21.981272  -27.414009    1.597682
  H     22.441348  -28.019913   -0.019902

----------------------------
CARTESIAN COORDINATES (A.U.)
----------------------------
  NO LB      ZA    FRAG     MASS         X           Y           Z
   0 C     6.0000    0    12.011   43.525418  -61.111092   -0.940114
   1 C     6.0000    0    12.011   44.827822  -62.583614    0.830861
   2 C     6.0000    0    12.011   43.771931  -64.870670    1.648603
   3 C     6.0000    0    12.011   41.515481  -65.724461    0.627432
   4 C     6.0000    0    12.011   40.236140  -64.275262   -1.145009
   5 C     6.0000    0    12.011   41.220373  -61.957779   -1.872026
   6 C     6.0000    0    12.011   37.826419  -65.212313   -2.324864
   7 C     6.0000    0    12.011   35.423347  -64.007740   -1.200841
   8 C     6.0000    0    12.011   33.163496  -64.579224   -2.963498
   9 C     6.0000    0    12.011   33.274287  -62.975048   -5.419397
  10 C     6.0000    0    12.011   34.383195  -60.372821   -5.147675
  11 C     6.0000    0    12.011   33.322877  -58.665244   -3.448113
  12 C     6.0000    0    12.011   34.390688  -56.314776   -3.083470
  13 C     6.0000    0    12.011   36.504249  -55.582464   -4.508208
  14 C     6.0000    0    12.011   37.498482  -57.243949   -6.264480
  15 C     6.0000    0    12.011   36.463039  -59.633488   -6.554759
  16 C     6.0000    0    12.011   35.077362  -64.916512    1.532620
  17 C     6.0000    0    12.011   30.534796  -64.437062   -1.688298
  18 O     8.0000    0    15.999   45.132313  -66.095309    3.474772
  19 O     8.0000    0    15.999   44.651231  -58.904121   -1.654355
  20 O     8.0000    0    15.999   47.214913  -62.045394    1.716318
  21 O     8.0000    0    15.999   37.563605  -53.260535   -4.168138
  22 O     8.0000    0    15.999   33.560006  -54.547906   -1.345399
  23 C     6.0000    0    12.011   47.693388  -59.674478    2.895352
  24 C     6.0000    0    12.011   46.227784  -59.507943    5.426464
  25 C     6.0000    0    12.011   43.444079  -59.105290    4.884911
  26 C     6.0000    0    12.011   50.556250  -59.634305    3.338320
  27 O     8.0000    0    15.999   51.892871  -59.791169    1.057049
  28 C     6.0000    0    12.011   42.684861  -56.948415    3.582546
  29 C     6.0000    0    12.011   40.192927  -56.647446    2.862957
  30 C     6.0000    0    12.011   38.417874  -58.520400    3.474611
  31 C     6.0000    0    12.011   39.150490  -60.575728    4.910513
  32 C     6.0000    0    12.011   41.654281  -60.867701    5.605642
  33 C     6.0000    0    12.011   43.493814  -57.444453   -3.556548
  34 C     6.0000    0    12.011   44.198383  -68.398880    4.416773
  35 C     6.0000    0    12.011   31.177498  -54.952999   -0.219015
  36 O     8.0000    0    15.999   46.710452  -61.662027    6.884633
  37 O     8.0000    0    15.999   33.614640  -63.256726    3.025304
  38 O     8.0000    0    15.999   29.966009  -62.188700   -0.414425
  39 O     8.0000    0    15.999   39.235769  -54.612493    1.559384
  40 O     8.0000    0    15.999   35.968461  -58.295970    2.675909
  41 C     6.0000    0    12.011   40.822551  -52.506381    1.210605
  42 H     1.0000    0     1.008   40.745432  -67.526561    1.185286
  43 H     1.0000    0     1.008   40.186825  -60.842550   -3.228105
  44 H     1.0000    0     1.008   37.698320  -67.261019   -2.110073
  45 H     1.0000    0     1.008   37.884564  -64.779131   -4.337158
  46 H     1.0000    0     1.008   35.710595  -61.961483   -1.116111
  47 H     1.0000    0     1.008   33.325751  -66.562581   -3.545646
  48 H     1.0000    0     1.008   31.350874  -62.795183   -6.148505
  49 H     1.0000    0     1.008   34.364341  -64.000424   -6.839420
  50 H     1.0000    0     1.008   31.680724  -59.242084   -2.390788
  51 H     1.0000    0     1.008   39.089205  -56.639111   -7.385823
  52 H     1.0000    0     1.008   37.289452  -60.914878   -7.912763
  53 H     1.0000    0     1.008   34.122585  -66.746331    1.601792
  54 H     1.0000    0     1.008   36.954559  -65.129323    2.386654
  55 H     1.0000    0     1.008   29.093190  -64.652035   -3.156172
  56 H     1.0000    0     1.008   30.340630  -66.044328   -0.389912
  57 H     1.0000    0     1.008   36.551391  -52.388085   -2.922074
  58 H     1.0000    0     1.008   47.161162  -58.124841    1.634851
  59 H     1.0000    0     1.008   46.961571  -57.896515    6.505236
  60 H     1.0000    0     1.008   51.106657  -57.857283    4.230093
  61 H     1.0000    0     1.008   51.051698  -61.208193    4.598428
  62 H     1.0000    0     1.008   51.189119  -61.193866    0.125948
  63 H     1.0000    0     1.008   44.070059  -55.527519    3.120612
  64 H     1.0000    0     1.008   37.754799  -61.937480    5.498280
  65 H     1.0000    0     1.008   42.218479  -62.474748    6.723887
  66 H     1.0000    0     1.008   41.641304  -56.746651   -2.967286
  67 H     1.0000    0     1.008   44.761503  -55.855295   -3.879879
  68 H     1.0000    0     1.008   43.293490  -58.520353   -5.309274
  69 H     1.0000    0     1.008   42.329187  -68.166218    5.272250
  70 H     1.0000    0     1.008   44.105089  -69.841526    2.938688
  71 H     1.0000    0     1.008   45.539540  -68.990738    5.860546
  72 H     1.0000    0     1.008   29.701928  -55.148296   -1.651142
  73 H     1.0000    0     1.008   31.175782  -56.628160    0.989768
  74 H     1.0000    0     1.008   30.813447  -53.280199    0.923210
  75 H     1.0000    0     1.008   46.575008  -63.118332    5.770306
  76 H     1.0000    0     1.008   34.450134  -61.620454    3.052631
  77 H     1.0000    0     1.008   30.976427  -62.214964    1.128497
  78 H     1.0000    0     1.008   35.817803  -56.714831    1.761579
  79 H     1.0000    0     1.008   39.655720  -51.061293    0.327325
  80 H     1.0000    0     1.008   41.538585  -51.804970    3.019181
  81 H     1.0000    0     1.008   42.408002  -52.949962   -0.037609

--------------------------------
INTERNAL COORDINATES (ANGSTROEM)
--------------------------------
 C      0   0   0     0.000000000000     0.00000000     0.00000000
 C      1   0   0     1.400164108451     0.00000000     0.00000000
 C      2   1   0     1.401493970858   119.40654763     0.00000000
 C      3   2   1     1.386334927404   120.29601182     2.96005640
 C      4   3   2     1.387861401674   120.23121166   357.59905341
 C      5   4   3     1.386807511159   119.53242294   359.47719796
 C      5   4   3     1.503913025210   120.79584954   178.19024149
 C      7   5   4     1.541821412587   113.75661652   102.02515389
 C      8   7   5     1.546472877464   108.92016575   165.95164355
 C      9   8   7     1.553393547782   111.62688691   286.34398732
 C     10   9   8     1.503747593644   115.79545008   326.61816448
 C     11  10   9     1.392913068500   119.90768629   302.37084089
 C     12  11  10     1.379710766535   120.67376332   176.78013558
 C     13  12  11     1.403397137139   120.01286700     2.67913906
 C     14  13  12     1.383322553767   119.24444691   359.78340357
 C     11  10   9     1.385216451231   121.15089060   122.05443937
 C      8   7   5     1.535287332649   109.40999479   291.80307157
 C      9   8   7     1.547914057357   114.99081758   157.55876920
 O      3   2   1     1.368235212460   114.66572186   183.24813994
 O      1   2   3     1.364448287609   116.54069071   179.85692415
 O      2   1   3     1.377073272593   124.34430113   174.75001737
 O     14  13  12     1.362488603608   120.39552544   179.70689387
 O     13  12  11     1.383245051768   124.90401401   183.67021055
 C     21   2   1     1.423899724656   119.63338188    57.22461497
 C     24  21   2     1.550250699997   109.85916640    66.86965987
 C     25  24  21     1.515741070070   109.31966961   285.96898135
 C     24  21   2     1.533136195837   104.76913603   186.38610199
 O     27  24  21     1.401606007576   111.47843720    61.22177838
 C     26  25  24     1.392518437037   119.28711692   298.95897557
 C     29  26  25     1.381763129648   120.41146990   174.07109969
 C     30  29  26     1.403356689443   119.59131002     0.63615574
 C     31  30  29     1.382248209323   119.65508444     3.60029409
 C     26  25  24     1.382856684083   121.24306621   117.37589730
 C     20   1   2     1.408902378294   118.51303790   175.79711340
 C     19   3   2     1.406659173287   118.41727682   179.56749719
 C     23  13  12     1.410947908767   117.52680812   346.88244545
 O     25  24  21     1.400001999605   109.79431804    50.86744997
 O     17   8   7     1.412273622842   113.42267344   156.36131613
 O     18   9   8     1.400211542916   116.38173918    53.93273495
 O     30  29  26     1.375502988096   125.44092525   180.48245571
 O     31  30  29     1.368505473451   120.09500145   182.87346623
 C     40  30  29     1.407574563883   117.77274249   351.06298691
 H      4   3   2     1.078241522561   120.46597441   176.96914556
 H      6   5   4     1.078133653819   118.56666290   180.98760912
 H      7   5   4     1.092175851915   109.67649468   340.18247218
 H      7   5   4     1.089688113238   108.20336183   222.36269648
 H      8   7   5     1.094368396672   108.07835350    47.65915731
 H      9   8   7     1.097188101564   107.21120564    42.68090077
 H     10   9   8     1.092654334548   107.93067778   204.81262531
 H     10   9   8     1.091706629042   108.91678611    88.97614616
 H     12  11  10     1.077671383117   118.44371548   358.38145519
 H     15  14  13     1.078488361144   118.54728481   178.24760260
 H     16  11  10     1.080492854849   120.12169400     1.63577398
 H     17   8   7     1.092801831066   111.36076089   276.08594299
 H     17   8   7     1.097137824668   108.19630013    34.98821032
 H     18   9   8     1.094654394234   108.17249013   173.39934952
 H     18   9   8     1.098193569800   108.61369664   289.61862784
 H     22  14  13     0.966877939171   107.02285493   357.79412927
 H     24  21   2     1.093939073776   110.33731385   304.39855735
 H     25  24  21     1.097183588685   108.46104873   166.68597038
 H     27  24  21     1.091698229850   109.97867663   179.46033057
 H     27  24  21     1.098659757685   108.54765834   298.73061428
 H     28  27  24     0.965625552944   106.88093620   310.31305264
 H     29  26  25     1.078159056906   119.18780054   354.88159354
 H     32  31  30     1.077729551899   119.50906752   175.32953729
 H     33  26  25     1.078196792142   119.58110164     5.74637501
 H     34  20   1     1.092971916520   111.79578978    63.91795257
 H     34  20   1     1.089257319257   105.53115512   183.06926679
 H     34  20   1     1.093456723926   111.26649434   301.36185093
 H     35  19   3     1.094753243311   111.50140466   300.15057293
 H     35  19   3     1.094087926408   111.54207072    62.88016671
 H     35  19   3     1.088804031667   105.60061766   181.49779985
 H     36  23  13     1.093034111456   111.08797254   304.12675262
 H     36  23  13     1.093148193596   111.78625999    66.35080717
 H     36  23  13     1.089060310804   105.60703377   185.38643173
 H     37  25  24     0.973009260090   107.30189088   314.75473204
 H     38  17   8     0.972330922959   108.23609912   300.59319494
 H     39  18   9     0.976076727345   105.83449277   286.83118786
 H     41  31  30     0.969809936584   107.86755970   358.58091500
 H     42  40  30     1.088351439633   105.91471401   185.75926970
 H     42  40  30     1.094211642493   111.12936516   304.59264087
 H     42  40  30     1.093292997293   111.53121523    67.21961797

---------------------------
INTERNAL COORDINATES (A.U.)
---------------------------
 C      0   0   0     0.000000000000     0.00000000     0.00000000
 C      1   0   0     2.645926707518     0.00000000     0.00000000
 C      2   1   0     2.648439783263   119.40654763     0.00000000
 C      3   2   1     2.619793342683   120.29601182     2.96005640
 C      4   3   2     2.622677961003   120.23121166   357.59905341
 C      5   4   3     2.620686396556   119.53242294   359.47719796
 C      5   4   3     2.841983746884   120.79584954   178.19024149
 C      7   5   4     2.913620217205   113.75661652   102.02515389
 C      8   7   5     2.922410211944   108.92016575   165.95164355
 C      9   8   7     2.935488383508   111.62688691   286.34398732
 C     10   9   8     2.841671126531   115.79545008   326.61816448
 C     11  10   9     2.632224227825   119.90768629   302.37084089
 C     12  11  10     2.607275492773   120.67376332   176.78013558
 C     13  12  11     2.652036246322   120.01286700     2.67913906
 C     14  13  12     2.614100781497   119.24444691   359.78340357
 C     11  10   9     2.617679729029   121.15089060   122.05443937
 C      8   7   5     2.901272595586   109.40999479   291.80307157
 C      9   8   7     2.925133647252   114.99081758   157.55876920
 O      3   2   1     2.585589838336   114.66572186   183.24813994
 O      1   2   3     2.578433587479   116.54069071   179.85692415
 O      2   1   3     2.602291351544   124.34430113   174.75001737
 O     14  13  12     2.574730321407   120.39552544   179.70689387
 O     13  12  11     2.613954323943   124.90401401   183.67021055
 C     21   2   1     2.690780521766   119.63338188    57.22461497
 C     24  21   2     2.929549261915   109.85916640    66.86965987
 C     25  24  21     2.864335512370   109.31966961   285.96898135
 C     24  21   2     2.897207536135   104.76913603   186.38610199
 O     27  24  21     2.648651501978   111.47843720    61.22177838
 C     26  25  24     2.631478482436   119.28711692   298.95897557
 C     29  26  25     2.611153896985   120.41146990   174.07109969
 C     30  29  26     2.651959811254   119.59131002     0.63615574
 C     31  30  29     2.612070564724   119.65508444     3.60029409
 C     26  25  24     2.613220415379   121.24306621   117.37589730
 C     20   1   2     2.662439644407   118.51303790   175.79711340
 C     19   3   2     2.658200601280   118.41727682   179.56749719
 C     23  13  12     2.666305136798   117.52680812   346.88244545
 O     25  24  21     2.645620366196   109.79431804    50.86744997
 O     17   8   7     2.668810373332   113.42267344   156.36131613
 O     18   9   8     2.646016345667   116.38173918    53.93273495
 O     30  29  26     2.599323943891   125.44092525   180.48245571
 O     31  30  29     2.586100557595   120.09500145   182.87346623
 C     40  30  29     2.659930438813   117.77274249   351.06298691
 H      4   3   2     2.037581183863   120.46597441   176.96914556
 H      6   5   4     2.037377341481   118.56666290   180.98760912
 H      7   5   4     2.063913250202   109.67649468   340.18247218
 H      7   5   4     2.059212105409   108.20336183   222.36269648
 H      8   7   5     2.068056559329   108.07835350    47.65915731
 H      9   8   7     2.073385029352   107.21120564    42.68090077
 H     10   9   8     2.064817451338   107.93067778   204.81262531
 H     10   9   8     2.063026547476   108.91678611    88.97614616
 H     12  11  10     2.036503776456   118.44371548   358.38145519
 H     15  14  13     2.038047641184   118.54728481   178.24760260
 H     16  11  10     2.041835585324   120.12169400     1.63577398
 H     17   8   7     2.065096179362   111.36076089   276.08594299
 H     17   8   7     2.073290019788   108.19630013    34.98821032
 H     18   9   8     2.068597016396   108.17249013   173.39934952
 H     18   9   8     2.075285088955   108.61369664   289.61862784
 H     22  14  13     1.827134509964   107.02285493   357.79412927
 H     24  21   2     2.067245256633   110.33731385   304.39855735
 H     25  24  21     2.073376501247   108.46104873   166.68597038
 H     27  24  21     2.063010675304   109.97867663   179.46033057
 H     27  24  21     2.076166056384   108.54765834   298.73061428
 H     28  27  24     1.824767842981   106.88093620   310.31305264
 H     29  26  25     2.037425346359   119.18780054   354.88159354
 H     32  31  30     2.036613699523   119.50906752   175.32953729
 H     33  26  25     2.037496655621   119.58110164     5.74637501
 H     34  20   1     2.065417594289   111.79578978    63.91795257
 H     34  20   1     2.058398022766   105.53115512   183.06926679
 H     34  20   1     2.066333747515   111.26649434   301.36185093
 H     35  19   3     2.068783814081   111.50140466   300.15057293
 H     35  19   3     2.067526547341   111.54207072    62.88016671
 H     35  19   3     2.057541433360   105.60061766   181.49779985
 H     36  23  13     2.065535125686   111.08797254   304.12675262
 H     36  23  13     2.065750709687   111.78625999    66.35080717
 H     36  23  13     2.058025730742   105.60703377   185.38643173
 H     37  25  24     1.838721027339   107.30189088   314.75473204
 H     38  17   8     1.837439155935   108.23609912   300.59319494
 H     39  18   9     1.844517700376   105.83449277   286.83118786
 H     41  31  30     1.832675182100   107.86755970   358.58091500
 H     42  40  30     2.056686158366   105.91471401   185.75926970
 H     42  40  30     2.067760336860   111.12936516   304.59264087
 H     42  40  30     2.066024349018   111.53121523    67.21961797

---------------------
BASIS SET INFORMATION
---------------------
There are 3 groups of distinct atoms

 Group   1 Type C   : 11s6p2d1f contracted to 5s3p2d1f pattern {62111/411/11/1}
 Group   2 Type O   : 11s6p2d1f contracted to 5s3p2d1f pattern {62111/411/11/1}
 Group   3 Type H   : 5s1p contracted to 3s1p pattern {311/1}

Atom   0C    basis set group =>   1
Atom   1C    basis set group =>   1
Atom   2C    basis set group =>   1
Atom   3C    basis set group =>   1
Atom   4C    basis set group =>   1
Atom   5C    basis set group =>   1
Atom   6C    basis set group =>   1
Atom   7C    basis set group =>   1
Atom   8C    basis set group =>   1
Atom   9C    basis set group =>   1
Atom  10C    basis set group =>   1
Atom  11C    basis set group =>   1
Atom  12C    basis set group =>   1
Atom  13C    basis set group =>   1
Atom  14C    basis set group =>   1
Atom  15C    basis set group =>   1
Atom  16C    basis set group =>   1
Atom  17C    basis set group =>   1
Atom  18O    basis set group =>   2
Atom  19O    basis set group =>   2
Atom  20O    basis set group =>   2
Atom  21O    basis set group =>   2
Atom  22O    basis set group =>   2
Atom  23C    basis set group =>   1
Atom  24C    basis set group =>   1
Atom  25C    basis set group =>   1
Atom  26C    basis set group =>   1
Atom  27O    basis set group =>   2
Atom  28C    basis set group =>   1
Atom  29C    basis set group =>   1
Atom  30C    basis set group =>   1
Atom  31C    basis set group =>   1
Atom  32C    basis set group =>   1
Atom  33C    basis set group =>   1
Atom  34C    basis set group =>   1
Atom  35C    basis set group =>   1
Atom  36O    basis set group =>   2
Atom  37O    basis set group =>   2
Atom  38O    basis set group =>   2
Atom  39O    basis set group =>   2
Atom  40O    basis set group =>   2
Atom  41C    basis set group =>   1
Atom  42H    basis set group =>   3
Atom  43H    basis set group =>   3
Atom  44H    basis set group =>   3
Atom  45H    basis set group =>   3
Atom  46H    basis set group =>   3
Atom  47H    basis set group =>   3
Atom  48H    basis set group =>   3
Atom  49H    basis set group =>   3
Atom  50H    basis set group =>   3
Atom  51H    basis set group =>   3
Atom  52H    basis set group =>   3
Atom  53H    basis set group =>   3
Atom  54H    basis set group =>   3
Atom  55H    basis set group =>   3
Atom  56H    basis set group =>   3
Atom  57H    basis set group =>   3
Atom  58H    basis set group =>   3
Atom  59H    basis set group =>   3
Atom  60H    basis set group =>   3
Atom  61H    basis set group =>   3
Atom  62H    basis set group =>   3
Atom  63H    basis set group =>   3
Atom  64H    basis set group =>   3
Atom  65H    basis set group =>   3
Atom  66H    basis set group =>   3
Atom  67H    basis set group =>   3
Atom  68H    basis set group =>   3
Atom  69H    basis set group =>   3
Atom  70H    basis set group =>   3
Atom  71H    basis set group =>   3
Atom  72H    basis set group =>   3
Atom  73H    basis set group =>   3
Atom  74H    basis set group =>   3
Atom  75H    basis set group =>   3
Atom  76H    basis set group =>   3
Atom  77H    basis set group =>   3
Atom  78H    basis set group =>   3
Atom  79H    basis set group =>   3
Atom  80H    basis set group =>   3
Atom  81H    basis set group =>   3
---------------------------------
AUXILIARY/J BASIS SET INFORMATION
---------------------------------
There are 3 groups of distinct atoms

 Group   1 Type C   : 12s5p4d2f1g contracted to 6s4p3d1f1g pattern {711111/2111/211/2/1}
 Group   2 Type O   : 12s5p4d2f1g contracted to 6s4p3d1f1g pattern {711111/2111/211/2/1}
 Group   3 Type H   : 5s2p1d contracted to 3s1p1d pattern {311/2/1}

Atom   0C    basis set group =>   1
Atom   1C    basis set group =>   1
Atom   2C    basis set group =>   1
Atom   3C    basis set group =>   1
Atom   4C    basis set group =>   1
Atom   5C    basis set group =>   1
Atom   6C    basis set group =>   1
Atom   7C    basis set group =>   1
Atom   8C    basis set group =>   1
Atom   9C    basis set group =>   1
Atom  10C    basis set group =>   1
Atom  11C    basis set group =>   1
Atom  12C    basis set group =>   1
Atom  13C    basis set group =>   1
Atom  14C    basis set group =>   1
Atom  15C    basis set group =>   1
Atom  16C    basis set group =>   1
Atom  17C    basis set group =>   1
Atom  18O    basis set group =>   2
Atom  19O    basis set group =>   2
Atom  20O    basis set group =>   2
Atom  21O    basis set group =>   2
Atom  22O    basis set group =>   2
Atom  23C    basis set group =>   1
Atom  24C    basis set group =>   1
Atom  25C    basis set group =>   1
Atom  26C    basis set group =>   1
Atom  27O    basis set group =>   2
Atom  28C    basis set group =>   1
Atom  29C    basis set group =>   1
Atom  30C    basis set group =>   1
Atom  31C    basis set group =>   1
Atom  32C    basis set group =>   1
Atom  33C    basis set group =>   1
Atom  34C    basis set group =>   1
Atom  35C    basis set group =>   1
Atom  36O    basis set group =>   2
Atom  37O    basis set group =>   2
Atom  38O    basis set group =>   2
Atom  39O    basis set group =>   2
Atom  40O    basis set group =>   2
Atom  41C    basis set group =>   1
Atom  42H    basis set group =>   3
Atom  43H    basis set group =>   3
Atom  44H    basis set group =>   3
Atom  45H    basis set group =>   3
Atom  46H    basis set group =>   3
Atom  47H    basis set group =>   3
Atom  48H    basis set group =>   3
Atom  49H    basis set group =>   3
Atom  50H    basis set group =>   3
Atom  51H    basis set group =>   3
Atom  52H    basis set group =>   3
Atom  53H    basis set group =>   3
Atom  54H    basis set group =>   3
Atom  55H    basis set group =>   3
Atom  56H    basis set group =>   3
Atom  57H    basis set group =>   3
Atom  58H    basis set group =>   3
Atom  59H    basis set group =>   3
Atom  60H    basis set group =>   3
Atom  61H    basis set group =>   3
Atom  62H    basis set group =>   3
Atom  63H    basis set group =>   3
Atom  64H    basis set group =>   3
Atom  65H    basis set group =>   3
Atom  66H    basis set group =>   3
Atom  67H    basis set group =>   3
Atom  68H    basis set group =>   3
Atom  69H    basis set group =>   3
Atom  70H    basis set group =>   3
Atom  71H    basis set group =>   3
Atom  72H    basis set group =>   3
Atom  73H    basis set group =>   3
Atom  74H    basis set group =>   3
Atom  75H    basis set group =>   3
Atom  76H    basis set group =>   3
Atom  77H    basis set group =>   3
Atom  78H    basis set group =>   3
Atom  79H    basis set group =>   3
Atom  80H    basis set group =>   3
Atom  81H    basis set group =>   3
--------------------------------------------------------------------------
WARNING: There was an error initializing an OpenFabrics device.

  Local host:   c02b01n07
  Local device: mlx5_0
--------------------------------------------------------------------------
--------------------------------------------------------------------------
WARNING: There is at least one non-excluded one OpenFabrics device found,
but there are no active ports detected (or Open MPI was unable to use
them).  This is most certainly not what you wanted.  Check your
cables, subnet manager configuration, etc.  The openib BTL will be
ignored for this job.

  Local host: c02b01n07
--------------------------------------------------------------------------
[c02b01n07:2850677] 54 more processes have sent help message help-mpi-btl-openib.txt / error in device init
[c02b01n07:2850677] Set MCA parameter "orte_base_help_aggregate" to 0 to see all help / error messages
[c02b01n07:2850677] 8 more processes have sent help message help-mpi-btl-openib.txt / no active ports found


           ************************************************************
           *        Program running with 64 parallel MPI-processes    *
           *              working on a common directory               *
           ************************************************************
------------------------------------------------------------------------------
                             ORCA STARTUP CALCULATIONS
                           -- RI-GTO INTEGRALS CHOSEN --
------------------------------------------------------------------------------
------------------------------------------------------------------------------
                   ___                                                        
                  /   \      - P O W E R E D   B Y -                         
                 /     \                                                     
                 |  |  |   _    _      __       _____    __    __             
                 |  |  |  | |  | |    /  \     |  _  \  |  |  /  |          
                  \  \/   | |  | |   /    \    | | | |  |  | /  /          
                 / \  \   | |__| |  /  /\  \   | |_| |  |  |/  /          
                |  |  |   |  __  | /  /__\  \  |    /   |      \           
                |  |  |   | |  | | |   __   |  |    \   |  |\   \          
                \     /   | |  | | |  |  |  |  | |\  \  |  | \   \       
                 \___/    |_|  |_| |__|  |__|  |_| \__\ |__|  \__/        
                                                                              
                      - O R C A' S   B I G   F R I E N D -                    
                                      &                                       
                       - I N T E G R A L  F E E D E R -                       
                                                                              
 v1 FN, 2020, v2 2021, v3 2022-2024                                           
------------------------------------------------------------------------------


----------------------
SHARK INTEGRAL PACKAGE
----------------------

Number of atoms                             ...     82
Number of basis functions                   ...   1542
Number of shells                            ...    622
Maximum angular momentum                    ...      3
Integral batch strategy                     ... SHARK/LIBINT Hybrid
RI-J (if used) integral strategy            ... SPLIT-RIJ (Revised 2003 algorithm where possible)
Printlevel                                  ...      1
Contraction scheme used                     ... SEGMENTED contraction
Prescreening option                         ... SCHWARTZ
   Thresh                                   ... 2.500e-11
   Tcut                                     ... 2.500e-12
   Tpresel                                  ... 2.500e-12 
Coulomb Range Separation                    ... NOT USED
Exchange Range Separation                   ... NOT USED
Multipole approximations                    ... NOT USED
Finite Nucleus Model                        ... NOT USED
CABS basis                                  ... NOT available
Auxiliary Coulomb fitting basis             ... AVAILABLE
   # of basis functions in Aux-J            ...   2498
   # of shells in Aux-J                     ...    830
   Maximum angular momentum in Aux-J        ...      4
Auxiliary J/K fitting basis                 ... NOT available
Auxiliary Correlation fitting basis         ... NOT available
Auxiliary 'external' fitting basis          ... NOT available

Checking pre-screening integrals            ... done (  0.3 sec) Dimension = 622
   => SHARK Basis and OBASIS are compatible. Storing Pre-screening
Shell pair information
Shell pair cut-off parameter TPreSel        ...   2.5e-12
Total number of shell pairs                 ...    193753
Shell pairs after pre-screening             ...    119023
Total number of primitive shell pairs       ...    584784
Primitive shell pairs kept                  ...    224611
          la=0 lb=0:  33034 shell pairs
          la=1 lb=0:  35430 shell pairs
          la=1 lb=1:   9621 shell pairs
          la=2 lb=0:  16157 shell pairs
          la=2 lb=1:   8934 shell pairs
          la=2 lb=2:   2053 shell pairs
          la=3 lb=0:   7389 shell pairs
          la=3 lb=1:   4141 shell pairs
          la=3 lb=2:   1828 shell pairs
          la=3 lb=3:    436 shell pairs

Checking whether 4 symmetric matrices of dimension 1542 fit in memory
:Max Core in MB      =   6000.00
 MB in use           =    142.58
 MB left             =   5857.42
 MB needed           =     36.31
 Data fit in memory  = YES
Calculating RI/J V-Matrix + Cholesky decomp.... done (  4.9 sec)
Calculating Nuclear repulsion               ... done (  0.0 sec) ENN=   5863.945056558665 Eh

Diagonalization of the overlap matrix:
Smallest eigenvalue                        ... 2.717e-06
Time for diagonalization                   ...   20.163 sec
Threshold for overlap eigenvalues          ... 1.000e-07
Number of eigenvalues below threshold      ... 0
Time for construction of square roots      ...    2.188 sec
Total time needed                          ...   22.626 sec

-------------------
DFT GRID GENERATION
-------------------

General Integration Accuracy     IntAcc      ... 4.388
Radial Grid Type                 RadialGrid  ... OptM3 with GC (2021)
Angular Grid (max. ang.)         AngularGrid ... 4 (Lebedev-302)
Angular grid pruning method      GridPruning ... 4 (adaptive)
Weight generation scheme         WeightScheme... mBecke (2022)
Basis function cutoff            BFCut       ... 1.0000e-11
Integration weight cutoff        WCut        ... 1.0000e-14
Partially contracted basis set               ... off
Rotationally invariant grid construction     ... off
Angular grids for H and He will be reduced by one unit

Total number of grid points                  ...   373219
Total number of batches                      ...     5873
Average number of points per batch           ...       63
Average number of grid points per atom       ...     4551

--------------------
COSX GRID GENERATION
--------------------

GRIDX 1
-------
General Integration Accuracy     IntAcc      ... 3.816
Radial Grid Type                 RadialGrid  ... OptM3 with GC (2021)
Angular Grid (max. ang.)         AngularGrid ... 1 (Lebedev-50)
Angular grid pruning method      GridPruning ... 4 (adaptive)
Weight generation scheme         WeightScheme... mBecke (2022)
Basis function cutoff            BFCut       ... 1.0000e-11
Integration weight cutoff        WCut        ... 1.0000e-14
Partially contracted basis set               ... on
Rotationally invariant grid construction     ... off
Angular grids for H and He will be reduced by one unit

Total number of grid points                  ...    47210
Total number of batches                      ...      412
Average number of points per batch           ...      114
Average number of grid points per atom       ...      576
UseSFitting                                  ... on

GRIDX 2
-------
General Integration Accuracy     IntAcc      ... 4.020
Radial Grid Type                 RadialGrid  ... OptM3 with GC (2021)
Angular Grid (max. ang.)         AngularGrid ... 2 (Lebedev-110)
Angular grid pruning method      GridPruning ... 4 (adaptive)
Weight generation scheme         WeightScheme... mBecke (2022)
Basis function cutoff            BFCut       ... 1.0000e-11
[...]
freq.     656.59  E(vib)   ...       0.08 
freq.     676.95  E(vib)   ...       0.08 
freq.     690.01  E(vib)   ...       0.07 
freq.     729.45  E(vib)   ...       0.06 
freq.     729.64  E(vib)   ...       0.06 
freq.     737.04  E(vib)   ...       0.06 
freq.     747.56  E(vib)   ...       0.06 
freq.     758.09  E(vib)   ...       0.06 
freq.     761.11  E(vib)   ...       0.06 
freq.     779.16  E(vib)   ...       0.05 
freq.     792.46  E(vib)   ...       0.05 
freq.     800.17  E(vib)   ...       0.05 
freq.     809.76  E(vib)   ...       0.05 
freq.     814.43  E(vib)   ...       0.05 
freq.     838.08  E(vib)   ...       0.04 
freq.     848.94  E(vib)   ...       0.04 
freq.     849.92  E(vib)   ...       0.04 
freq.     857.68  E(vib)   ...       0.04 
freq.     872.59  E(vib)   ...       0.04 
freq.     882.14  E(vib)   ...       0.04 
freq.     897.56  E(vib)   ...       0.03 
freq.     900.87  E(vib)   ...       0.03 
freq.     913.43  E(vib)   ...       0.03 
freq.     918.06  E(vib)   ...       0.03 
freq.     927.97  E(vib)   ...       0.03 
freq.     934.53  E(vib)   ...       0.03 
freq.     946.67  E(vib)   ...       0.03 
freq.     956.46  E(vib)   ...       0.03 
freq.     960.50  E(vib)   ...       0.03 
freq.     964.78  E(vib)   ...       0.03 
freq.     967.81  E(vib)   ...       0.03 
freq.     990.94  E(vib)   ...       0.02 
freq.    1007.46  E(vib)   ...       0.02 
freq.    1027.75  E(vib)   ...       0.02 
freq.    1034.97  E(vib)   ...       0.02 
freq.    1047.67  E(vib)   ...       0.02 
freq.    1050.53  E(vib)   ...       0.02 
freq.    1054.15  E(vib)   ...       0.02 
freq.    1058.70  E(vib)   ...       0.02 
freq.    1064.26  E(vib)   ...       0.02 
freq.    1070.25  E(vib)   ...       0.02 
freq.    1101.70  E(vib)   ...       0.02 
freq.    1112.61  E(vib)   ...       0.01 
freq.    1115.99  E(vib)   ...       0.01 
freq.    1128.58  E(vib)   ...       0.01 
freq.    1142.09  E(vib)   ...       0.01 
freq.    1142.86  E(vib)   ...       0.01 
freq.    1144.53  E(vib)   ...       0.01 
freq.    1165.22  E(vib)   ...       0.01 
freq.    1171.42  E(vib)   ...       0.01 
freq.    1171.65  E(vib)   ...       0.01 
freq.    1172.52  E(vib)   ...       0.01 
freq.    1174.36  E(vib)   ...       0.01 
freq.    1176.12  E(vib)   ...       0.01 
freq.    1179.34  E(vib)   ...       0.01 
freq.    1194.58  E(vib)   ...       0.01 
freq.    1202.86  E(vib)   ...       0.01 
freq.    1206.64  E(vib)   ...       0.01 
freq.    1207.67  E(vib)   ...       0.01 
freq.    1213.60  E(vib)   ...       0.01 
freq.    1218.69  E(vib)   ...       0.01 
freq.    1219.57  E(vib)   ...       0.01 
freq.    1225.69  E(vib)   ...       0.01 
freq.    1229.05  E(vib)   ...       0.01 
freq.    1237.99  E(vib)   ...       0.01 
freq.    1241.42  E(vib)   ...       0.01 
freq.    1247.09  E(vib)   ...       0.01 
freq.    1252.80  E(vib)   ...       0.01 
freq.    1260.45  E(vib)   ...       0.01 
freq.    1273.09  E(vib)   ...       0.01 
freq.    1277.29  E(vib)   ...       0.01 
freq.    1290.26  E(vib)   ...       0.01 
freq.    1291.87  E(vib)   ...       0.01 
freq.    1292.67  E(vib)   ...       0.01 
freq.    1297.57  E(vib)   ...       0.01 
freq.    1312.55  E(vib)   ...       0.01 
freq.    1324.78  E(vib)   ...       0.01 
freq.    1328.51  E(vib)   ...       0.01 
freq.    1341.34  E(vib)   ...       0.01 
freq.    1347.34  E(vib)   ...       0.01 
freq.    1347.67  E(vib)   ...       0.01 
freq.    1360.06  E(vib)   ...       0.01 
freq.    1361.03  E(vib)   ...       0.01 
freq.    1367.38  E(vib)   ...       0.01 
freq.    1370.54  E(vib)   ...       0.01 
freq.    1382.96  E(vib)   ...       0.01 
freq.    1394.58  E(vib)   ...       0.00 
freq.    1399.27  E(vib)   ...       0.00 
freq.    1400.90  E(vib)   ...       0.00 
freq.    1410.73  E(vib)   ...       0.00 
freq.    1411.09  E(vib)   ...       0.00 
freq.    1422.60  E(vib)   ...       0.00 
freq.    1425.86  E(vib)   ...       0.00 
freq.    1437.19  E(vib)   ...       0.00 
freq.    1452.55  E(vib)   ...       0.00 
freq.    1456.30  E(vib)   ...       0.00 
freq.    1457.94  E(vib)   ...       0.00 
freq.    1461.18  E(vib)   ...       0.00 
freq.    1473.28  E(vib)   ...       0.00 
freq.    1478.48  E(vib)   ...       0.00 
freq.    1479.49  E(vib)   ...       0.00 
freq.    1479.76  E(vib)   ...       0.00 
freq.    1481.20  E(vib)   ...       0.00 
freq.    1482.10  E(vib)   ...       0.00 
freq.    1483.14  E(vib)   ...       0.00 
freq.    1485.09  E(vib)   ...       0.00 
freq.    1486.16  E(vib)   ...       0.00 
freq.    1488.68  E(vib)   ...       0.00 
freq.    1489.09  E(vib)   ...       0.00 
freq.    1491.48  E(vib)   ...       0.00 
freq.    1493.72  E(vib)   ...       0.00 
freq.    1494.14  E(vib)   ...       0.00 
freq.    1494.66  E(vib)   ...       0.00 
freq.    1497.03  E(vib)   ...       0.00 
freq.    1511.96  E(vib)   ...       0.00 
freq.    1535.37  E(vib)   ...       0.00 
freq.    1542.42  E(vib)   ...       0.00 
freq.    1547.14  E(vib)   ...       0.00 
freq.    1627.06  E(vib)   ...       0.00 
freq.    1635.14  E(vib)   ...       0.00 
freq.    1641.75  E(vib)   ...       0.00 
freq.    1647.59  E(vib)   ...       0.00 
freq.    1651.14  E(vib)   ...       0.00 
freq.    1652.35  E(vib)   ...       0.00 
freq.    2987.30  E(vib)   ...       0.00 
freq.    3004.78  E(vib)   ...       0.00 
freq.    3020.73  E(vib)   ...       0.00 
freq.    3022.61  E(vib)   ...       0.00 
freq.    3026.54  E(vib)   ...       0.00 
freq.    3026.82  E(vib)   ...       0.00 
freq.    3027.28  E(vib)   ...       0.00 
freq.    3027.70  E(vib)   ...       0.00 
freq.    3028.15  E(vib)   ...       0.00 
freq.    3030.95  E(vib)   ...       0.00 
freq.    3044.46  E(vib)   ...       0.00 
freq.    3059.57  E(vib)   ...       0.00 
freq.    3061.56  E(vib)   ...       0.00 
freq.    3067.86  E(vib)   ...       0.00 
freq.    3072.86  E(vib)   ...       0.00 
freq.    3089.29  E(vib)   ...       0.00 
freq.    3089.52  E(vib)   ...       0.00 
freq.    3090.41  E(vib)   ...       0.00 
freq.    3092.60  E(vib)   ...       0.00 
freq.    3094.55  E(vib)   ...       0.00 
freq.    3097.78  E(vib)   ...       0.00 
freq.    3101.49  E(vib)   ...       0.00 
freq.    3140.57  E(vib)   ...       0.00 
freq.    3142.39  E(vib)   ...       0.00 
freq.    3143.12  E(vib)   ...       0.00 
freq.    3155.36  E(vib)   ...       0.00 
freq.    3167.86  E(vib)   ...       0.00 
freq.    3187.80  E(vib)   ...       0.00 
freq.    3189.82  E(vib)   ...       0.00 
freq.    3206.31  E(vib)   ...       0.00 
freq.    3207.03  E(vib)   ...       0.00 
freq.    3209.96  E(vib)   ...       0.00 
freq.    3211.77  E(vib)   ...       0.00 
freq.    3211.79  E(vib)   ...       0.00 
freq.    3528.68  E(vib)   ...       0.00 
freq.    3598.93  E(vib)   ...       0.00 
freq.    3609.86  E(vib)   ...       0.00 
freq.    3632.54  E(vib)   ...       0.00 
freq.    3725.43  E(vib)   ...       0.00 
freq.    3762.06  E(vib)   ...       0.00 

------------
INNER ENERGY
------------

The inner energy is: U= E(el) + E(ZPE) + E(vib) + E(rot) + E(trans)
    E(el)   - is the total energy from the electronic structure calculation
              = E(kin-el) + E(nuc-el) + E(el-el) + E(nuc-nuc)
    E(ZPE)  - the the zero temperature vibrational energy from the frequency calculation
    E(vib)  - the the finite temperature correction to E(ZPE) due to population
              of excited vibrational states
    E(rot)  - is the rotational thermal energy
    E(trans)- is the translational thermal energy

Summary of contributions to the inner energy U:
Electronic energy                ...  -2032.63723717 Eh
Zero point energy                ...      0.68119762 Eh     427.46 kcal/mol
Thermal vibrational correction   ...      0.03909735 Eh      24.53 kcal/mol
Thermal rotational correction    ...      0.00141627 Eh       0.89 kcal/mol
Thermal translational correction ...      0.00141627 Eh       0.89 kcal/mol
-----------------------------------------------------------------------
Total thermal energy                  -2031.91410966 Eh


Summary of corrections to the electronic energy:
(perhaps to be used in another calculation)
Total thermal correction                  0.04192990 Eh      26.31 kcal/mol
Non-thermal (ZPE) correction              0.68119762 Eh     427.46 kcal/mol
-----------------------------------------------------------------------
Total correction                          0.72312751 Eh     453.77 kcal/mol


--------
ENTHALPY
--------

The enthalpy is H = U + kB*T
                kB is Boltzmann's constant
Total thermal energy              ...  -2031.91410966 Eh 
Thermal Enthalpy correction       ...      0.00094421 Eh       0.59 kcal/mol
-----------------------------------------------------------------------
Total Enthalpy                    ...  -2031.91316545 Eh


Note: Only C1 symmetry has been detected, increase convergence thresholds 
      if your molecule has a higher symmetry. Symmetry factor of 1.0 is   
      used for the rotational entropy correction. 
 

Note: Rotational entropy computed according to Herzberg 
Infrared and Raman Spectra, Chapter V,1, Van Nostrand Reinhold, 1945 
Point Group:  C1, Symmetry Number:   1  
Rotational constants in cm-1:     0.004304     0.002293     0.001987 

Vibrational entropy computed according to the QRRHO of S. Grimme
Chem.Eur.J. 2012 18 9955 using a reference frequency of 100.0 cm-1


-------
ENTROPY
-------

The entropy contributions are T*S = T*(S(el)+S(vib)+S(rot)+S(trans))
     S(el)   - electronic entropy
     S(vib)  - vibrational entropy
     S(rot)  - rotational entropy
     S(trans)- translational entropy
The entropies will be listed as multiplied by the temperature to get
units of energy

Electronic entropy                ...      0.00000000 Eh      0.00 kcal/mol
Vibrational entropy               ...      0.06907178 Eh     43.34 kcal/mol
Rotational entropy                ...      0.01788898 Eh     11.23 kcal/mol
Translational entropy             ...      0.02138181 Eh     13.42 kcal/mol
-----------------------------------------------------------------------
Final entropy term                ...      0.10834258 Eh     67.99 kcal/mol

In case the symmetry of your molecule has not been determined correctly
or in case you have a reason to use a different symmetry number we print 
out the resulting rotational entropy values for sn=1,12:

 non-linear molecules -----------------------------------
|  sn= 1 | S(rot)=       0.01788898 Eh     11.23 kcal/mol|
|  sn= 2 | S(rot)=       0.01723453 Eh     10.81 kcal/mol|
|  sn= 3 | S(rot)=       0.01685170 Eh     10.57 kcal/mol|
|  sn= 4 | S(rot)=       0.01658007 Eh     10.40 kcal/mol|
|  sn= 5 | S(rot)=       0.01636938 Eh     10.27 kcal/mol|
|  sn= 6 | S(rot)=       0.01619724 Eh     10.16 kcal/mol|
|  sn= 7 | S(rot)=       0.01605169 Eh     10.07 kcal/mol|
|  sn= 8 | S(rot)=       0.01592562 Eh      9.99 kcal/mol|
|  sn= 9 | S(rot)=       0.01581441 Eh      9.92 kcal/mol|
|  sn=10 | S(rot)=       0.01571493 Eh      9.86 kcal/mol|
|  sn=11 | S(rot)=       0.01562494 Eh      9.80 kcal/mol|
|  sn=12 | S(rot)=       0.01554278 Eh      9.75 kcal/mol|
 linear molecules ---------------------------------------
|  Dinfh | S(rot)=       0.01119948 Eh      7.03 kcal/mol|
|  Cinfv | S(rot)=       0.01185393 Eh      7.44 kcal/mol|
 --------------------------------------------------------


-------------------
GIBBS FREE ENERGY
-------------------

The Gibbs free energy is G = H - T*S

Total enthalpy                    ...  -2031.91316545 Eh 
Total entropy correction          ...     -0.10834258 Eh    -67.99 kcal/mol
-----------------------------------------------------------------------
Final Gibbs free energy         ...  -2032.02150803 Eh

For completeness - the Gibbs free energy minus the electronic energy
G-E(el)                           ...      0.61572914 Eh    386.38 kcal/mol


Maximum memory used throughout the entire PROP-calculation: 1828.4 MB
--------------------------------------------------------------------------
WARNING: There was an error initializing an OpenFabrics device.

  Local host:   c02b01n07
  Local device: mlx5_0
--------------------------------------------------------------------------
--------------------------------------------------------------------------
WARNING: There is at least one non-excluded one OpenFabrics device found,
but there are no active ports detected (or Open MPI was unable to use
them).  This is most certainly not what you wanted.  Check your
cables, subnet manager configuration, etc.  The openib BTL will be
ignored for this job.

  Local host: c02b01n07
--------------------------------------------------------------------------
[c02b01n07:2925115] 58 more processes have sent help message help-mpi-btl-openib.txt / error in device init
[c02b01n07:2925115] Set MCA parameter "orte_base_help_aggregate" to 0 to see all help / error messages
[c02b01n07:2925115] 4 more processes have sent help message help-mpi-btl-openib.txt / no active ports found

--------------------------------
SUGGESTED CITATIONS FOR THIS RUN
--------------------------------

Below you find a list of papers that are relevant to this ORCA run
We neither can nor want to force you to cite these papers, but we appreciate if you do
You receive ORCA, which is the product of decades of hard work by many enthusiastic individuals, for free
The only thing we kindly ask in return is that you cite our papers,
We deeply appreciate it, if you show your appreciation for ORCA by not just citing the generic ORCA reference.

Please note that relegating all ORCA citations to the supporting information does *not* help us.
SI sections are not indexed - citations you put there will not count into any citation statistics
But we need these citations in order to attract the funding resources that allow us to do what we are doing

Therefore, if you are a happy ORCA user, please consider citing a few of the papers listed below in the main body of your paper

In addition to the list printed below, the program has created the file opt-conf-1.bibtex that contains the list in bibtex format
You can import this file easily into all common literature databanks and citation aid programs


List of essential papers. We consider these as the minimum necessary citations

  1. Neese, F.
     Software update: the ORCA program system, version 6.0
     WIRES Comput. Molec. Sci. 2025 15(1), e70019
     doi.org/10.1002/wcms.7019

List of papers to cite with high priority. The work reported in these papers was absolutely
necessary for this run to complete.
Our perspective: the developers of density functionals and basis sets usually get cited in chemistry papers
Good! But without the algorithms to do something with them, the functionals or basis sets would not do anything.
Hence, in our opinion, the algorithm design and method developments papers are equally worthy of getting cited

  1. Neese, F.
     An improvement of the resolution of the identity approximation for the formation of the Coulomb matrix
     J. Comp. Chem. 2003 24(14), 1740-1747
     doi.org/10.1002/jcc.10318
  2. Neese, F.; Wennmohs, F.; Hansen, A.; Becker, U.
     Efficient, approximate and parallel Hartree-Fock and hybrid DFT calculations. A 'chain-of-spheres' algorithm for the Hartree-Fock exchange
     Chem. Phys. 2009 356(1-3), 98-109
     doi.org/10.1016/j.chemphys.2008.10.036
  3. Bykov, D.; Petrenko, T.; Izsak, R.; Kossmann, S.; Becker, U.; Valeev, E.; Neese, F.
     Efficient implementation of the analytic second derivatives of Hartree-Fock and hybrid DFT energies: a detailed analysis of different approximations
     Molec. Phys. 2015 113 , 1961-1977
     doi.org/10.1080/00268976.2015.1025114
  4. Caldeweyher, E.; Bannwarth, C.; Grimme, S.
     Extension of the D3 dispersion coefficient model
     J. Chem. Phys. 2017 147 , 034112
     doi.org/10.1063/1.4993215
  5. Caldeweyher, E.; Ehlert, S.; Hansen, A.; Neugebauer, H.; Spicher, S.; Bannwarth, C.; Grimme, S.
     A generally applicable atomic-charge dependent London dispersion correction
     J. Chem. Phys. 2019 150 , 154122
     doi.org/10.1063/1.5090222
  6. Garcia-Rates, M.; Neese, F.
     Efficient implementation of the analytical second derivatives of hartree-fock and hybrid DFT energies within the framework of the conductor-like polarizable continuum model
     J. Comput. Chem. 2019 40 , 1816-1828
     doi.org/10.1002/jcc.25833
  7. Caldeweyher, E.; Mewes, J.; Ehlert, S.; Grimme, S.
     Extension and evaluation of the D4 London-dispersion model for periodic systems
     Phys. Chem. Chem. Phys. 2020 22(16), 8499-8512
     doi.org/10.1039/D0CP00502A
  8. Garcia-Rates, M.; Neese, F.
     Effect of the Solute Cavity on the Solvation Energy and its Derivatives within the Framework of the Gaussian Charge Scheme
     J. Comput. Chem. 2020 41 , 922-939
     doi.org/10.1002/jcc.26139
  9. Helmich-Paris, B.; de Souza, B.; Neese, F.; Izsák, R.
     An improved chain of spheres for exchange algorithm
     J. Chem. Phys. 2021 155(10), 104109
     doi.org/10.1063/5.0058766
 10. Neese, F.
     The SHARK Integral Generation and Digestion System
     J. Comp. Chem. 2022 44(3), 381
     doi.org/10.1002/jcc.26942
 11. Wittmann, L.; Gordiy, I.; Friede, M.; Helmich-Paris, B.; Grimme, S.; Hansen, A.; Bursch, M.
     Extension of the D3 and D4 London Dispersion Corrections to the full Actinides Series
     Phys. Chem. Chem. Phys. 2024 26(32), 21379-21394
     doi.org/10.1039/D4CP01514B

List of suggested additional citations. These are papers that are important in the 'surrounding' of 
of this run, or papers that preceded the highly important papers. If you like your results we are grateful for a citation.

  1. Izsak, R.; Neese, F.
     An overlap fitted chain of spheres exchange method
     J. Chem. Phys. 2011 135 , 144105
     doi.org/10.1063/1.3646921
  2. Izsak, R.; Hansen, A.; Neese, F.
     The resolution of identity and chain of spheres approximations for the LPNO-CCSD singles Fock term
     Molec. Phys. 2012 110 , 2413-2417
     doi.org/10.1080/00268976.2012.687466
  3. Neese, F.
     The ORCA program system
     WIRES Comput. Molec. Sci. 2012 2(1), 73-78
     doi.org/10.1002/wcms.81
  4. Izsak, R.; Neese, F.; Klopper, W.
     Robust fitting techniques in the chain of spheres approximation to the Fock exchange: The role of the complementary space
     J. Chem. Phys. 2013 139 , 
     doi.org/10.1063/1.4819264
  5. Neese, F.
     Software update: the ORCA program system, version 4.0
     WIRES Comput. Molec. Sci. 2018 8(1), 1-6
     doi.org/10.1002/wcms.1327
  6. Neese, F.; Wennmohs, F.; Becker, U.; Riplinger, C.
     The ORCA quantum chemistry program package
     J. Chem. Phys. 2020 152(22), 224108
     doi.org/10.1063/5.0004608
  7. Neese, F.
     Software update: The ORCA program system—Version 5.0
     WIRES Comput. Molec. Sci. 2022 12(1), e1606
     doi.org/10.1002/wcms.1606

List of optional additional citations

  1. Neese, F.
     Approximate second-order SCF convergence for spin unrestricted wavefunctions
     Chem. Phys. Lett. 2000 325(1-3), 93-98
     doi.org/10.1016/s0009-2614(00)00662-x

Timings for individual modules:

Sum of individual times          ...    17422.884 sec (= 290.381 min)
Startup calculation              ...     1549.758 sec (=  25.829 min)   8.9 %
SCF iterations                   ...     9499.470 sec (= 158.324 min)  54.5 %
Property integrals               ...     1522.612 sec (=  25.377 min)   8.7 %
SCF Response                     ...     3202.486 sec (=  53.375 min)  18.4 %
Property calculations            ...      682.813 sec (=  11.380 min)   3.9 %
SCF Gradient evaluation          ...      955.527 sec (=  15.925 min)   5.5 %
Geometry relaxation              ...       10.219 sec (=   0.170 min)   0.1 %
                             ****ORCA TERMINATED NORMALLY****
TOTAL RUN TIME: 0 days 4 hours 56 minutes 23 seconds 887 msec
