
                                 *****************
                                 * O   R   C   A *
                                 *****************

                                            #,                                       
                                            ###                                      
                                            ####                                     
                                            #####                                    
                                            ######                                   
                                           ########,                                 
                                     ,,################,,,,,                         
                               ,,#################################,,                 
                          ,,##########################################,,             
                       ,#########################################, ''#####,          
                    ,#############################################,,   '####,        
                  ,##################################################,,,,####,       
                ,###########''''           ''''###############################       
              ,#####''   ,,,,##########,,,,          '''####'''          '####       
            ,##' ,,,,###########################,,,                        '##       
           ' ,,###''''                  '''############,,,                           
         ,,##''                                '''############,,,,        ,,,,,,###''
      ,#''                                            '''#######################'''  
     '                                                          ''''####''''         
             ,#######,   #######,   ,#######,      ##                                
            ,#'     '#,  ##    ##  ,#'     '#,    #''#        ,####,    ,#,          
            ##       ##  ##   ,#'  ##            #'  '#       #'       ,# #          
            ##       ##  #######   ##           ,######,      #####,      #          
            '#,     ,#'  ##    ##  '#,     ,#' ,#      #,     #,   #      #          
             '#######'   ##     ##  '#######'  #'      '#     '####' #    #          



                #########################################################
                #                        -***-                          #
                #          Department of theory and spectroscopy        #
                #                                                       #
                #                      Frank Neese                      #
                #                                                       #
                #     Directorship, Architecture, Infrastructure        #
                #                    SHARK, DRIVERS                     #
                #        Core code/Algorithms in most modules           #
                #                                                       #
                #        Max Planck Institute fuer Kohlenforschung      #
                #                Kaiser Wilhelm Platz 1                 #
                #                 D-45470 Muelheim/Ruhr                 #
                #                      Germany                          #
                #                                                       #
                #                  All rights reserved                  #
                #                        -***-                          #
                #########################################################


                         Program Version 6.1.0-f.0  -   RELEASE   -


 With contributions from (in alphabetic order):
[Max-Planck-Institut fuer Kohlenforschung]                               
  Daniel Aravena         : Magnetic Suceptibility                        
  Michael Atanasov       : Ab Initio Ligand Field Theory (pilot matlab implementation)
  Alexander A. Auer      : GIAO ZORA, VPT2 properties, NMR spectrum      
  Ute Becker             : All parallelization in ORCA, NUMFREQ, NUMCALC 
  Giovanni Bistoni       : ED, misc. LED, open-shell LED, HFLD           
  Dmytro Bykov           : pre 5.0 version of the SCF Hessian            
  Marcos Casanova-Páez   : Triplet and SCS-CIS(D). UHF-(DLPNO)-IP/EA/STEOM-CCSD. UHF-CVS-IP/STEOM-CCSD   
  Vijay G. Chilkuri      : MRCI spin determinant printing, contributions to CSF-ICE 
  Pauline Colinet        : FMM embedding                                 
  Dipayan Datta          : RHF DLPNO-CCSD density                        
  Achintya Kumar Dutta   : EOM-CC, STEOM-CC                              
  Nicolas Foglia         : Exact transition moments, OPA infrastructure, MCD improvements    
  Dmitry Ganyushin       : Spin-Orbit,Spin-Spin,Magnetic field MRCI      
  Miquel Garcia-Rates    : C-PCM and meta-GGA Hessian, CCSD/C-PCM, Gaussian charge scheme 
  Tiago L. C. Gouveia    : GS-ROHF, GS-ROCIS                             
  Yang Guo               : DLPNO-NEVPT2, F12-NEVPT2, CIM, IAO-localization        
  Andreas Hansen         : Spin unrestricted coupled pair/coupled cluster methods 
  Ingolf Harden          : AUTO-CI MPn and infrastructure                
  Benjamin Helmich-Paris : MC-RPA, TRAH-(SCF,CASSCF), AVAS, COSX integrals, SCF dyn. polar., MC-PDFT, srDFT 
  Lee Huntington         : MR-EOM, pCC                                   
  Robert Izsak           : Overlap fitted RIJCOSX, COSX-SCS-MP3, EOM     
  Riya Kayal             : Wick's Theorem for AUTO-CI, AUTO-CI UHF-CCSDT 
  Emily Kempfer          : AUTO-CI RHF CISDT and CCSDT, approximate NEVPT4
  Christian Kollmar      : KDIIS, OOCD, Brueckner-CCSD(T), CCSD density, CASPT2, CASPT2-K, improved NEVPT2 
  Axel Koslowski         : Symmetry handling                             
  Simone Kossmann        : meta-GGA functionals, TD-DFT gradient, OOMP2, (MP2 Hessian; deprecated post 5.0) 
  Lucas Lang             : DCDCAS, Hyperfine gauge corrections, ICE-SOC+SSC
  Marvin Lechner         : AUTO-CI (C++ implementation), FIC-MRCC        
  Spencer Leger          : CASSCF response                               
  Dagmar Lenk            : GEPOL surface, SMD, ORCA-2-JSON               
  Dimitrios Liakos       : Extrapolation schemes; Compound Job, Property file
  Dimitrios Manganas     : Further ROCIS development; embedding schemes. LFT, Crystal Embedding 
  Dimitrios Pantazis     : SARC Basis sets                               
  Anastasios Papadopoulos: AUTO-CI, single reference methods and gradients 
  Taras Petrenko         : pre 6.0 DFT Hessian and TD-DFT gradient,  ECA, NRVS 
  Petra Pikulova         : Analytic Raman intensities                    
  Peter Pinski           : DLPNO-MP2, DLPNO-MP2 Gradient                 
  Shashank Vittal Rao    : ES-AILFT, MagRelax                            
  Christoph Reimann      : Effective Core Potentials                     
  Marius Retegan         : Local ZFS, SOC                                
  Christoph Riplinger    : Optimizer, TS searches, QM/MM, DLPNO-CCSD(T), (RO)-DLPNO pert. Triples 
  Michael Roemelt        : Original ROCIS implementation, recursive CI coupling coefficients
  Masaaki Saitow         : Open-shell DLPNO-CCSD energy and density      
  Barbara Sandhoefer     : DKH picture change effects                    
  Yorick L. A. Schmerwitz: GMF and freeze-and-release deltaSCF, NEB S-IDPP initial path                    
  Kantharuban Sivalingam : CASSCF convergence/infrastructure, NEVPT2, NEVPT3, NEVPT4(SD), FIC-MRCI and CEPA variants
  Bernardo de Souza      : ESD, SOC TD-DFT                               
  Georgi L. Stoychev     : AutoAux, RI-MP2 NMR, DLPNO-MP2 response, X2C  
  Van Anh Tran           : RI-MP2 g-tensors                              
  Willem Van den Heuvel  : Paramagnetic NMR                              
  Zikuan Wang            : NOTCH, Electric field optimization            
  Frank Wennmohs         : Technical directorship and infrastructure     
  Hang Xu                : AUTO-CI-Response properties                   
                                                                         
[FACCTs GmbH]                                                            
  Markus Bursch, Nicolas Foglia, Miquel Garcia-Rates, Ingolf Harden, Hagen Neugebauer, Anastasios Papadopoulos, 
  Christoph Riplinger, Bernardo de Souza, Georgi L. Stoychev                                                    
                                                                 
  APM, various basis sets, CI-OPT, improved COSX, DLPNO-Multilevel,           
  DOCKER, DRACO, updates on ESD, Fragmentator, GOAT, IRC, LR-CPCM, L-BFGS, MBIS, meta-GGA TD-DFT gradient, ML-optimized integration grids, 
  MM, NACMEs, nearIR, NEB, NEB-TS, NL-DFT gradient (VV10), 2- and 3-layer-ONIOM, interface openCOSMO-RS, QMMM,   
  Crystal-QMMM, RESP, rigid body optimization, SF, symmetry and pop. for TD-DFT, various functionals, SOLVATOR                                   
                                                                         
[Other institutions]                                                     
  V. Asgeirsson          : NEB                                           
  Christoph Bannwarth    : sTDA-DFT, sTD-DFT, PBEh-3c, B97-3c, D3        
  Giovanni Bistoni       : ETS/NOCV, ADLD/ADEX, COVALED                  
  Martin Brehm           : Molecular dynamics                            
  Ronald Cardenas        : ETS/NOCV                                      
  Martina Colucci        : COVALED                                       
  Sebastian Ehlert       : rSCAN, r2SCAN, r2SCAN-3c, D4, dhf basis sets  
  Marvin Friede          : D4 for Fr, Ra, Ac-Lr                          
  Lars Goerigk           : TD-DFT with DH, B97 family of functionals     
  Stefan Grimme          : VdW corrections, initial TS optimization, DFT functionals, gCP, sTDA/sTD-DF 
  Waldemar Hujo          : DFT-NL                                        
  H. Jonsson             : NEB                                           
  Holger Kruse           : gCP                                           
  Marcel Mueller         : wB97X-3c, vDZP basis set                      
  Hagen Neugebauer       : wr2SCAN, Native XTB                           
  Gianluca Regni         : ADLD/ADEX                                     
  Tobias Risthaus        : pre 6.0 range-separated hybrid DFT and stability analysis
  Lukas Wittmann         : regularized MP2, r2SCAN double-hybrids, wr2SCAN        
                                                                         
We gratefully acknowledge several colleagues who have allowed us to      
interface, adapt or use parts of their codes:                            
  Ed Valeev, F. Pavosevic, A. Kumar             : LibInt (2-el integral package), F12 methods 
  Garnet Chan, S. Sharma, J. Yang, R. Olivares  : DMRG                   
  Ulf Ekstrom                                   : XCFun DFT Library      
  Mihaly Kallay                                 : mrcc  (arbitrary order and MRCC methods)
  Frank Weinhold                                : gennbo (NPA and NBO analysis)           
  Simon Mueller                                 : openCOSMO-RS                            
  Christopher J. Cramer and Donald G. Truhlar   : smd solvation model                     
  S Lehtola, MJT Oliveira, MAL Marques          : LibXC Library                           
  Liviu Ungur et al                             : ANISO software                          


 Your calculation uses the libint2 library for the computation of 2-el integrals
 For citations please refer to: http://libint.valeyev.net

 Your ORCA version has been built with support for libXC version: 7.0.0
 For citations please refer to: https://libxc.gitlab.io

 This ORCA versions uses:
   CBLAS   interface :  Fast vector & matrix operations
   LAPACKE interface :  Fast linear algebra routines
   SCALAPACK package :  Parallel linear algebra routines
   Shared memory     :  Shared parallel matrices
   BLAS/LAPACK       :  OpenBLAS 0.3.29  USE64BITINT DYNAMIC_ARCH NO_AFFINITY Cooperlake SINGLE_THREADED
        Core in use  :  Cooperlake
   Copyright (c) 2011-2014, The OpenBLAS Project


  ***********************************
  * Starting time: Tue Mar  3 23:14:46 2026
  * Host name:     c08b01n07
  * Process ID:    2587751
  * Working dir.:  /lustre1/jiangy/jiangy_liuxy/NMR/B9D7C2-SSRR
  ***********************************

NOTE: MaxCore=6000 MB was set to SCF,MP2,MDCI,CIPSI,MRCI,RASCI and CIS
      => If you want to overwrite this, your respective input block should be placed after the MaxCore statement


***************************************
The coordinates will be read from file: conf-0.xyz
***************************************


Your calculation utilizes the atom-pairwise dispersion correction
based on EEQ partial charges (D4)


Warning: RI is on but no J-basis has been assigned. Assigning Def2/J (nothing to worry about!)
================================================================================

----- Orbital basis set information -----
Your calculation utilizes the basis: def2-TZVP
   F. Weigend and R. Ahlrichs, Phys. Chem. Chem. Phys. 7, 3297 (2005).

----- AuxJ basis set information -----
Your calculation utilizes the auxiliary basis: def2/J
   H-Rn: F. Weigend, Phys. Chem. Chem. Phys. 8, 1057 (2006).
   Fr-Lr: K. Eichkorn, F. Weigend, O. Treutler, R. Ahlrichs; Theor. Chem. Acc. 97, 119 (1997).

================================================================================
                                        WARNINGS
                       Please study these warnings very carefully!
================================================================================


WARNING: Geometry Optimization
  ===> : Switching off AutoStart
         For restart on a previous wavefunction, please use MOREAD

================================================================================
                                       INPUT FILE
================================================================================
NAME = opt-conf-0.inp
|  1> ! B3LYP OPT FREQ DEF2-TZVP D4 CPCM(Methanol) 
|  2> ! TightOpt
|  3> %pal nprocs 64 end
|  4> %maxcore 6000
|  5> 
|  6> %cpcm
|  7> end
|  8> 
|  9> %freq
| 10>    Temp 298.15
| 11> end
| 12> 
| 13> * xyzfile 0 1 conf-0.xyz
| 14> 
| 15> 
| 16>                          ****END OF INPUT****
================================================================================

                       *****************************
                       * Geometry Optimization Run *
                       *****************************

Geometry optimization settings:
Update method            Update   .... BFGS
Choice of coordinates    CoordSys .... (2022) Redundant Internals
Initial Hessian          InHess   .... Almloef's Model
Max. no of cycles        MaxIter  .... 246

Convergence Tolerances:
Energy Change            TolE     ....  1.0000e-06 Eh
Max. Gradient            TolMAXG  ....  1.0000e-04 Eh/bohr
RMS Gradient             TolRMSG  ....  3.0000e-05 Eh/bohr
Max. Displacement        TolMAXD  ....  1.0000e-03 bohr
RMS Displacement         TolRMSD  ....  6.0000e-04 bohr
Strict Convergence                .... False

------------------------------------------------------------------------------
                        ORCA OPTIMIZATION COORDINATE SETUP
------------------------------------------------------------------------------

The optimization will be done in redundant internal coordinates (2022)
Making redundant internal coordinates   ...  (2022 redundants) done
Evaluating the initial hessian          ...  (Almloef) done
Evaluating the coordinates              ...  done
Calculating the B-matrix                .... done
Calculating the G-matrix                .... done
The number of degrees of freedom        ....  407

    -----------------------------------------------------------------
                    Redundant Internal Coordinates


    -----------------------------------------------------------------
         Definition                    Initial Value    Approx d2E/dq
    -----------------------------------------------------------------
      1. B(C   1,C   0)                  1.4017         0.598466   
      2. B(C   2,C   1)                  1.4006         0.600952   
      3. B(C   3,C   2)                  1.3882         0.629053   
      4. B(C   4,C   3)                  1.3844         0.637719   
      5. B(C   5,C   4)                  1.3871         0.631463   
      6. B(C   5,C   0)                  1.3848         0.636746   
      7. B(C   6,C   4)                  1.5008         0.415846   
      8. B(C   7,C   6)                  1.5449         0.353624   
      9. B(C   8,C   7)                  1.5460         0.352263   
     10. B(C   9,C   8)                  1.5394         0.360829   
     11. B(C  10,C   9)                  1.5046         0.410040   
     12. B(C  11,C  10)                  1.3937         0.616353   
     13. B(C  12,C  11)                  1.3820         0.643453   
     14. B(C  13,C  12)                  1.4069         0.587226   
     15. B(C  14,C  13)                  1.3849         0.636704   
     16. B(C  15,C  14)                  1.3857         0.634856   
     17. B(C  15,C  10)                  1.3839         0.638863   
     18. B(C  16,C   7)                  1.5389         0.361567   
     19. B(C  17,C   8)                  1.5401         0.359977   
     20. B(O  18,C   2)                  1.3595         0.625955   
     21. B(O  19,C   0)                  1.3738         0.593855   
     22. B(O  20,C   1)                  1.3727         0.596335   
     23. B(O  21,C  13)                  1.3539         0.638913   
     24. B(O  22,C  12)                  1.3769         0.587178   
     25. B(C  23,O  20)                  1.4230         0.495777   
     26. B(C  24,C  23)                  1.5507         0.346244   
     27. B(C  25,C  24)                  1.5171         0.391705   
     28. B(C  26,C  23)                  1.5328         0.369757   
     29. B(O  27,C  26)                  1.4026         0.534268   
     30. B(C  28,C  25)                  1.3901         0.624584   
     31. B(C  29,C  28)                  1.3819         0.643721   
     32. B(C  30,C  29)                  1.4031         0.595339   
     33. B(C  31,C  30)                  1.3839         0.638938   
     34. B(C  32,C  31)                  1.3837         0.639394   
     35. B(C  32,C  25)                  1.3862         0.633622   
     36. B(C  33,O  19)                  1.4069         0.525930   
     37. B(C  34,O  18)                  1.4082         0.523452   
     38. B(C  35,O  22)                  1.4080         0.523706   
     39. B(O  36,C  24)                  1.4016         0.536244   
     40. B(O  37,C  16)                  1.4144         0.511664   
     41. B(O  38,C  17)                  1.4036         0.532378   
     42. B(O  39,C  29)                  1.3785         0.583800   
     43. B(O  40,C  30)                  1.3616         0.621091   
     44. B(C  41,O  39)                  1.4051         0.529490   
     45. B(H  42,C   3)                  1.0771         0.377590   
     46. B(H  43,C   5)                  1.0789         0.375048   
     47. B(H  44,C   6)                  1.0940         0.354882   
     48. B(H  45,C   6)                  1.0908         0.359046   
     49. B(H  46,C   7)                  1.0948         0.353845   
     50. B(H  47,C   8)                  1.0933         0.355776   
     51. B(H  48,C   9)                  1.0915         0.358075   
     52. B(H  49,C   9)                  1.0926         0.356696   
     53. B(H  50,C  11)                  1.0788         0.375209   
     54. B(H  51,C  14)                  1.0789         0.375143   
     55. B(H  52,C  15)                  1.0806         0.372772   
     56. B(H  53,C  16)                  1.0982         0.349380   
     57. B(H  54,C  16)                  1.0919         0.357549   
     58. B(H  55,C  17)                  1.0975         0.350360   
     59. B(H  56,C  17)                  1.0947         0.353882   
     60. B(H  57,O  21)                  0.9681         0.504764   
     61. B(H  57,O  22)                  2.2148         0.010000   
     62. B(H  58,C  23)                  1.0927         0.356500   
     63. B(H  59,C  24)                  1.0964         0.351673   
     64. B(H  60,C  26)                  1.0914         0.358274   
     65. B(H  61,C  26)                  1.0990         0.348371   
     66. B(H  62,O  22)                  2.0309         0.010174   
     67. B(H  62,O  20)                  2.2517         0.010000   
     68. B(H  62,O  27)                  0.9704         0.500486   
     69. B(H  63,C  28)                  1.0778         0.376554   
     70. B(H  64,C  31)                  1.0784         0.375714   
     71. B(H  65,C  32)                  1.0792         0.374668   
     72. B(H  66,C  33)                  1.0949         0.353679   
     73. B(H  67,C  33)                  1.0943         0.354465   
     74. B(H  68,C  33)                  1.0888         0.361640   
     75. B(H  69,H  51)                  2.5370         0.010000   
     76. B(H  69,C  34)                  1.0933         0.355779   
     77. B(H  70,H  64)                  2.7253         0.010000   
     78. B(H  70,C  34)                  1.0941         0.354742   
     79. B(H  71,C  34)                  1.0883         0.362299   
     80. B(H  72,C  35)                  1.0926         0.356634   
     81. B(H  73,C  35)                  1.0939         0.354934   
     82. B(H  74,C  35)                  1.0892         0.361156   
     83. B(H  75,O  20)                  2.1544         0.010000   
     84. B(H  75,O  19)                  2.2545         0.010000   
     85. B(H  75,O  36)                  0.9723         0.497011   
     86. B(H  76,O  37)                  0.9637         0.512885   
     87. B(H  77,O  37)                  1.8807         0.017664   
     88. B(H  77,O  38)                  0.9716         0.498192   
     89. B(H  78,O  39)                  2.1122         0.010000   
     90. B(H  78,O  40)                  0.9668         0.507197   
     91. B(H  79,C  41)                  1.0892         0.361207   
     92. B(H  80,H  43)                  2.6048         0.010000   
     93. B(H  80,C  41)                  1.0941         0.354768   
     94. B(H  81,C  41)                  1.0942         0.354548   
     95. A(C   1,C   0,O  19)          114.6083         0.425205   
     96. A(C   5,C   0,O  19)          124.8605         0.429956   
     97. A(C   1,C   0,C   5)          120.5304         0.433387   
     98. A(C   0,C   1,O  20)          115.0838         0.425522   
     99. A(C   0,C   1,C   2)          119.6261         0.428907   
    100. A(C   2,C   1,O  20)          125.1129         0.425838   
    101. A(C   3,C   2,O  18)          123.9366         0.433095   
    102. A(C   1,C   2,C   3)          118.8306         0.432764   
    103. A(C   1,C   2,O  18)          117.2280         0.429554   
    104. A(C   4,C   3,H  42)          118.7904         0.357464   
    105. A(C   2,C   3,H  42)          119.8401         0.356634   
    106. A(C   2,C   3,C   4)          121.3359         0.437415   
    107. A(C   5,C   4,C   6)          120.3711         0.405550   
    108. A(C   3,C   4,C   6)          119.5229         0.406257   
    109. A(C   3,C   4,C   5)          119.8802         0.437717   
    110. A(C   4,C   5,H  43)          119.3511         0.356456   
    111. A(C   0,C   5,H  43)          120.9517         0.356961   
    112. A(C   0,C   5,C   4)          119.6929         0.437596   
    113. A(C   4,C   6,H  44)          109.5969         0.329303   
    114. A(C   7,C   6,H  45)          110.0223         0.321260   
    115. A(C   4,C   6,C   7)          108.9371         0.366619   
    116. A(H  44,C   6,H  45)          109.3629         0.290040   
    117. A(C   4,C   6,H  45)          109.8532         0.329938   
    118. A(C   7,C   6,H  44)          109.0515         0.320647   
    119. A(C   6,C   7,C  16)          110.8519         0.357968   
    120. A(C   8,C   7,C  16)          115.2203         0.357734   
    121. A(C  16,C   7,H  46)          105.9392         0.321661   
    122. A(C   8,C   7,H  46)          106.1800         0.320292   
    123. A(C   6,C   7,H  46)          106.6926         0.320494   
    124. A(C   6,C   7,C   8)          111.3386         0.356386   
    125. A(C   7,C   8,C  17)          115.2912         0.357466   
    126. A(C  17,C   8,H  47)          106.8709         0.321715   
    127. A(C   7,C   8,C   9)          110.4793         0.357609   
    128. A(C   9,C   8,H  47)          107.2269         0.321840   
    129. A(C   7,C   8,H  47)          106.8618         0.320577   
    130. A(C   9,C   8,C  17)          109.7099         0.358929   
    131. A(H  48,C   9,H  49)          107.8161         0.290149   
    132. A(C  10,C   9,H  48)          109.9593         0.329026   
    133. A(C  10,C   9,H  49)          109.0858         0.328816   
    134. A(C   8,C   9,C  10)          111.7266         0.367003   
    135. A(C   8,C   9,H  48)          109.6174         0.322179   
    136. A(C   8,C   9,H  49)          108.5410         0.321976   
    137. A(C   9,C  10,C  11)          119.6379         0.402819   
    138. A(C  11,C  10,C  15)          118.6589         0.435951   
    139. A(C   9,C  10,C  15)          121.7031         0.405378   
    140. A(C  10,C  11,C  12)          121.1976         0.436514   
    141. A(C  10,C  11,H  50)          118.5922         0.355020   
    142. A(C  12,C  11,H  50)          120.2044         0.357623   
    143. A(C  11,C  12,C  13)          119.7464         0.432727   
    144. A(C  13,C  12,O  22)          114.9715         0.422909   
    145. A(C  11,C  12,O  22)          125.2668         0.429892   
    146. A(C  12,C  13,O  21)          121.8604         0.429353   
    147. A(C  12,C  13,C  14)          118.8318         0.431907   
    148. A(C  14,C  13,O  21)          119.3011         0.435642   
    149. A(C  13,C  14,H  51)          118.1420         0.356972   
    150. A(C  13,C  14,C  15)          120.8126         0.438014   
    151. A(C  15,C  14,H  51)          121.0371         0.356796   
    152. A(C  14,C  15,H  52)          119.2687         0.356412   
    153. A(C  10,C  15,H  52)          119.9930         0.356793   
    154. A(C  10,C  15,C  14)          120.7324         0.438282   
    155. A(O  37,C  16,H  54)          105.6609         0.339201   
    156. A(C   7,C  16,H  54)          110.2242         0.322210   
    157. A(O  37,C  16,H  53)          109.2125         0.337895   
    158. A(C   7,C  16,H  53)          108.7005         0.320993   
    159. A(C   7,C  16,O  37)          114.9216         0.379019   
    160. A(H  53,C  16,H  54)          107.8911         0.289141   
    161. A(O  38,C  17,H  56)          106.0451         0.340870   
    162. A(C   8,C  17,O  38)          113.5416         0.381344   
    163. A(H  55,C  17,H  56)          107.7648         0.288801   
    164. A(C   8,C  17,H  56)          108.3178         0.321434   
    165. A(O  38,C  17,H  55)          110.6398         0.340300   
    166. A(C   8,C  17,H  55)          110.2616         0.320908   
    167. A(C   2,O  18,C  34)          118.7343         0.416360   
    168. A(C   0,O  19,C  33)          118.3892         0.412829   
    169. A(C   1,O  20,C  23)          120.5263         0.408832   
    170. A(C  13,O  21,H  57)          110.0115         0.370141   
    171. A(C  12,O  22,C  35)          118.4821         0.411691   
    172. A(C  26,C  23,H  58)          109.6060         0.323239   
    173. A(C  24,C  23,H  58)          110.4702         0.319781   
    174. A(O  20,C  23,H  58)          110.8063         0.337256   
    175. A(C  24,C  23,C  26)          112.7181         0.358048   
    176. A(O  20,C  23,C  26)          104.1509         0.378420   
    177. A(O  20,C  23,C  24)          108.9316         0.374148   
    178. A(C  23,C  24,O  36)          109.7944         0.379257   
    179. A(O  36,C  24,H  59)          106.6186         0.340925   
    180. A(C  25,C  24,H  59)          109.3876         0.325585   
    181. A(C  23,C  24,H  59)          108.7949         0.319070   
    182. A(C  25,C  24,O  36)          113.8498         0.387476   
    183. A(C  23,C  24,C  25)          108.2952         0.361582   
    184. A(C  28,C  25,C  32)          119.5091         0.436346   
    185. A(C  24,C  25,C  32)          119.5617         0.401536   
    186. A(C  24,C  25,C  28)          120.8480         0.400521   
    187. A(O  27,C  26,H  61)          110.8608         0.340178   
    188. A(H  60,C  26,H  61)          109.1353         0.289102   
    189. A(C  23,C  26,H  61)          108.8956         0.322019   
    190. A(O  27,C  26,H  60)          107.0412         0.341777   
    191. A(C  23,C  26,H  60)          110.0906         0.323502   
    192. A(C  23,C  26,O  27)          110.7933         0.383359   
    193. A(C  26,O  27,H  62)          106.8231         0.358467   
    194. A(C  29,C  28,H  63)          120.9466         0.357866   
    195. A(C  25,C  28,H  63)          118.6772         0.356036   
    196. A(C  25,C  28,C  29)          120.3760         0.437592   
    197. A(C  30,C  29,O  39)          114.5579         0.423511   
    198. A(C  28,C  29,O  39)          125.6042         0.429479   
    199. A(C  28,C  29,C  30)          119.8368         0.433828   
    200. A(C  31,C  30,O  40)          120.1894         0.433702   
    201. A(C  29,C  30,O  40)          120.2874         0.428232   
    202. A(C  29,C  30,C  31)          119.5229         0.433247   
    203. A(C  32,C  31,H  64)          121.1925         0.357321   
    204. A(C  30,C  31,H  64)          118.5886         0.357277   
    205. A(C  30,C  31,C  32)          120.2185         0.438854   
    206. A(C  31,C  32,H  65)          119.5885         0.357151   
    207. A(C  25,C  32,H  65)          119.9470         0.356602   
    208. A(C  25,C  32,C  31)          120.4638         0.438193   
    209. A(H  67,C  33,H  68)          109.3510         0.290315   
    210. A(H  66,C  33,H  68)          109.1629         0.290213   
    211. A(O  19,C  33,H  68)          105.5507         0.341412   
    212. A(H  66,C  33,H  67)          109.2442         0.289303   
    213. A(O  19,C  33,H  67)          111.7243         0.340270   
    214. A(O  19,C  33,H  66)          111.7083         0.340144   
    215. A(H  69,C  34,H  71)          109.2293         0.290566   
    216. A(O  18,C  34,H  71)          105.2467         0.341246   
    217. A(H  69,C  34,H  70)          110.2385         0.289607   
    218. A(O  18,C  34,H  70)          111.0928         0.340046   
    219. A(O  18,C  34,H  69)          111.1770         0.340212   
    220. A(H  70,C  34,H  71)          109.7256         0.290433   
    221. A(H  73,C  35,H  74)          109.1604         0.290314   
    222. A(H  72,C  35,H  74)          109.2692         0.290532   
    223. A(O  22,C  35,H  74)          105.7631         0.341094   
    224. A(H  72,C  35,H  73)          110.0181         0.289741   
    225. A(O  22,C  35,H  73)          111.2932         0.340104   
    226. A(O  22,C  35,H  72)          111.2191         0.340376   
    227. A(C  24,O  36,H  75)          107.2377         0.358267   
    228. A(C  16,O  37,H  76)          108.4250         0.357325   
    229. A(C  17,O  38,H  77)          106.2141         0.357971   
    230. A(C  29,O  39,C  41)          117.8348         0.412072   
    231. A(C  30,O  40,H  78)          107.4664         0.368651   
    232. A(H  80,C  41,H  81)          109.7467         0.289453   
    233. A(H  79,C  41,H  81)          109.3919         0.290271   
    234. A(O  39,C  41,H  81)          111.4667         0.340667   
    235. A(H  79,C  41,H  80)          109.5261         0.290299   
    236. A(O  39,C  41,H  80)          110.8480         0.340703   
    237. A(O  39,C  41,H  79)          105.7716         0.341729   
    238. D(O  20,C   1,C   0,O  19)      7.0229         0.024684   
    239. D(C   2,C   1,C   0,O  19)   -177.5690         0.024684   
    240. D(C   2,C   1,C   0,C   5)      2.7429         0.024684   
    241. D(O  20,C   1,C   0,C   5)   -172.6652         0.024684   
    242. D(O  18,C   2,C   1,C   0)    179.6679         0.024901   
    243. D(C   3,C   2,C   1,C   0)     -1.0974         0.024901   
    244. D(C   3,C   2,C   1,O  20)    173.8173         0.024901   
    245. D(O  18,C   2,C   1,O  20)     -5.4174         0.024901   
    246. D(C   4,C   3,C   2,C   1)     -1.9152         0.027431   
    247. D(H  42,C   3,C   2,O  18)     -0.5975         0.027431   
    248. D(C   4,C   3,C   2,O  18)    177.2646         0.027431   
    249. D(H  42,C   3,C   2,C   1)   -179.7773         0.027431   
    250. D(C   6,C   4,C   3,H  42)      6.6309         0.028242   
    251. D(C   5,C   4,C   3,H  42)   -178.8076         0.028242   
    252. D(C   5,C   4,C   3,C   2)      3.3084         0.028242   
    253. D(C   6,C   4,C   3,C   2)   -171.2531         0.028242   
    254. D(H  43,C   5,C   4,C   6)     -6.3634         0.027655   
    255. D(H  43,C   5,C   4,C   3)    179.1218         0.027655   
    256. D(C   0,C   5,C   4,C   3)     -1.6251         0.027655   
    257. D(C   4,C   5,C   0,O  19)    178.9701         0.028151   
    258. D(H  43,C   5,C   0,C   1)    177.8655         0.028151   
    259. D(H  43,C   5,C   0,O  19)     -1.7890         0.028151   
    260. D(C   0,C   5,C   4,C   6)    172.8898         0.027655   
    261. D(C   4,C   5,C   0,C   1)     -1.3755         0.028151   
    262. D(H  45,C   6,C   4,C   3)   -167.0678         0.012795   
    263. D(H  44,C   6,C   4,C   5)    138.5783         0.012795   
    264. D(H  44,C   6,C   4,C   3)    -46.8873         0.012795   
    265. D(C   7,C   6,C   4,C   5)   -102.1818         0.012795   
    266. D(C   7,C   6,C   4,C   3)     72.3526         0.012795   
    267. D(C   8,C   7,C   6,H  44)   -175.8034         0.010059   
    268. D(C   8,C   7,C   6,C   4)     64.6174         0.010059   
    269. D(C  16,C   7,C   6,H  45)     73.8088         0.010059   
    270. D(C  16,C   7,C   6,H  44)    -46.1364         0.010059   
    271. D(C   8,C   7,C   6,H  45)    -55.8582         0.010059   
    272. D(C  16,C   7,C   6,C   4)   -165.7155         0.010059   
    273. D(C  17,C   8,C   7,H  46)   -151.5608         0.010000   
    274. D(C  17,C   8,C   7,C  16)    -34.6417         0.010000   
    275. D(C  17,C   8,C   7,C   6)     92.6892         0.010000   
    276. D(C   9,C   8,C   7,C  16)     90.4332         0.010000   
    277. D(C   9,C   8,C   7,H  46)    -26.4859         0.010000   
    278. D(C   9,C   8,C   7,C   6)   -142.2359         0.010000   
    279. D(H  48,C   9,C   8,C  17)     75.6012         0.010442   
    280. D(H  48,C   9,C   8,C   7)    -52.5850         0.010442   
    281. D(C  10,C   9,C   8,H  47)    -46.5380         0.010442   
    282. D(C  10,C   9,C   8,C  17)   -162.2494         0.010442   
    283. D(H  48,C   9,C   8,H  47)   -168.6875         0.010442   
    284. D(C  10,C   9,C   8,C   7)     69.5645         0.010442   
    285. D(C  15,C  10,C   9,H  48)     15.6090         0.012452   
    286. D(C  15,C  10,C   9,C   8)   -106.3440         0.012452   
    287. D(C  11,C  10,C   9,H  49)    -46.4079         0.012452   
    288. D(C  11,C  10,C   9,H  48)   -164.4490         0.012452   
    289. D(C  11,C  10,C   9,C   8)     73.5980         0.012452   
    290. D(H  50,C  11,C  10,C  15)   -179.3539         0.026269   
    291. D(H  50,C  11,C  10,C   9)      0.7024         0.026269   
    292. D(C  12,C  11,C  10,C  15)     -0.2243         0.026269   
    293. D(C  12,C  11,C  10,C   9)    179.8320         0.026269   
    294. D(O  22,C  12,C  11,H  50)      1.9674         0.028787   
    295. D(C  13,C  12,C  11,H  50)   -179.5279         0.028787   
    296. D(O  22,C  12,C  11,C  10)   -177.1483         0.028787   
    297. D(C  13,C  12,C  11,C  10)      1.3564         0.028787   
    298. D(O  21,C  13,C  12,C  11)    179.2536         0.023719   
    299. D(C  14,C  13,C  12,O  22)    176.9646         0.023719   
    300. D(C  14,C  13,C  12,C  11)     -1.6887         0.023719   
    301. D(O  21,C  13,C  12,O  22)     -2.0932         0.023719   
    302. D(H  51,C  14,C  13,O  21)      1.0422         0.028147   
    303. D(H  51,C  14,C  13,C  12)   -178.0401         0.028147   
    304. D(C  15,C  14,C  13,O  21)   -179.9934         0.028147   
    305. D(C  15,C  14,C  13,C  12)      0.9243         0.028147   
    306. D(H  52,C  15,C  14,H  51)      0.0186         0.027973   
    307. D(H  52,C  15,C  14,C  13)   -178.9156         0.027973   
    308. D(C  10,C  15,C  14,H  51)    179.1377         0.027973   
    309. D(C  10,C  15,C  14,C  13)      0.2034         0.027973   
    310. D(H  52,C  15,C  10,C  11)    178.5491         0.028351   
    311. D(H  52,C  15,C  10,C   9)     -1.5084         0.028351   
    312. D(C  14,C  15,C  10,C  11)     -0.5636         0.028351   
    313. D(C  14,C  15,C  10,C   9)    179.3788         0.028351   
    314. D(H  53,C  16,C   7,H  46)    -40.0477         0.010482   
    315. D(H  53,C  16,C   7,C   8)   -157.1029         0.010482   
    316. D(H  53,C  16,C   7,C   6)     75.3211         0.010482   
    317. D(O  37,C  16,C   7,H  46)   -162.7559         0.010482   
    318. D(O  37,C  16,C   7,C   8)     80.1889         0.010482   
    319. D(O  37,C  16,C   7,C   6)    -47.3872         0.010482   
    320. D(H  55,C  17,C   8,H  47)   -172.4888         0.010396   
    321. D(H  55,C  17,C   8,C   9)    -56.5519         0.010396   
    322. D(H  55,C  17,C   8,C   7)     68.9209         0.010396   
    323. D(O  38,C  17,C   8,H  47)     62.7132         0.010396   
    324. D(O  38,C  17,C   8,C   9)    178.6501         0.010396   
    325. D(O  38,C  17,C   8,C   7)    -55.8770         0.010396   
    326. D(C  34,O  18,C   2,C   3)      3.5343         0.028787   
    327. D(C  34,O  18,C   2,C   1)   -177.2738         0.028787   
    328. D(C  33,O  19,C   0,C   5)      0.9954         0.028376   
    329. D(C  33,O  19,C   0,C   1)   -178.6773         0.028376   
    330. D(C  23,O  20,C   1,C   2)     49.3735         0.031122   
    331. D(C  23,O  20,C   1,C   0)   -135.5067         0.031122   
    332. D(H  57,O  21,C  13,C  14)    175.0887         0.030086   
    333. D(H  57,O  21,C  13,C  12)     -5.8579         0.030086   
    334. D(C  35,O  22,C  12,C  13)   -177.8795         0.030104   
    335. D(C  35,O  22,C  12,C  11)      0.6884         0.030104   
    336. D(H  58,C  23,O  20,C   1)    -51.6785         0.022615   
    337. D(C  26,C  23,O  20,C   1)   -169.4533         0.022615   
    338. D(C  24,C  23,O  20,C   1)     70.0467         0.022615   
    339. D(O  36,C  24,C  23,H  58)    169.0705         0.010000   
    340. D(O  36,C  24,C  23,C  26)    -67.9334         0.010000   
    341. D(O  36,C  24,C  23,O  20)     47.1413         0.010000   
    342. D(C  25,C  24,C  23,H  58)     44.2082         0.010000   
    343. D(C  25,C  24,C  23,C  26)    167.2042         0.010000   
    344. D(C  25,C  24,C  23,O  20)    -77.7210         0.010000   
    345. D(C  32,C  25,C  24,O  36)    170.1741         0.011410   
    346. D(C  32,C  25,C  24,C  23)    -67.4045         0.011410   
    347. D(C  28,C  25,C  24,H  59)   -132.2656         0.011410   
    348. D(C  28,C  25,C  24,O  36)    -13.1170         0.011410   
    349. D(C  28,C  25,C  24,C  23)    109.3044         0.011410   
    350. D(H  60,C  26,C  23,H  58)     58.5540         0.010930   
    351. D(H  60,C  26,C  23,C  24)    -64.9231         0.010930   
    352. D(H  60,C  26,C  23,O  20)    177.1532         0.010930   
    353. D(O  27,C  26,C  23,H  58)    -59.6544         0.010930   
    354. D(O  27,C  26,C  23,C  24)    176.8685         0.010930   
    355. D(O  27,C  26,C  23,O  20)     58.9449         0.010930   
    356. D(H  62,O  27,C  26,H  61)     70.6963         0.022684   
    357. D(H  62,O  27,C  26,H  60)   -170.3755         0.022684   
    358. D(H  62,O  27,C  26,C  23)    -50.3289         0.022684   
    359. D(H  63,C  28,C  25,C  32)   -177.2440         0.027019   
    360. D(H  63,C  28,C  25,C  24)      6.0453         0.027019   
    361. D(C  29,C  28,C  25,C  32)      2.6361         0.027019   
    362. D(C  29,C  28,C  25,C  24)   -174.0746         0.027019   
    363. D(C  30,C  29,C  28,H  63)    179.1215         0.028813   
    364. D(C  30,C  29,C  28,C  25)     -0.7558         0.028813   
    365. D(O  39,C  29,C  28,H  63)     -1.2717         0.028813   
    366. D(O  39,C  29,C  28,C  25)    178.8509         0.028813   
    367. D(O  40,C  30,C  29,O  39)     -1.0688         0.024413   
    368. D(O  40,C  30,C  29,C  28)    178.5797         0.024413   
    369. D(C  31,C  30,C  29,O  39)    178.7245         0.024413   
    370. D(C  31,C  30,C  29,C  28)     -1.6270         0.024413   
    371. D(H  64,C  31,C  30,O  40)      1.6806         0.028358   
    372. D(H  64,C  31,C  30,C  29)   -178.1129         0.028358   
    373. D(C  32,C  31,C  30,O  40)   -178.0839         0.028358   
    374. D(C  32,C  31,C  30,C  29)      2.1226         0.028358   
    375. D(H  65,C  32,C  31,H  64)     -0.2900         0.028401   
    376. D(H  65,C  32,C  31,C  30)    179.4682         0.028401   
    377. D(C  25,C  32,C  31,H  64)   -179.9957         0.028401   
    378. D(C  25,C  32,C  31,C  30)     -0.2374         0.028401   
    379. D(H  65,C  32,C  25,C  28)    178.1494         0.027857   
    380. D(H  65,C  32,C  25,C  24)     -5.0971         0.027857   
    381. D(C  31,C  32,C  25,C  28)     -2.1459         0.027857   
    382. D(C  31,C  32,C  25,C  24)    174.6075         0.027857   
    383. D(H  68,C  33,O  19,C   0)    179.0069         0.023829   
    384. D(H  67,C  33,O  19,C   0)     60.2484         0.023829   
    385. D(H  66,C  33,O  19,C   0)    -62.4694         0.023829   
    386. D(H  71,C  34,O  18,C   2)    179.7725         0.021735   
    387. D(H  70,C  34,O  18,C   2)     61.0814         0.021735   
    388. D(H  69,C  34,O  18,C   2)    -62.0839         0.021735   
    389. D(H  74,C  35,O  22,C  12)    174.4858         0.025367   
    390. D(H  73,C  35,O  22,C  12)     56.0586         0.025367   
    391. D(H  72,C  35,O  22,C  12)    -66.9961         0.025367   
    392. D(H  75,O  36,C  24,H  59)   -156.9154         0.022861   
    393. D(H  75,O  36,C  24,C  25)     82.3727         0.022861   
    394. D(H  75,O  36,C  24,C  23)    -39.2207         0.022861   
    395. D(H  76,O  37,C  16,H  54)   -170.5789         0.022496   
    396. D(H  76,O  37,C  16,H  53)    -54.7574         0.022496   
    397. D(H  76,O  37,C  16,C   7)     67.6755         0.022496   
    398. D(H  77,O  38,C  17,H  56)   -163.2759         0.022517   
    399. D(H  77,O  38,C  17,H  55)    -46.6873         0.022517   
    400. D(H  77,O  38,C  17,C   8)     77.9069         0.022517   
    401. D(C  41,O  39,C  29,C  30)    179.2963         0.027359   
    402. D(C  41,O  39,C  29,C  28)     -0.3287         0.027359   
    403. D(H  78,O  40,C  30,C  31)   -177.2007         0.028309   
    404. D(H  78,O  40,C  30,C  29)      2.5912         0.028309   
    405. D(H  81,C  41,O  39,C  29)     61.2013         0.024169   
    406. D(H  80,C  41,O  39,C  29)    -61.3624         0.024169   
    407. D(H  79,C  41,O  39,C  29)   -179.9957         0.024169   
    -----------------------------------------------------------------

Number of atoms                         .... 82
Number of degrees of freedom            .... 407


         *************************************************************
         *                GEOMETRY OPTIMIZATION CYCLE   1            *
         *************************************************************
---------------------------------
CARTESIAN COORDINATES (ANGSTROEM)
---------------------------------
  C     21.945487  -31.556966   -0.948915
  C     21.821918  -31.080721    0.363617
  C     21.086087  -31.816808    1.300840
  C     20.475170  -32.995629    0.895712
  C     20.548209  -33.430275   -0.416685
  C     21.299881  -32.718125   -1.339674
  C     19.714825  -34.598453   -0.856334
  C     18.236597  -34.156996   -0.938783
  C     18.030337  -33.083017   -2.031537
  C     17.003121  -32.033988   -1.568642
  C     17.544834  -31.176621   -0.457142
  C     18.503103  -30.205125   -0.740559
  C     19.020007  -29.397651    0.254777
  C     18.597091  -29.572166    1.585192
  C     17.639178  -30.533562    1.860798
  C     17.117298  -31.325565    0.850648
  C     17.304853  -35.377957   -1.035206
  C     17.632603  -33.622939   -3.417964
  O     21.003667  -31.313434    2.561018
  O     22.731432  -30.782118   -1.767022
  O     22.375086  -29.844754    0.588718
  O     19.086200  -28.815355    2.595689
  O     19.924983  -28.378079    0.061500
  C     23.163135  -29.606091    1.749252
  C     24.502414  -30.376114    1.615049
  C     24.244110  -31.838505    1.925347
  C     23.353842  -28.085302    1.766476
  O     22.115444  -27.428731    1.817414
  C     24.284396  -32.798273    0.920569
  C     23.928831  -34.106354    1.189050
  C     23.540000  -34.471801    2.486771
  C     23.549271  -33.522917    3.494112
  C     23.897067  -32.213246    3.214001
  C     22.886917  -31.171699   -3.109927
  C     20.320912  -32.056220    3.543401
  C     20.363380  -28.108860   -1.249193
  O     25.051955  -30.154779    0.344810
  O     17.693745  -36.350878   -1.985284
  O     18.534981  -34.567215   -3.931846
  O     23.907656  -35.136376    0.273191
  O     23.160154  -35.751540    2.755082
  C     24.270327  -34.843302   -1.052235
  H     19.902352  -33.572658    1.602140
  H     21.362468  -33.072425   -2.356848
  H     19.805334  -35.408878   -0.127091
  H     20.054621  -34.949793   -1.831495
  H     17.999537  -33.672391    0.013835
  H     18.986683  -32.567606   -2.154151
  H     16.089915  -32.534647   -1.241773
  H     16.749128  -31.397400   -2.419516
  H     18.827855  -30.082784   -1.762031
  H     17.299512  -30.636035    2.879653
  H     16.358104  -32.056025    1.090897
  H     17.235890  -35.847353   -0.044745
  H     16.300859  -35.064395   -1.328460
  H     16.616157  -34.035680   -3.387818
  H     17.633072  -32.787639   -4.125590
  H     19.797195  -28.245534    2.268652
  H     22.631023  -29.919137    2.650877
  H     25.217228  -29.970759    2.340943
  H     23.910672  -27.787353    2.656580
  H     23.918323  -27.787236    0.871853
  H     21.566222  -27.810128    1.114174
  H     24.599357  -32.500926   -0.066406
  H     23.277248  -33.827306    4.492308
  H     23.892554  -31.479739    4.005600
  H     23.375093  -32.148093   -3.194428
  H     21.928245  -31.200971   -3.636774
  H     23.524036  -30.413233   -3.562008
  H     19.267867  -32.185854    3.279650
  H     20.794351  -33.029957    3.700585
  H     20.392224  -31.462071    4.452462
  H     20.962711  -28.933265   -1.642900
  H     19.520366  -27.906772   -1.916409
  H     20.983541  -27.216417   -1.176323
  H     24.316722  -30.155997   -0.291405
  H     18.510593  -36.762942   -1.682411
  H     18.344269  -35.402315   -3.473240
  H     23.264240  -36.261926    1.940647
  H     24.185603  -35.782658   -1.596949
  H     23.590216  -34.105328   -1.487910
  H     25.300229  -34.478914   -1.114358

----------------------------
CARTESIAN COORDINATES (A.U.)
----------------------------
  NO LB      ZA    FRAG     MASS         X           Y           Z
   0 C     6.0000    0    12.011   41.470961  -59.634024   -1.793190
   1 C     6.0000    0    12.011   41.237448  -58.734051    0.687136
   2 C     6.0000    0    12.011   39.846929  -60.125053    2.458230
   3 C     6.0000    0    12.011   38.692464  -62.352701    1.692651
   4 C     6.0000    0    12.011   38.830488  -63.174064   -0.787421
   5 C     6.0000    0    12.011   40.250943  -61.828296   -2.531618
   6 C     6.0000    0    12.011   37.255620  -65.381600   -1.618237
   7 C     6.0000    0    12.011   34.462175  -64.547367   -1.774044
   8 C     6.0000    0    12.011   34.072400  -62.517842   -3.839049
   9 C     6.0000    0    12.011   32.131243  -60.535465   -2.964305
  10 C     6.0000    0    12.011   33.154931  -58.915276   -0.863874
  11 C     6.0000    0    12.011   34.965798  -57.079414   -1.399454
  12 C     6.0000    0    12.011   35.942605  -55.553510    0.481459
  13 C     6.0000    0    12.011   35.143409  -55.883294    2.995578
  14 C     6.0000    0    12.011   33.333216  -57.700070    3.516399
  15 C     6.0000    0    12.011   32.347005  -59.196740    1.607492
  16 C     6.0000    0    12.011   32.701433  -66.854650   -1.956256
  17 C     6.0000    0    12.011   33.320791  -63.538146   -6.459016
  18 O     8.0000    0    15.999   39.691179  -59.173815    4.839623
  19 O     8.0000    0    15.999   42.956181  -58.169774   -3.339188
  20 O     8.0000    0    15.999   42.282785  -56.398411    1.112516
  21 O     8.0000    0    15.999   36.067690  -54.453130    4.905141
  22 O     8.0000    0    15.999   37.652760  -53.626797    0.116218
  23 C     6.0000    0    12.011   43.771982  -55.947404    3.305608
  24 C     6.0000    0    12.011   46.302852  -57.402537    3.052001
  25 C     6.0000    0    12.011   45.814729  -60.166055    3.638378
  26 C     6.0000    0    12.011   44.132366  -53.073529    3.338155
  27 O     8.0000    0    15.999   41.792132  -51.832790    3.434414
  28 C     6.0000    0    12.011   45.890858  -61.979754    1.739623
  29 C     6.0000    0    12.011   45.218937  -64.451669    2.246980
  30 C     6.0000    0    12.011   44.484153  -65.142263    4.699317
  31 C     6.0000    0    12.011   44.501672  -63.349133    6.602914
  32 C     6.0000    0    12.011   45.158912  -60.874213    6.073582
  33 C     6.0000    0    12.011   43.250005  -58.905974   -5.876910
  34 C     6.0000    0    12.011   38.400959  -60.577477    6.696057
  35 C     6.0000    0    12.011   38.481211  -53.118047   -2.360633
  36 O     8.0000    0    15.999   47.341334  -56.984274    0.651596
  37 O     8.0000    0    15.999   33.436332  -68.693204   -3.751644
  38 O     8.0000    0    15.999   35.026038  -65.322570   -7.430113
  39 O     8.0000    0    15.999   45.178923  -66.398128    0.516256
  40 O     8.0000    0    15.999   43.766349  -67.560620    5.206350
  41 C     6.0000    0    12.011   45.864271  -65.844299   -1.988437
  42 H     1.0000    0     1.008   37.609994  -63.443129    3.027605
  43 H     1.0000    0     1.008   40.369214  -62.497825   -4.453797
  44 H     1.0000    0     1.008   37.426658  -66.913082   -0.240166
  45 H     1.0000    0     1.008   37.897741  -66.045536   -3.461025
  46 H     1.0000    0     1.008   34.014195  -63.631598    0.026144
  47 H     1.0000    0     1.008   35.879631  -61.543857   -4.070756
  48 H     1.0000    0     1.008   30.405534  -61.481572   -2.346610
  49 H     1.0000    0     1.008   31.651264  -59.332487   -4.572223
  50 H     1.0000    0     1.008   35.579489  -56.848224   -3.329756
  51 H     1.0000    0     1.008   32.691339  -57.893715    5.441756
  52 H     1.0000    0     1.008   30.912337  -60.577109    2.061496
  53 H     1.0000    0     1.008   32.571113  -67.741679   -0.084556
  54 H     1.0000    0     1.008   30.804159  -66.262104   -2.510426
  55 H     1.0000    0     1.008   31.399986  -64.318114   -6.402048
  56 H     1.0000    0     1.008   33.321677  -61.959659   -7.796235
  57 H     1.0000    0     1.008   37.411277  -53.376324    4.287131
  58 H     1.0000    0     1.008   42.766435  -56.538976    5.009432
  59 H     1.0000    0     1.008   47.653655  -56.636527    4.423741
  60 H     1.0000    0     1.008   45.184621  -52.510487    5.020209
  61 H     1.0000    0     1.008   45.199081  -52.510265    1.647564
  62 H     1.0000    0     1.008   40.754254  -52.553525    2.105484
  63 H     1.0000    0     1.008   46.486048  -61.417849   -0.125488
  64 H     1.0000    0     1.008   43.987623  -63.924344    8.489231
  65 H     1.0000    0     1.008   45.150383  -59.488085    7.569486
  66 H     1.0000    0     1.008   44.172523  -60.751091   -6.036594
  67 H     1.0000    0     1.008   41.438378  -58.961290   -6.872507
  68 H     1.0000    0     1.008   44.453986  -57.472681   -6.731220
  69 H     1.0000    0     1.008   36.410992  -60.822450    6.197640
  70 H     1.0000    0     1.008   39.295628  -62.417572    6.993092
  71 H     1.0000    0     1.008   38.535719  -59.454699    8.413933
  72 H     1.0000    0     1.008   39.613783  -54.675946   -3.104631
  73 H     1.0000    0     1.008   36.888146  -52.736156   -3.621489
  74 H     1.0000    0     1.008   39.653145  -51.431575   -2.222929
  75 H     1.0000    0     1.008   45.951945  -56.986576   -0.550676
  76 H     1.0000    0     1.008   34.979952  -69.471892   -3.179296
  77 H     1.0000    0     1.008   34.665645  -66.900681   -6.563472
  78 H     1.0000    0     1.008   43.963042  -68.525108    3.667291
  79 H     1.0000    0     1.008   45.704166  -67.619424   -3.017796
  80 H     1.0000    0     1.008   44.579048  -64.449730   -2.811742
  81 H     1.0000    0     1.008   47.810505  -65.155704   -2.105831

--------------------------------
INTERNAL COORDINATES (ANGSTROEM)
--------------------------------
 C      0   0   0     0.000000000000     0.00000000     0.00000000
 C      1   0   0     1.401720182255     0.00000000     0.00000000
 C      2   1   0     1.400591721910   119.62612652     0.00000000
 C      3   2   1     1.388151927970   118.83057733   358.90261397
 C      4   3   2     1.384427447805   121.33585597   358.08478018
 C      1   2   3     1.384842800457   120.53044875     2.74285802
 C      5   4   3     1.500819864717   119.52288252   188.74687563
 C      7   5   4     1.544939842093   108.93710378    72.35256515
 C      8   7   5     1.545989635710   111.33862259    64.61743431
 C      9   8   7     1.539449599809   110.47928987   217.76409901
 C     10   9   8     1.504647150058   111.72661655    69.56449031
 C     11  10   9     1.393703664964   119.63788616    73.59795168
 C     12  11  10     1.381990740920   121.19762357   179.83196074
 C     13  12  11     1.406881654343   119.74641637     1.35638554
 C     14  13  12     1.384860869590   118.83182369   358.31131555
 C     11  10   9     1.383939350510   121.70313969   253.65601924
 C      8   7   5     1.538893209868   110.85189013   194.28445553
 C      9   8   7     1.540093326052   115.29121428    92.68917021
 O      3   2   1     1.359495636967   117.22804682   179.66790819
 O      1   2   3     1.373825700031   114.60828802   182.43100024
 O      2   1   3     1.372691166350   115.08379483   184.59192618
 O     14  13  12     1.353918065252   121.86042940   179.25356039
 O     13  12  11     1.376903778303   125.26681515   182.85166450
 C     21   2   1     1.422962092686   120.52632957   224.49326061
 C     24  21   2     1.550681391392   108.93158107    70.04670495
 C     25  24  21     1.517099805490   108.29519320   282.27900741
 C     24  21   2     1.532796148730   104.15091071   190.54666562
 O     27  24  21     1.402608568411   110.79325005    58.94485075
 C     26  25  24     1.390092512756   120.84804347   109.30442290
 C     29  26  25     1.381877415873   120.37603455   185.92539128
 C     30  29  26     1.403146541621   119.83684264   359.24415760
 C     31  30  29     1.383907378216   119.52290108   358.37297584
 C     32  31  30     1.383713511034   120.21849630     2.12256804
 C     20   1   2     1.406890420415   118.38920481   181.32274048
 C     19   3   2     1.408176183294   118.73433793   182.72615880
 C     23  13  12     1.408043656900   118.48208567     0.68839621
 O     25  24  21     1.401603631781   109.79436230    47.14131327
 O     17   8   7     1.414376238897   114.92161246   312.61283165
 O     18   9   8     1.403573568834   113.54162380   304.12297872
 O     30  29  26     1.378474431227   125.60419178   178.85094394
 O     31  30  29     1.361619067943   120.28742052   178.57967868
 C     40  30  29     1.405054111362   117.83479767   359.67134450
 H      4   3   2     1.077090182491   119.84006507   180.22268047
 H      6   1   2     1.078928535937   120.95166493   177.86549679
 H      7   5   4     1.093973587596   109.59694315   313.11270531
 H      7   5   4     1.090797835087   109.85323695   192.93223160
 H      8   7   5     1.094769787348   106.69261655   309.18315095
 H      9   8   7     1.093288518357   106.86184220   334.09390195
 H     10   9   8     1.091534782246   109.61739017   307.41503733
 H     10   9   8     1.092585724004   108.54098550   189.88971525
 H     12  11  10     1.078812066040   118.59222077     0.70236269
 H     15  14  13     1.078859776407   118.14198685   181.95988644
 H     16  11  10     1.080585703151   119.99303179   358.49158119
 H     17   8   7     1.098226555046   108.70046129    75.32106793
 H     17   8   7     1.091935412479   110.22417436   193.37768008
 H     18   9   8     1.097464130769   110.26163512    68.92093514
 H     18   9   8     1.094741715431   108.31776744   186.61864097
 H     22  14  13     0.968072057648   110.01154786   354.14210878
 H     24  21   2     1.092735016385   110.80630207   308.32150806
 H     25  24  21     1.096446301359   108.79489437   163.47307275
 H     27  24  21     1.091383926884   110.09059160   177.15317675
 H     27  24  21     1.099014062474   108.89562796   296.76475699
 H     28  27  24     0.970388649488   106.82308529   309.67114658
 H     29  26  25     1.077837721305   118.67722919     6.04531692
 H     32  31  30     1.078445532592   118.58860651   181.88705649
 H     33  32  31     1.079204246835   119.58854558   179.46824981
 H     34  20   1     1.094897280453   111.70829345   297.53062049
 H     34  20   1     1.094293139150   111.72427393    60.24841313
 H     34  20   1     1.088838599103   105.55065986   179.00685582
 H     35  19   3     1.093285801035   111.17697175   297.91607934
 H     35  19   3     1.094081064788   111.09275937    61.08135638
 H     35  19   3     1.088343083269   105.24672504   179.77248002
 H     36  23  13     1.092632459884   111.21911824   293.00394389
 H     36  23  13     1.093933265432   111.29316187    56.05860059
 H     36  23  13     1.089202804681   105.76305306   174.48579290
 H     37  25  24     0.972285551561   107.23768431   320.77931936
 H     38  17   8     0.963727216998   108.42504500    67.67547759
 H     39  18   9     0.971639603759   106.21410817    77.90694142
 H     41  31  30     0.966763207477   107.46644055     2.59120669
 H     42  40  30     1.089164646945   105.77160912   180.00428606
 H     42  40  30     1.094060478340   110.84799386   298.63764315
 H     42  40  30     1.094229238828   111.46672418    61.20131439

---------------------------
INTERNAL COORDINATES (A.U.)
---------------------------
 C      0   0   0     0.000000000000     0.00000000     0.00000000
 C      1   0   0     2.648867260852     0.00000000     0.00000000
 C      2   1   0     2.646734779848   119.62612652     0.00000000
 C      3   2   1     2.623226976138   118.83057733   358.90261397
 C      4   3   2     2.616188728634   121.33585597   358.08478018
 C      1   2   3     2.616973631397   120.53044875     2.74285802
 C      5   4   3     2.836138520665   119.52288252   188.74687563
 C      7   5   4     2.919513194939   108.93710378    72.35256515
 C      8   7   5     2.921497017372   111.33862259    64.61743431
 C      9   8   7     2.909138140614   110.47928987   217.76409901
 C     10   9   8     2.843371041795   111.72661655    69.56449031
 C     11  10   9     2.633718238624   119.63788616    73.59795168
 C     12  11  10     2.611584019954   121.19762357   179.83196074
 C     13  12  11     2.658621029547   119.74641637     1.35638554
 C     14  13  12     2.617007777108   118.83182369   358.31131555
 C     11  10   9     2.615266358420   121.70313969   253.65601924
 C      8   7   5     2.908086716002   110.85189013   194.28445553
 C      9   8   7     2.910354606918   115.29121428    92.68917021
 O      3   2   1     2.569074434128   117.22804682   179.66790819
 O      1   2   3     2.596154328802   114.60828802   182.43100024
 O      2   1   3     2.594010370855   115.08379483   184.59192618
 O     14  13  12     2.558534351095   121.86042940   179.25356039
 O     13  12  11     2.601971053754   125.26681515   182.85166450
 C     21   2   1     2.689008654129   120.52632957   224.49326061
 C     24  21   2     2.930363150699   108.93158107    70.04670495
 C     25  24  21     2.866903150202   108.29519320   282.27900741
 C     24  21   2     2.896564940228   104.15091071   190.54666562
 O     27  24  21     2.650546067388   110.79325005    58.94485075
 C     26  25  24     2.626894149923   120.84804347   109.30442290
 C     29  26  25     2.611369866650   120.37603455   185.92539128
 C     30  29  26     2.651562689422   119.83684264   359.24415760
 C     31  30  29     2.615205939542   119.52290108   358.37297584
 C     32  31  30     2.614839583661   120.21849630     2.12256804
 C     20   1   2     2.658637595021   118.38920481   181.32274048
 C     19   3   2     2.661067334736   118.73433793   182.72615880
 C     23  13  12     2.660816896145   118.48208567     0.68839621
 O     25  24  21     2.648647012376   109.79436230    47.14131327
 O     17   8   7     2.672783741842   114.92161246   312.61283165
 O     18   9   8     2.652369653906   113.54162380   304.12297872
 O     30  29  26     2.604939157632   125.60419178   178.85094394
 O     31  30  29     2.573087137137   120.28742052   178.57967868
 C     40  30  29     2.655167473813   117.83479767   359.67134450
 H      4   3   2     2.035405466443   119.84006507   180.22268047
 H      6   1   2     2.038879450994   120.95166493   177.86549679
 H      7   5   4     2.067310478300   109.59694315   313.11270531
 H      7   5   4     2.061309175789   109.85323695   192.93223160
 H      8   7   5     2.068815077778   106.69261655   309.18315095
 H      9   8   7     2.066015885056   106.86184220   334.09390195
 H     10   9   8     2.062701804095   109.61739017   307.41503733
 H     10   9   8     2.064687796200   108.54098550   189.88971525
 H     12  11  10     2.038659354786   118.59222077     0.70236269
 H     15  14  13     2.038749514313   118.14198685   181.95988644
 H     16  11  10     2.042011043186   119.99303179   358.49158119
 H     17   8   7     2.075347422037   108.70046129    75.32106793
 H     17   8   7     2.063458885515   110.22417436   193.37768008
 H     18   9   8     2.073906648956   110.26163512    68.92093514
 H     18   9   8     2.068762029543   108.31776744   186.61864097
 H     22  14  13     1.829391066857   110.01154786   354.14210878
 H     24  21   2     2.064969917914   110.80630207   308.32150806
 H     25  24  21     2.071983230119   108.79489437   163.47307275
 H     27  24  21     2.062416728774   110.09059160   177.15317675
 H     27  24  21     2.076835595404   108.89562796   296.76475699
 H     28  27  24     1.833768790998   106.82308529   309.67114658
 H     29  26  25     2.036818110075   118.67722919     6.04531692
 H     32  31  30     2.037966706950   118.58860651   181.88705649
 H     33  32  31     2.039400469083   119.58854558   179.46824981
 H     34  20   1     2.069056004831   111.70829345   297.53062049
 H     34  20   1     2.067914343223   111.72427393    60.24841313
 H     34  20   1     2.057606756348   105.55065986   179.00685582
 H     35  19   3     2.066010750060   111.17697175   297.91607934
 H     35  19   3     2.067513580759   111.09275937    61.08135638
 H     35  19   3     2.056670367125   105.24672504   179.77248002
 H     36  23  13     2.064776114214   111.21911824   293.00394389
 H     36  23  13     2.067234280453   111.29316187    56.05860059
 H     36  23  13     2.058295005147   105.76305306   174.48579290
 H     37  25  24     1.837353416419   107.23768431   320.77931936
 H     38  17   8     1.821180507932   108.42504500    67.67547759
 H     39  18   9     1.836132751976   106.21410817    77.90694142
 H     41  31  30     1.826917698483   107.46644055     2.59120669
 H     42  40  30     2.058222897475   105.77160912   180.00428606
 H     42  40  30     2.067474678009   110.84799386   298.63764315
 H     42  40  30     2.067793589114   111.46672418    61.20131439

---------------------
BASIS SET INFORMATION
---------------------
There are 3 groups of distinct atoms

 Group   1 Type C   : 11s6p2d1f contracted to 5s3p2d1f pattern {62111/411/11/1}
 Group   2 Type O   : 11s6p2d1f contracted to 5s3p2d1f pattern {62111/411/11/1}
 Group   3 Type H   : 5s1p contracted to 3s1p pattern {311/1}

Atom   0C    basis set group =>   1
Atom   1C    basis set group =>   1
Atom   2C    basis set group =>   1
Atom   3C    basis set group =>   1
Atom   4C    basis set group =>   1
Atom   5C    basis set group =>   1
Atom   6C    basis set group =>   1
Atom   7C    basis set group =>   1
Atom   8C    basis set group =>   1
Atom   9C    basis set group =>   1
Atom  10C    basis set group =>   1
Atom  11C    basis set group =>   1
Atom  12C    basis set group =>   1
Atom  13C    basis set group =>   1
Atom  14C    basis set group =>   1
Atom  15C    basis set group =>   1
Atom  16C    basis set group =>   1
Atom  17C    basis set group =>   1
Atom  18O    basis set group =>   2
Atom  19O    basis set group =>   2
Atom  20O    basis set group =>   2
Atom  21O    basis set group =>   2
Atom  22O    basis set group =>   2
Atom  23C    basis set group =>   1
Atom  24C    basis set group =>   1
Atom  25C    basis set group =>   1
Atom  26C    basis set group =>   1
Atom  27O    basis set group =>   2
Atom  28C    basis set group =>   1
Atom  29C    basis set group =>   1
Atom  30C    basis set group =>   1
Atom  31C    basis set group =>   1
Atom  32C    basis set group =>   1
Atom  33C    basis set group =>   1
Atom  34C    basis set group =>   1
Atom  35C    basis set group =>   1
Atom  36O    basis set group =>   2
Atom  37O    basis set group =>   2
Atom  38O    basis set group =>   2
Atom  39O    basis set group =>   2
Atom  40O    basis set group =>   2
Atom  41C    basis set group =>   1
Atom  42H    basis set group =>   3
Atom  43H    basis set group =>   3
Atom  44H    basis set group =>   3
Atom  45H    basis set group =>   3
Atom  46H    basis set group =>   3
Atom  47H    basis set group =>   3
Atom  48H    basis set group =>   3
Atom  49H    basis set group =>   3
Atom  50H    basis set group =>   3
Atom  51H    basis set group =>   3
Atom  52H    basis set group =>   3
Atom  53H    basis set group =>   3
Atom  54H    basis set group =>   3
Atom  55H    basis set group =>   3
Atom  56H    basis set group =>   3
Atom  57H    basis set group =>   3
Atom  58H    basis set group =>   3
Atom  59H    basis set group =>   3
Atom  60H    basis set group =>   3
Atom  61H    basis set group =>   3
Atom  62H    basis set group =>   3
Atom  63H    basis set group =>   3
Atom  64H    basis set group =>   3
Atom  65H    basis set group =>   3
Atom  66H    basis set group =>   3
Atom  67H    basis set group =>   3
Atom  68H    basis set group =>   3
Atom  69H    basis set group =>   3
Atom  70H    basis set group =>   3
Atom  71H    basis set group =>   3
Atom  72H    basis set group =>   3
Atom  73H    basis set group =>   3
Atom  74H    basis set group =>   3
Atom  75H    basis set group =>   3
Atom  76H    basis set group =>   3
Atom  77H    basis set group =>   3
Atom  78H    basis set group =>   3
Atom  79H    basis set group =>   3
Atom  80H    basis set group =>   3
Atom  81H    basis set group =>   3
---------------------------------
AUXILIARY/J BASIS SET INFORMATION
---------------------------------
There are 3 groups of distinct atoms

 Group   1 Type C   : 12s5p4d2f1g contracted to 6s4p3d1f1g pattern {711111/2111/211/2/1}
 Group   2 Type O   : 12s5p4d2f1g contracted to 6s4p3d1f1g pattern {711111/2111/211/2/1}
 Group   3 Type H   : 5s2p1d contracted to 3s1p1d pattern {311/2/1}

Atom   0C    basis set group =>   1
Atom   1C    basis set group =>   1
Atom   2C    basis set group =>   1
Atom   3C    basis set group =>   1
Atom   4C    basis set group =>   1
Atom   5C    basis set group =>   1
Atom   6C    basis set group =>   1
Atom   7C    basis set group =>   1
Atom   8C    basis set group =>   1
Atom   9C    basis set group =>   1
Atom  10C    basis set group =>   1
Atom  11C    basis set group =>   1
Atom  12C    basis set group =>   1
Atom  13C    basis set group =>   1
Atom  14C    basis set group =>   1
Atom  15C    basis set group =>   1
Atom  16C    basis set group =>   1
Atom  17C    basis set group =>   1
Atom  18O    basis set group =>   2
Atom  19O    basis set group =>   2
Atom  20O    basis set group =>   2
Atom  21O    basis set group =>   2
Atom  22O    basis set group =>   2
Atom  23C    basis set group =>   1
Atom  24C    basis set group =>   1
Atom  25C    basis set group =>   1
Atom  26C    basis set group =>   1
Atom  27O    basis set group =>   2
Atom  28C    basis set group =>   1
Atom  29C    basis set group =>   1
Atom  30C    basis set group =>   1
Atom  31C    basis set group =>   1
Atom  32C    basis set group =>   1
Atom  33C    basis set group =>   1
Atom  34C    basis set group =>   1
Atom  35C    basis set group =>   1
Atom  36O    basis set group =>   2
Atom  37O    basis set group =>   2
Atom  38O    basis set group =>   2
Atom  39O    basis set group =>   2
Atom  40O    basis set group =>   2
Atom  41C    basis set group =>   1
Atom  42H    basis set group =>   3
Atom  43H    basis set group =>   3
Atom  44H    basis set group =>   3
Atom  45H    basis set group =>   3
Atom  46H    basis set group =>   3
Atom  47H    basis set group =>   3
Atom  48H    basis set group =>   3
Atom  49H    basis set group =>   3
Atom  50H    basis set group =>   3
Atom  51H    basis set group =>   3
Atom  52H    basis set group =>   3
Atom  53H    basis set group =>   3
Atom  54H    basis set group =>   3
Atom  55H    basis set group =>   3
Atom  56H    basis set group =>   3
Atom  57H    basis set group =>   3
Atom  58H    basis set group =>   3
Atom  59H    basis set group =>   3
Atom  60H    basis set group =>   3
Atom  61H    basis set group =>   3
Atom  62H    basis set group =>   3
Atom  63H    basis set group =>   3
Atom  64H    basis set group =>   3
Atom  65H    basis set group =>   3
Atom  66H    basis set group =>   3
Atom  67H    basis set group =>   3
Atom  68H    basis set group =>   3
Atom  69H    basis set group =>   3
Atom  70H    basis set group =>   3
Atom  71H    basis set group =>   3
Atom  72H    basis set group =>   3
Atom  73H    basis set group =>   3
Atom  74H    basis set group =>   3
Atom  75H    basis set group =>   3
Atom  76H    basis set group =>   3
Atom  77H    basis set group =>   3
Atom  78H    basis set group =>   3
Atom  79H    basis set group =>   3
Atom  80H    basis set group =>   3
Atom  81H    basis set group =>   3
--------------------------------------------------------------------------
WARNING: There was an error initializing an OpenFabrics device.

  Local host:   c08b01n07
  Local device: mlx5_0
--------------------------------------------------------------------------
--------------------------------------------------------------------------
WARNING: There is at least one non-excluded one OpenFabrics device found,
but there are no active ports detected (or Open MPI was unable to use
them).  This is most certainly not what you wanted.  Check your
cables, subnet manager configuration, etc.  The openib BTL will be
ignored for this job.

  Local host: c08b01n07
--------------------------------------------------------------------------
[c08b01n07:2587752] 60 more processes have sent help message help-mpi-btl-openib.txt / error in device init
[c08b01n07:2587752] Set MCA parameter "orte_base_help_aggregate" to 0 to see all help / error messages
[c08b01n07:2587752] 2 more processes have sent help message help-mpi-btl-openib.txt / no active ports found


           ************************************************************
           *        Program running with 64 parallel MPI-processes    *
           *              working on a common directory               *
           ************************************************************
------------------------------------------------------------------------------
                             ORCA STARTUP CALCULATIONS
                           -- RI-GTO INTEGRALS CHOSEN --
------------------------------------------------------------------------------
------------------------------------------------------------------------------
                   ___                                                        
                  /   \      - P O W E R E D   B Y -                         
                 /     \                                                     
                 |  |  |   _    _      __       _____    __    __             
                 |  |  |  | |  | |    /  \     |  _  \  |  |  /  |          
                  \  \/   | |  | |   /    \    | | | |  |  | /  /          
                 / \  \   | |__| |  /  /\  \   | |_| |  |  |/  /          
                |  |  |   |  __  | /  /__\  \  |    /   |      \           
                |  |  |   | |  | | |   __   |  |    \   |  |\   \          
                \     /   | |  | | |  |  |  |  | |\  \  |  | \   \       
                 \___/    |_|  |_| |__|  |__|  |_| \__\ |__|  \__/        
                                                                              
                      - O R C A' S   B I G   F R I E N D -                    
                                      &                                       
                       - I N T E G R A L  F E E D E R -                       
                                                                              
 v1 FN, 2020, v2 2021, v3 2022-2024                                           
------------------------------------------------------------------------------


----------------------
SHARK INTEGRAL PACKAGE
----------------------

Number of atoms                             ...     82
Number of basis functions                   ...   1542
Number of shells                            ...    622
Maximum angular momentum                    ...      3
Integral batch strategy                     ... SHARK/LIBINT Hybrid
RI-J (if used) integral strategy            ... SPLIT-RIJ (Revised 2003 algorithm where possible)
Printlevel                                  ...      1
Contraction scheme used                     ... SEGMENTED contraction
Prescreening option                         ... SCHWARTZ
   Thresh                                   ... 2.500e-11
   Tcut                                     ... 2.500e-12
   Tpresel                                  ... 2.500e-12 
Coulomb Range Separation                    ... NOT USED
Exchange Range Separation                   ... NOT USED
Multipole approximations                    ... NOT USED
Finite Nucleus Model                        ... NOT USED
CABS basis                                  ... NOT available
Auxiliary Coulomb fitting basis             ... AVAILABLE
   # of basis functions in Aux-J            ...   2498
   # of shells in Aux-J                     ...    830
   Maximum angular momentum in Aux-J        ...      4
Auxiliary J/K fitting basis                 ... NOT available
Auxiliary Correlation fitting basis         ... NOT available
Auxiliary 'external' fitting basis          ... NOT available

Checking pre-screening integrals            ... done (  0.3 sec) Dimension = 622
   => SHARK Basis and OBASIS are compatible. Storing Pre-screening
Shell pair information
Shell pair cut-off parameter TPreSel        ...   2.5e-12
Total number of shell pairs                 ...    193753
Shell pairs after pre-screening             ...    121461
Total number of primitive shell pairs       ...    584784
Primitive shell pairs kept                  ...    229766
          la=0 lb=0:  33819 shell pairs
          la=1 lb=0:  36162 shell pairs
          la=1 lb=1:   9744 shell pairs
          la=2 lb=0:  16499 shell pairs
          la=2 lb=1:   9013 shell pairs
          la=2 lb=2:   2078 shell pairs
          la=3 lb=0:   7559 shell pairs
          la=3 lb=1:   4247 shell pairs
          la=3 lb=2:   1877 shell pairs
          la=3 lb=3:    463 shell pairs

Checking whether 4 symmetric matrices of dimension 1542 fit in memory
:Max Core in MB      =   6000.00
 MB in use           =    145.50
 MB left             =   5854.50
 MB needed           =     36.31
 Data fit in memory  = YES
Calculating RI/J V-Matrix + Cholesky decomp.... done (  4.9 sec)
Calculating Nuclear repulsion               ... done (  0.0 sec) ENN=   5929.319051392422 Eh

Diagonalization of the overlap matrix:
Smallest eigenvalue                        ... 2.284e-06
Time for diagonalization                   ...   31.539 sec
Threshold for overlap eigenvalues          ... 1.000e-07
Number of eigenvalues below threshold      ... 0
Time for construction of square roots      ...    1.700 sec
Total time needed                          ...   33.532 sec

-------------------
DFT GRID GENERATION
-------------------

General Integration Accuracy     IntAcc      ... 4.388
Radial Grid Type                 RadialGrid  ... OptM3 with GC (2021)
Angular Grid (max. ang.)         AngularGrid ... 4 (Lebedev-302)
Angular grid pruning method      GridPruning ... 4 (adaptive)
Weight generation scheme         WeightScheme... mBecke (2022)
Basis function cutoff            BFCut       ... 1.0000e-11
Integration weight cutoff        WCut        ... 1.0000e-14
Partially contracted basis set               ... off
Rotationally invariant grid construction     ... off
Angular grids for H and He will be reduced by one unit

Total number of grid points                  ...   373040
Total number of batches                      ...     5869
Average number of points per batch           ...       63
Average number of grid points per atom       ...     4549

--------------------
COSX GRID GENERATION
--------------------

GRIDX 1
-------
General Integration Accuracy     IntAcc      ... 3.816
Radial Grid Type                 RadialGrid  ... OptM3 with GC (2021)
Angular Grid (max. ang.)         AngularGrid ... 1 (Lebedev-50)
Angular grid pruning method      GridPruning ... 4 (adaptive)
Weight generation scheme         WeightScheme... mBecke (2022)
Basis function cutoff            BFCut       ... 1.0000e-11
Integration weight cutoff        WCut        ... 1.0000e-14
Partially contracted basis set               ... on
Rotationally invariant grid construction     ... off
Angular grids for H and He will be reduced by one unit

Total number of grid points                  ...    47186
Total number of batches                      ...      411
Average number of points per batch           ...      114
Average number of grid points per atom       ...      575
UseSFitting                                  ... on

GRIDX 2
-------
General Integration Accuracy     IntAcc      ... 4.020
Radial Grid Type                 RadialGrid  ... OptM3 with GC (2021)
Angular Grid (max. ang.)         AngularGrid ... 2 (Lebedev-110)
Angular grid pruning method      GridPruning ... 4 (adaptive)
Weight generation scheme         WeightScheme... mBecke (2022)
Basis function cutoff            BFCut       ... 1.0000e-11
[...]
freq.     653.32  E(vib)   ...       0.08 
freq.     657.65  E(vib)   ...       0.08 
freq.     670.33  E(vib)   ...       0.08 
freq.     713.14  E(vib)   ...       0.07 
freq.     729.69  E(vib)   ...       0.06 
freq.     736.63  E(vib)   ...       0.06 
freq.     742.42  E(vib)   ...       0.06 
freq.     744.70  E(vib)   ...       0.06 
freq.     754.14  E(vib)   ...       0.06 
freq.     760.51  E(vib)   ...       0.06 
freq.     769.03  E(vib)   ...       0.06 
freq.     800.83  E(vib)   ...       0.05 
freq.     809.32  E(vib)   ...       0.05 
freq.     818.19  E(vib)   ...       0.05 
freq.     831.74  E(vib)   ...       0.04 
freq.     834.43  E(vib)   ...       0.04 
freq.     849.13  E(vib)   ...       0.04 
freq.     853.84  E(vib)   ...       0.04 
freq.     873.61  E(vib)   ...       0.04 
freq.     890.99  E(vib)   ...       0.04 
freq.     892.82  E(vib)   ...       0.03 
freq.     906.94  E(vib)   ...       0.03 
freq.     909.19  E(vib)   ...       0.03 
freq.     913.18  E(vib)   ...       0.03 
freq.     928.67  E(vib)   ...       0.03 
freq.     932.39  E(vib)   ...       0.03 
freq.     943.09  E(vib)   ...       0.03 
freq.     948.04  E(vib)   ...       0.03 
freq.     950.43  E(vib)   ...       0.03 
freq.     971.29  E(vib)   ...       0.03 
freq.     984.37  E(vib)   ...       0.02 
freq.     994.40  E(vib)   ...       0.02 
freq.    1012.14  E(vib)   ...       0.02 
freq.    1027.94  E(vib)   ...       0.02 
freq.    1040.77  E(vib)   ...       0.02 
freq.    1047.41  E(vib)   ...       0.02 
freq.    1048.89  E(vib)   ...       0.02 
freq.    1049.69  E(vib)   ...       0.02 
freq.    1059.08  E(vib)   ...       0.02 
freq.    1063.38  E(vib)   ...       0.02 
freq.    1069.49  E(vib)   ...       0.02 
freq.    1095.47  E(vib)   ...       0.02 
freq.    1104.54  E(vib)   ...       0.02 
freq.    1116.31  E(vib)   ...       0.01 
freq.    1124.70  E(vib)   ...       0.01 
freq.    1139.90  E(vib)   ...       0.01 
freq.    1147.14  E(vib)   ...       0.01 
freq.    1148.26  E(vib)   ...       0.01 
freq.    1165.76  E(vib)   ...       0.01 
freq.    1170.35  E(vib)   ...       0.01 
freq.    1170.77  E(vib)   ...       0.01 
freq.    1170.97  E(vib)   ...       0.01 
freq.    1171.66  E(vib)   ...       0.01 
freq.    1171.95  E(vib)   ...       0.01 
freq.    1181.35  E(vib)   ...       0.01 
freq.    1185.98  E(vib)   ...       0.01 
freq.    1196.41  E(vib)   ...       0.01 
freq.    1203.36  E(vib)   ...       0.01 
freq.    1207.98  E(vib)   ...       0.01 
freq.    1209.24  E(vib)   ...       0.01 
freq.    1214.35  E(vib)   ...       0.01 
freq.    1220.49  E(vib)   ...       0.01 
freq.    1221.01  E(vib)   ...       0.01 
freq.    1230.23  E(vib)   ...       0.01 
freq.    1238.34  E(vib)   ...       0.01 
freq.    1244.71  E(vib)   ...       0.01 
freq.    1246.84  E(vib)   ...       0.01 
freq.    1250.03  E(vib)   ...       0.01 
freq.    1251.88  E(vib)   ...       0.01 
freq.    1274.53  E(vib)   ...       0.01 
freq.    1276.59  E(vib)   ...       0.01 
freq.    1287.47  E(vib)   ...       0.01 
freq.    1287.78  E(vib)   ...       0.01 
freq.    1295.34  E(vib)   ...       0.01 
freq.    1295.66  E(vib)   ...       0.01 
freq.    1302.46  E(vib)   ...       0.01 
freq.    1316.44  E(vib)   ...       0.01 
freq.    1324.80  E(vib)   ...       0.01 
freq.    1347.11  E(vib)   ...       0.01 
freq.    1351.29  E(vib)   ...       0.01 
freq.    1351.69  E(vib)   ...       0.01 
freq.    1359.34  E(vib)   ...       0.01 
freq.    1365.81  E(vib)   ...       0.01 
freq.    1366.58  E(vib)   ...       0.01 
freq.    1372.34  E(vib)   ...       0.01 
freq.    1382.21  E(vib)   ...       0.01 
freq.    1382.34  E(vib)   ...       0.01 
freq.    1397.06  E(vib)   ...       0.00 
freq.    1398.92  E(vib)   ...       0.00 
freq.    1403.52  E(vib)   ...       0.00 
freq.    1407.86  E(vib)   ...       0.00 
freq.    1417.98  E(vib)   ...       0.00 
freq.    1428.74  E(vib)   ...       0.00 
freq.    1431.36  E(vib)   ...       0.00 
freq.    1450.90  E(vib)   ...       0.00 
freq.    1454.40  E(vib)   ...       0.00 
freq.    1459.41  E(vib)   ...       0.00 
freq.    1461.05  E(vib)   ...       0.00 
freq.    1477.10  E(vib)   ...       0.00 
freq.    1478.95  E(vib)   ...       0.00 
freq.    1479.72  E(vib)   ...       0.00 
freq.    1479.81  E(vib)   ...       0.00 
freq.    1480.78  E(vib)   ...       0.00 
freq.    1481.42  E(vib)   ...       0.00 
freq.    1482.66  E(vib)   ...       0.00 
freq.    1483.16  E(vib)   ...       0.00 
freq.    1484.35  E(vib)   ...       0.00 
freq.    1489.30  E(vib)   ...       0.00 
freq.    1490.95  E(vib)   ...       0.00 
freq.    1491.74  E(vib)   ...       0.00 
freq.    1492.72  E(vib)   ...       0.00 
freq.    1493.30  E(vib)   ...       0.00 
freq.    1493.45  E(vib)   ...       0.00 
freq.    1495.92  E(vib)   ...       0.00 
freq.    1502.32  E(vib)   ...       0.00 
freq.    1540.30  E(vib)   ...       0.00 
freq.    1541.85  E(vib)   ...       0.00 
freq.    1542.62  E(vib)   ...       0.00 
freq.    1633.33  E(vib)   ...       0.00 
freq.    1641.67  E(vib)   ...       0.00 
freq.    1642.17  E(vib)   ...       0.00 
freq.    1643.29  E(vib)   ...       0.00 
freq.    1648.21  E(vib)   ...       0.00 
freq.    1650.64  E(vib)   ...       0.00 
freq.    2986.89  E(vib)   ...       0.00 
freq.    3014.77  E(vib)   ...       0.00 
freq.    3018.17  E(vib)   ...       0.00 
freq.    3019.51  E(vib)   ...       0.00 
freq.    3023.00  E(vib)   ...       0.00 
freq.    3025.52  E(vib)   ...       0.00 
freq.    3027.59  E(vib)   ...       0.00 
freq.    3029.09  E(vib)   ...       0.00 
freq.    3030.99  E(vib)   ...       0.00 
freq.    3033.96  E(vib)   ...       0.00 
freq.    3038.09  E(vib)   ...       0.00 
freq.    3045.35  E(vib)   ...       0.00 
freq.    3054.62  E(vib)   ...       0.00 
freq.    3066.69  E(vib)   ...       0.00 
freq.    3083.64  E(vib)   ...       0.00 
freq.    3085.88  E(vib)   ...       0.00 
freq.    3087.65  E(vib)   ...       0.00 
freq.    3090.16  E(vib)   ...       0.00 
freq.    3093.66  E(vib)   ...       0.00 
freq.    3097.53  E(vib)   ...       0.00 
freq.    3101.08  E(vib)   ...       0.00 
freq.    3103.74  E(vib)   ...       0.00 
freq.    3138.39  E(vib)   ...       0.00 
freq.    3142.04  E(vib)   ...       0.00 
freq.    3142.57  E(vib)   ...       0.00 
freq.    3143.20  E(vib)   ...       0.00 
freq.    3167.95  E(vib)   ...       0.00 
freq.    3171.17  E(vib)   ...       0.00 
freq.    3185.09  E(vib)   ...       0.00 
freq.    3187.24  E(vib)   ...       0.00 
freq.    3198.19  E(vib)   ...       0.00 
freq.    3208.18  E(vib)   ...       0.00 
freq.    3214.07  E(vib)   ...       0.00 
freq.    3226.43  E(vib)   ...       0.00 
freq.    3581.01  E(vib)   ...       0.00 
freq.    3609.77  E(vib)   ...       0.00 
freq.    3724.74  E(vib)   ...       0.00 
freq.    3725.78  E(vib)   ...       0.00 
freq.    3735.09  E(vib)   ...       0.00 
freq.    3783.21  E(vib)   ...       0.00 

------------
INNER ENERGY
------------

The inner energy is: U= E(el) + E(ZPE) + E(vib) + E(rot) + E(trans)
    E(el)   - is the total energy from the electronic structure calculation
              = E(kin-el) + E(nuc-el) + E(el-el) + E(nuc-nuc)
    E(ZPE)  - the the zero temperature vibrational energy from the frequency calculation
    E(vib)  - the the finite temperature correction to E(ZPE) due to population
              of excited vibrational states
    E(rot)  - is the rotational thermal energy
    E(trans)- is the translational thermal energy

Summary of contributions to the inner energy U:
Electronic energy                ...  -2032.64063497 Eh
Zero point energy                ...      0.67966773 Eh     426.50 kcal/mol
Thermal vibrational correction   ...      0.03989655 Eh      25.04 kcal/mol
Thermal rotational correction    ...      0.00141627 Eh       0.89 kcal/mol
Thermal translational correction ...      0.00141627 Eh       0.89 kcal/mol
-----------------------------------------------------------------------
Total thermal energy                  -2031.91823815 Eh


Summary of corrections to the electronic energy:
(perhaps to be used in another calculation)
Total thermal correction                  0.04272909 Eh      26.81 kcal/mol
Non-thermal (ZPE) correction              0.67966773 Eh     426.50 kcal/mol
-----------------------------------------------------------------------
Total correction                          0.72239682 Eh     453.31 kcal/mol


--------
ENTHALPY
--------

The enthalpy is H = U + kB*T
                kB is Boltzmann's constant
Total thermal energy              ...  -2031.91823815 Eh 
Thermal Enthalpy correction       ...      0.00094421 Eh       0.59 kcal/mol
-----------------------------------------------------------------------
Total Enthalpy                    ...  -2031.91729394 Eh


Note: Only C1 symmetry has been detected, increase convergence thresholds 
      if your molecule has a higher symmetry. Symmetry factor of 1.0 is   
      used for the rotational entropy correction. 
 

Note: Rotational entropy computed according to Herzberg 
Infrared and Raman Spectra, Chapter V,1, Van Nostrand Reinhold, 1945 
Point Group:  C1, Symmetry Number:   1  
Rotational constants in cm-1:     0.003402     0.002748     0.002051 

Vibrational entropy computed according to the QRRHO of S. Grimme
Chem.Eur.J. 2012 18 9955 using a reference frequency of 100.0 cm-1


-------
ENTROPY
-------

The entropy contributions are T*S = T*(S(el)+S(vib)+S(rot)+S(trans))
     S(el)   - electronic entropy
     S(vib)  - vibrational entropy
     S(rot)  - rotational entropy
     S(trans)- translational entropy
The entropies will be listed as multiplied by the temperature to get
units of energy

Electronic entropy                ...      0.00000000 Eh      0.00 kcal/mol
Vibrational entropy               ...      0.07117106 Eh     44.66 kcal/mol
Rotational entropy                ...      0.01789984 Eh     11.23 kcal/mol
Translational entropy             ...      0.02138181 Eh     13.42 kcal/mol
-----------------------------------------------------------------------
Final entropy term                ...      0.11045272 Eh     69.31 kcal/mol

In case the symmetry of your molecule has not been determined correctly
or in case you have a reason to use a different symmetry number we print 
out the resulting rotational entropy values for sn=1,12:

 non-linear molecules -----------------------------------
|  sn= 1 | S(rot)=       0.01789984 Eh     11.23 kcal/mol|
|  sn= 2 | S(rot)=       0.01724539 Eh     10.82 kcal/mol|
|  sn= 3 | S(rot)=       0.01686255 Eh     10.58 kcal/mol|
|  sn= 4 | S(rot)=       0.01659093 Eh     10.41 kcal/mol|
|  sn= 5 | S(rot)=       0.01638024 Eh     10.28 kcal/mol|
|  sn= 6 | S(rot)=       0.01620810 Eh     10.17 kcal/mol|
|  sn= 7 | S(rot)=       0.01606255 Eh     10.08 kcal/mol|
|  sn= 8 | S(rot)=       0.01593647 Eh     10.00 kcal/mol|
|  sn= 9 | S(rot)=       0.01582527 Eh      9.93 kcal/mol|
|  sn=10 | S(rot)=       0.01572579 Eh      9.87 kcal/mol|
|  sn=11 | S(rot)=       0.01563580 Eh      9.81 kcal/mol|
|  sn=12 | S(rot)=       0.01555364 Eh      9.76 kcal/mol|
 linear molecules ---------------------------------------
|  Dinfh | S(rot)=       0.01116981 Eh      7.01 kcal/mol|
|  Cinfv | S(rot)=       0.01182427 Eh      7.42 kcal/mol|
 --------------------------------------------------------


-------------------
GIBBS FREE ENERGY
-------------------

The Gibbs free energy is G = H - T*S

Total enthalpy                    ...  -2031.91729394 Eh 
Total entropy correction          ...     -0.11045272 Eh    -69.31 kcal/mol
-----------------------------------------------------------------------
Final Gibbs free energy         ...  -2032.02774666 Eh

For completeness - the Gibbs free energy minus the electronic energy
G-E(el)                           ...      0.61288831 Eh    384.59 kcal/mol


Maximum memory used throughout the entire PROP-calculation: 1829.6 MB
--------------------------------------------------------------------------
WARNING: There was an error initializing an OpenFabrics device.

  Local host:   c08b01n07
  Local device: mlx5_0
--------------------------------------------------------------------------
--------------------------------------------------------------------------
WARNING: There is at least one non-excluded one OpenFabrics device found,
but there are no active ports detected (or Open MPI was unable to use
them).  This is most certainly not what you wanted.  Check your
cables, subnet manager configuration, etc.  The openib BTL will be
ignored for this job.

  Local host: c08b01n07
--------------------------------------------------------------------------
[c08b01n07:2690686] 57 more processes have sent help message help-mpi-btl-openib.txt / error in device init
[c08b01n07:2690686] Set MCA parameter "orte_base_help_aggregate" to 0 to see all help / error messages
[c08b01n07:2690686] 5 more processes have sent help message help-mpi-btl-openib.txt / no active ports found

--------------------------------
SUGGESTED CITATIONS FOR THIS RUN
--------------------------------

Below you find a list of papers that are relevant to this ORCA run
We neither can nor want to force you to cite these papers, but we appreciate if you do
You receive ORCA, which is the product of decades of hard work by many enthusiastic individuals, for free
The only thing we kindly ask in return is that you cite our papers,
We deeply appreciate it, if you show your appreciation for ORCA by not just citing the generic ORCA reference.

Please note that relegating all ORCA citations to the supporting information does *not* help us.
SI sections are not indexed - citations you put there will not count into any citation statistics
But we need these citations in order to attract the funding resources that allow us to do what we are doing

Therefore, if you are a happy ORCA user, please consider citing a few of the papers listed below in the main body of your paper

In addition to the list printed below, the program has created the file opt-conf-0.bibtex that contains the list in bibtex format
You can import this file easily into all common literature databanks and citation aid programs


List of essential papers. We consider these as the minimum necessary citations

  1. Neese, F.
     Software update: the ORCA program system, version 6.0
     WIRES Comput. Molec. Sci. 2025 15(1), e70019
     doi.org/10.1002/wcms.7019

List of papers to cite with high priority. The work reported in these papers was absolutely
necessary for this run to complete.
Our perspective: the developers of density functionals and basis sets usually get cited in chemistry papers
Good! But without the algorithms to do something with them, the functionals or basis sets would not do anything.
Hence, in our opinion, the algorithm design and method developments papers are equally worthy of getting cited

  1. Neese, F.
     An improvement of the resolution of the identity approximation for the formation of the Coulomb matrix
     J. Comp. Chem. 2003 24(14), 1740-1747
     doi.org/10.1002/jcc.10318
  2. Neese, F.; Wennmohs, F.; Hansen, A.; Becker, U.
     Efficient, approximate and parallel Hartree-Fock and hybrid DFT calculations. A 'chain-of-spheres' algorithm for the Hartree-Fock exchange
     Chem. Phys. 2009 356(1-3), 98-109
     doi.org/10.1016/j.chemphys.2008.10.036
  3. Bykov, D.; Petrenko, T.; Izsak, R.; Kossmann, S.; Becker, U.; Valeev, E.; Neese, F.
     Efficient implementation of the analytic second derivatives of Hartree-Fock and hybrid DFT energies: a detailed analysis of different approximations
     Molec. Phys. 2015 113 , 1961-1977
     doi.org/10.1080/00268976.2015.1025114
  4. Caldeweyher, E.; Bannwarth, C.; Grimme, S.
     Extension of the D3 dispersion coefficient model
     J. Chem. Phys. 2017 147 , 034112
     doi.org/10.1063/1.4993215
  5. Caldeweyher, E.; Ehlert, S.; Hansen, A.; Neugebauer, H.; Spicher, S.; Bannwarth, C.; Grimme, S.
     A generally applicable atomic-charge dependent London dispersion correction
     J. Chem. Phys. 2019 150 , 154122
     doi.org/10.1063/1.5090222
  6. Garcia-Rates, M.; Neese, F.
     Efficient implementation of the analytical second derivatives of hartree-fock and hybrid DFT energies within the framework of the conductor-like polarizable continuum model
     J. Comput. Chem. 2019 40 , 1816-1828
     doi.org/10.1002/jcc.25833
  7. Caldeweyher, E.; Mewes, J.; Ehlert, S.; Grimme, S.
     Extension and evaluation of the D4 London-dispersion model for periodic systems
     Phys. Chem. Chem. Phys. 2020 22(16), 8499-8512
     doi.org/10.1039/D0CP00502A
  8. Garcia-Rates, M.; Neese, F.
     Effect of the Solute Cavity on the Solvation Energy and its Derivatives within the Framework of the Gaussian Charge Scheme
     J. Comput. Chem. 2020 41 , 922-939
     doi.org/10.1002/jcc.26139
  9. Helmich-Paris, B.; de Souza, B.; Neese, F.; Izsák, R.
     An improved chain of spheres for exchange algorithm
     J. Chem. Phys. 2021 155(10), 104109
     doi.org/10.1063/5.0058766
 10. Neese, F.
     The SHARK Integral Generation and Digestion System
     J. Comp. Chem. 2022 44(3), 381
     doi.org/10.1002/jcc.26942
 11. Wittmann, L.; Gordiy, I.; Friede, M.; Helmich-Paris, B.; Grimme, S.; Hansen, A.; Bursch, M.
     Extension of the D3 and D4 London Dispersion Corrections to the full Actinides Series
     Phys. Chem. Chem. Phys. 2024 26(32), 21379-21394
     doi.org/10.1039/D4CP01514B

List of suggested additional citations. These are papers that are important in the 'surrounding' of 
of this run, or papers that preceded the highly important papers. If you like your results we are grateful for a citation.

  1. Izsak, R.; Neese, F.
     An overlap fitted chain of spheres exchange method
     J. Chem. Phys. 2011 135 , 144105
     doi.org/10.1063/1.3646921
  2. Izsak, R.; Hansen, A.; Neese, F.
     The resolution of identity and chain of spheres approximations for the LPNO-CCSD singles Fock term
     Molec. Phys. 2012 110 , 2413-2417
     doi.org/10.1080/00268976.2012.687466
  3. Neese, F.
     The ORCA program system
     WIRES Comput. Molec. Sci. 2012 2(1), 73-78
     doi.org/10.1002/wcms.81
  4. Izsak, R.; Neese, F.; Klopper, W.
     Robust fitting techniques in the chain of spheres approximation to the Fock exchange: The role of the complementary space
     J. Chem. Phys. 2013 139 , 
     doi.org/10.1063/1.4819264
  5. Neese, F.
     Software update: the ORCA program system, version 4.0
     WIRES Comput. Molec. Sci. 2018 8(1), 1-6
     doi.org/10.1002/wcms.1327
  6. Neese, F.; Wennmohs, F.; Becker, U.; Riplinger, C.
     The ORCA quantum chemistry program package
     J. Chem. Phys. 2020 152(22), 224108
     doi.org/10.1063/5.0004608
  7. Neese, F.
     Software update: The ORCA program system—Version 5.0
     WIRES Comput. Molec. Sci. 2022 12(1), e1606
     doi.org/10.1002/wcms.1606

List of optional additional citations

  1. Neese, F.
     Approximate second-order SCF convergence for spin unrestricted wavefunctions
     Chem. Phys. Lett. 2000 325(1-3), 93-98
     doi.org/10.1016/s0009-2614(00)00662-x

Timings for individual modules:

Sum of individual times          ...    21501.583 sec (= 358.360 min)
Startup calculation              ...     2109.201 sec (=  35.153 min)   9.8 %
SCF iterations                   ...    12419.657 sec (= 206.994 min)  57.8 %
Property integrals               ...     1614.068 sec (=  26.901 min)   7.5 %
SCF Response                     ...     3229.493 sec (=  53.825 min)  15.0 %
Property calculations            ...      742.178 sec (=  12.370 min)   3.5 %
SCF Gradient evaluation          ...     1376.845 sec (=  22.947 min)   6.4 %
Geometry relaxation              ...       10.141 sec (=   0.169 min)   0.0 %
                             ****ORCA TERMINATED NORMALLY****
TOTAL RUN TIME: 0 days 6 hours 6 minutes 56 seconds 237 msec
