
                                 *****************
                                 * O   R   C   A *
                                 *****************

                                            #,                                       
                                            ###                                      
                                            ####                                     
                                            #####                                    
                                            ######                                   
                                           ########,                                 
                                     ,,################,,,,,                         
                               ,,#################################,,                 
                          ,,##########################################,,             
                       ,#########################################, ''#####,          
                    ,#############################################,,   '####,        
                  ,##################################################,,,,####,       
                ,###########''''           ''''###############################       
              ,#####''   ,,,,##########,,,,          '''####'''          '####       
            ,##' ,,,,###########################,,,                        '##       
           ' ,,###''''                  '''############,,,                           
         ,,##''                                '''############,,,,        ,,,,,,###''
      ,#''                                            '''#######################'''  
     '                                                          ''''####''''         
             ,#######,   #######,   ,#######,      ##                                
            ,#'     '#,  ##    ##  ,#'     '#,    #''#        ,####,    ,#,          
            ##       ##  ##   ,#'  ##            #'  '#       #'       ,# #          
            ##       ##  #######   ##           ,######,      #####,      #          
            '#,     ,#'  ##    ##  '#,     ,#' ,#      #,     #,   #      #          
             '#######'   ##     ##  '#######'  #'      '#     '####' #    #          



                #########################################################
                #                        -***-                          #
                #          Department of theory and spectroscopy        #
                #                                                       #
                #                      Frank Neese                      #
                #                                                       #
                #     Directorship, Architecture, Infrastructure        #
                #                    SHARK, DRIVERS                     #
                #        Core code/Algorithms in most modules           #
                #                                                       #
                #        Max Planck Institute fuer Kohlenforschung      #
                #                Kaiser Wilhelm Platz 1                 #
                #                 D-45470 Muelheim/Ruhr                 #
                #                      Germany                          #
                #                                                       #
                #                  All rights reserved                  #
                #                        -***-                          #
                #########################################################


                         Program Version 6.1.0-f.0  -   RELEASE   -


 With contributions from (in alphabetic order):
[Max-Planck-Institut fuer Kohlenforschung]                               
  Daniel Aravena         : Magnetic Suceptibility                        
  Michael Atanasov       : Ab Initio Ligand Field Theory (pilot matlab implementation)
  Alexander A. Auer      : GIAO ZORA, VPT2 properties, NMR spectrum      
  Ute Becker             : All parallelization in ORCA, NUMFREQ, NUMCALC 
  Giovanni Bistoni       : ED, misc. LED, open-shell LED, HFLD           
  Dmytro Bykov           : pre 5.0 version of the SCF Hessian            
  Marcos Casanova-Páez   : Triplet and SCS-CIS(D). UHF-(DLPNO)-IP/EA/STEOM-CCSD. UHF-CVS-IP/STEOM-CCSD   
  Vijay G. Chilkuri      : MRCI spin determinant printing, contributions to CSF-ICE 
  Pauline Colinet        : FMM embedding                                 
  Dipayan Datta          : RHF DLPNO-CCSD density                        
  Achintya Kumar Dutta   : EOM-CC, STEOM-CC                              
  Nicolas Foglia         : Exact transition moments, OPA infrastructure, MCD improvements    
  Dmitry Ganyushin       : Spin-Orbit,Spin-Spin,Magnetic field MRCI      
  Miquel Garcia-Rates    : C-PCM and meta-GGA Hessian, CCSD/C-PCM, Gaussian charge scheme 
  Tiago L. C. Gouveia    : GS-ROHF, GS-ROCIS                             
  Yang Guo               : DLPNO-NEVPT2, F12-NEVPT2, CIM, IAO-localization        
  Andreas Hansen         : Spin unrestricted coupled pair/coupled cluster methods 
  Ingolf Harden          : AUTO-CI MPn and infrastructure                
  Benjamin Helmich-Paris : MC-RPA, TRAH-(SCF,CASSCF), AVAS, COSX integrals, SCF dyn. polar., MC-PDFT, srDFT 
  Lee Huntington         : MR-EOM, pCC                                   
  Robert Izsak           : Overlap fitted RIJCOSX, COSX-SCS-MP3, EOM     
  Riya Kayal             : Wick's Theorem for AUTO-CI, AUTO-CI UHF-CCSDT 
  Emily Kempfer          : AUTO-CI RHF CISDT and CCSDT, approximate NEVPT4
  Christian Kollmar      : KDIIS, OOCD, Brueckner-CCSD(T), CCSD density, CASPT2, CASPT2-K, improved NEVPT2 
  Axel Koslowski         : Symmetry handling                             
  Simone Kossmann        : meta-GGA functionals, TD-DFT gradient, OOMP2, (MP2 Hessian; deprecated post 5.0) 
  Lucas Lang             : DCDCAS, Hyperfine gauge corrections, ICE-SOC+SSC
  Marvin Lechner         : AUTO-CI (C++ implementation), FIC-MRCC        
  Spencer Leger          : CASSCF response                               
  Dagmar Lenk            : GEPOL surface, SMD, ORCA-2-JSON               
  Dimitrios Liakos       : Extrapolation schemes; Compound Job, Property file
  Dimitrios Manganas     : Further ROCIS development; embedding schemes. LFT, Crystal Embedding 
  Dimitrios Pantazis     : SARC Basis sets                               
  Anastasios Papadopoulos: AUTO-CI, single reference methods and gradients 
  Taras Petrenko         : pre 6.0 DFT Hessian and TD-DFT gradient,  ECA, NRVS 
  Petra Pikulova         : Analytic Raman intensities                    
  Peter Pinski           : DLPNO-MP2, DLPNO-MP2 Gradient                 
  Shashank Vittal Rao    : ES-AILFT, MagRelax                            
  Christoph Reimann      : Effective Core Potentials                     
  Marius Retegan         : Local ZFS, SOC                                
  Christoph Riplinger    : Optimizer, TS searches, QM/MM, DLPNO-CCSD(T), (RO)-DLPNO pert. Triples 
  Michael Roemelt        : Original ROCIS implementation, recursive CI coupling coefficients
  Masaaki Saitow         : Open-shell DLPNO-CCSD energy and density      
  Barbara Sandhoefer     : DKH picture change effects                    
  Yorick L. A. Schmerwitz: GMF and freeze-and-release deltaSCF, NEB S-IDPP initial path                    
  Kantharuban Sivalingam : CASSCF convergence/infrastructure, NEVPT2, NEVPT3, NEVPT4(SD), FIC-MRCI and CEPA variants
  Bernardo de Souza      : ESD, SOC TD-DFT                               
  Georgi L. Stoychev     : AutoAux, RI-MP2 NMR, DLPNO-MP2 response, X2C  
  Van Anh Tran           : RI-MP2 g-tensors                              
  Willem Van den Heuvel  : Paramagnetic NMR                              
  Zikuan Wang            : NOTCH, Electric field optimization            
  Frank Wennmohs         : Technical directorship and infrastructure     
  Hang Xu                : AUTO-CI-Response properties                   
                                                                         
[FACCTs GmbH]                                                            
  Markus Bursch, Nicolas Foglia, Miquel Garcia-Rates, Ingolf Harden, Hagen Neugebauer, Anastasios Papadopoulos, 
  Christoph Riplinger, Bernardo de Souza, Georgi L. Stoychev                                                    
                                                                 
  APM, various basis sets, CI-OPT, improved COSX, DLPNO-Multilevel,           
  DOCKER, DRACO, updates on ESD, Fragmentator, GOAT, IRC, LR-CPCM, L-BFGS, MBIS, meta-GGA TD-DFT gradient, ML-optimized integration grids, 
  MM, NACMEs, nearIR, NEB, NEB-TS, NL-DFT gradient (VV10), 2- and 3-layer-ONIOM, interface openCOSMO-RS, QMMM,   
  Crystal-QMMM, RESP, rigid body optimization, SF, symmetry and pop. for TD-DFT, various functionals, SOLVATOR                                   
                                                                         
[Other institutions]                                                     
  V. Asgeirsson          : NEB                                           
  Christoph Bannwarth    : sTDA-DFT, sTD-DFT, PBEh-3c, B97-3c, D3        
  Giovanni Bistoni       : ETS/NOCV, ADLD/ADEX, COVALED                  
  Martin Brehm           : Molecular dynamics                            
  Ronald Cardenas        : ETS/NOCV                                      
  Martina Colucci        : COVALED                                       
  Sebastian Ehlert       : rSCAN, r2SCAN, r2SCAN-3c, D4, dhf basis sets  
  Marvin Friede          : D4 for Fr, Ra, Ac-Lr                          
  Lars Goerigk           : TD-DFT with DH, B97 family of functionals     
  Stefan Grimme          : VdW corrections, initial TS optimization, DFT functionals, gCP, sTDA/sTD-DF 
  Waldemar Hujo          : DFT-NL                                        
  H. Jonsson             : NEB                                           
  Holger Kruse           : gCP                                           
  Marcel Mueller         : wB97X-3c, vDZP basis set                      
  Hagen Neugebauer       : wr2SCAN, Native XTB                           
  Gianluca Regni         : ADLD/ADEX                                     
  Tobias Risthaus        : pre 6.0 range-separated hybrid DFT and stability analysis
  Lukas Wittmann         : regularized MP2, r2SCAN double-hybrids, wr2SCAN        
                                                                         
We gratefully acknowledge several colleagues who have allowed us to      
interface, adapt or use parts of their codes:                            
  Ed Valeev, F. Pavosevic, A. Kumar             : LibInt (2-el integral package), F12 methods 
  Garnet Chan, S. Sharma, J. Yang, R. Olivares  : DMRG                   
  Ulf Ekstrom                                   : XCFun DFT Library      
  Mihaly Kallay                                 : mrcc  (arbitrary order and MRCC methods)
  Frank Weinhold                                : gennbo (NPA and NBO analysis)           
  Simon Mueller                                 : openCOSMO-RS                            
  Christopher J. Cramer and Donald G. Truhlar   : smd solvation model                     
  S Lehtola, MJT Oliveira, MAL Marques          : LibXC Library                           
  Liviu Ungur et al                             : ANISO software                          


 Your calculation uses the libint2 library for the computation of 2-el integrals
 For citations please refer to: http://libint.valeyev.net

 Your ORCA version has been built with support for libXC version: 7.0.0
 For citations please refer to: https://libxc.gitlab.io

 This ORCA versions uses:
   CBLAS   interface :  Fast vector & matrix operations
   LAPACKE interface :  Fast linear algebra routines
   SCALAPACK package :  Parallel linear algebra routines
   Shared memory     :  Shared parallel matrices
   BLAS/LAPACK       :  OpenBLAS 0.3.29  USE64BITINT DYNAMIC_ARCH NO_AFFINITY Cooperlake SINGLE_THREADED
        Core in use  :  Cooperlake
   Copyright (c) 2011-2014, The OpenBLAS Project


  ***********************************
  * Starting time: Tue Mar  3 23:15:05 2026
  * Host name:     c03b01n07
  * Process ID:    2691633
  * Working dir.:  /lustre1/jiangy/jiangy_liuxy/NMR/B9D7C2-SSRR
  ***********************************

NOTE: MaxCore=6000 MB was set to SCF,MP2,MDCI,CIPSI,MRCI,RASCI and CIS
      => If you want to overwrite this, your respective input block should be placed after the MaxCore statement


***************************************
The coordinates will be read from file: conf-3.xyz
***************************************


Your calculation utilizes the atom-pairwise dispersion correction
based on EEQ partial charges (D4)


Warning: RI is on but no J-basis has been assigned. Assigning Def2/J (nothing to worry about!)
================================================================================

----- Orbital basis set information -----
Your calculation utilizes the basis: def2-TZVP
   F. Weigend and R. Ahlrichs, Phys. Chem. Chem. Phys. 7, 3297 (2005).

----- AuxJ basis set information -----
Your calculation utilizes the auxiliary basis: def2/J
   H-Rn: F. Weigend, Phys. Chem. Chem. Phys. 8, 1057 (2006).
   Fr-Lr: K. Eichkorn, F. Weigend, O. Treutler, R. Ahlrichs; Theor. Chem. Acc. 97, 119 (1997).

================================================================================
                                        WARNINGS
                       Please study these warnings very carefully!
================================================================================


WARNING: Geometry Optimization
  ===> : Switching off AutoStart
         For restart on a previous wavefunction, please use MOREAD

================================================================================
                                       INPUT FILE
================================================================================
NAME = opt-conf-3.inp
|  1> ! B3LYP OPT FREQ DEF2-TZVP D4 CPCM(Methanol) 
|  2> ! TightOpt
|  3> %pal nprocs 64 end
|  4> %maxcore 6000
|  5> 
|  6> %cpcm
|  7> end
|  8> 
|  9> %freq
| 10>    Temp 298.15
| 11> end
| 12> 
| 13> * xyzfile 0 1 conf-3.xyz
| 14> 
| 15> 
| 16>                          ****END OF INPUT****
================================================================================

                       *****************************
                       * Geometry Optimization Run *
                       *****************************

Geometry optimization settings:
Update method            Update   .... BFGS
Choice of coordinates    CoordSys .... (2022) Redundant Internals
Initial Hessian          InHess   .... Almloef's Model
Max. no of cycles        MaxIter  .... 246

Convergence Tolerances:
Energy Change            TolE     ....  1.0000e-06 Eh
Max. Gradient            TolMAXG  ....  1.0000e-04 Eh/bohr
RMS Gradient             TolRMSG  ....  3.0000e-05 Eh/bohr
Max. Displacement        TolMAXD  ....  1.0000e-03 bohr
RMS Displacement         TolRMSD  ....  6.0000e-04 bohr
Strict Convergence                .... False

------------------------------------------------------------------------------
                        ORCA OPTIMIZATION COORDINATE SETUP
------------------------------------------------------------------------------

The optimization will be done in redundant internal coordinates (2022)
Making redundant internal coordinates   ...  (2022 redundants) done
Evaluating the initial hessian          ...  (Almloef) done
Evaluating the coordinates              ...  done
Calculating the B-matrix                .... done
Calculating the G-matrix                .... done
The number of degrees of freedom        ....  408

    -----------------------------------------------------------------
                    Redundant Internal Coordinates


    -----------------------------------------------------------------
         Definition                    Initial Value    Approx d2E/dq
    -----------------------------------------------------------------
      1. B(C   1,C   0)                  1.4012         0.599667   
      2. B(C   2,C   1)                  1.4013         0.599398   
      3. B(C   3,C   2)                  1.3853         0.635784   
      4. B(C   4,C   3)                  1.3877         0.630148   
      5. B(C   5,C   4)                  1.3847         0.636986   
      6. B(C   5,C   0)                  1.3881         0.629193   
      7. B(C   6,C   4)                  1.5001         0.416937   
      8. B(C   7,C   6)                  1.5420         0.357527   
      9. B(C   8,C   7)                  1.5463         0.351805   
     10. B(C   9,C   8)                  1.5424         0.356970   
     11. B(C  10,C   9)                  1.5055         0.408733   
     12. B(C  11,C  10)                  1.3934         0.617074   
     13. B(C  12,C  11)                  1.3822         0.643008   
     14. B(C  13,C  12)                  1.4067         0.587551   
     15. B(C  14,C  13)                  1.3854         0.635340   
     16. B(C  15,C  10)                  1.3838         0.639281   
     17. B(C  15,C  14)                  1.3850         0.636288   
     18. B(C  16,C   7)                  1.5405         0.359420   
     19. B(C  17,C   8)                  1.5392         0.361160   
     20. B(O  18,C   2)                  1.3753         0.590587   
     21. B(O  19,C   0)                  1.3585         0.628324   
     22. B(O  20,C   1)                  1.3725         0.596850   
     23. B(O  21,C  13)                  1.3532         0.640492   
     24. B(O  22,C  12)                  1.3778         0.585207   
     25. B(C  23,O  20)                  1.4231         0.495514   
     26. B(C  24,C  23)                  1.5509         0.345910   
     27. B(C  25,C  24)                  1.5168         0.392146   
     28. B(C  26,C  23)                  1.5330         0.369419   
     29. B(O  27,C  26)                  1.4026         0.534242   
     30. B(C  28,C  25)                  1.3900         0.624735   
     31. B(C  29,C  28)                  1.3820         0.643424   
     32. B(C  30,C  29)                  1.4033         0.594994   
     33. B(C  31,C  30)                  1.3842         0.638351   
     34. B(C  32,C  31)                  1.3836         0.639748   
     35. B(C  32,C  25)                  1.3861         0.633758   
     36. B(C  33,O  19)                  1.4091         0.521714   
     37. B(C  34,O  18)                  1.4054         0.528737   
     38. B(C  35,O  22)                  1.4071         0.525506   
     39. B(O  36,C  24)                  1.4019         0.535715   
     40. B(O  37,C  16)                  1.4015         0.536546   
     41. B(O  38,C  17)                  1.4129         0.514392   
     42. B(O  39,C  29)                  1.3783         0.584138   
     43. B(O  40,C  30)                  1.3605         0.623574   
     44. B(C  41,O  39)                  1.4043         0.531014   
     45. B(H  42,C   3)                  1.0794         0.374432   
     46. B(H  43,C   5)                  1.0767         0.378190   
     47. B(H  44,C   6)                  1.0914         0.358211   
     48. B(H  45,C   6)                  1.0915         0.358069   
     49. B(H  46,C   7)                  1.0938         0.355149   
     50. B(H  47,C   8)                  1.0946         0.354116   
     51. B(H  48,C   9)                  1.0911         0.358678   
     52. B(H  49,C   9)                  1.0956         0.352769   
     53. B(H  50,C  11)                  1.0794         0.374450   
     54. B(H  51,C  14)                  1.0787         0.375339   
     55. B(H  52,C  15)                  1.0801         0.373437   
     56. B(H  53,C  16)                  1.0981         0.349536   
     57. B(H  54,C  16)                  1.0945         0.354176   
     58. B(H  55,C  17)                  1.0993         0.347979   
     59. B(H  56,C  17)                  1.0921         0.357309   
     60. B(H  57,O  21)                  0.9684         0.504215   
     61. B(H  57,O  27)                  2.4125         0.010000   
     62. B(H  57,O  22)                  2.2277         0.010000   
     63. B(H  58,C  23)                  1.0926         0.356634   
     64. B(H  59,C  24)                  1.0965         0.351668   
     65. B(H  60,C  26)                  1.0913         0.358328   
     66. B(H  61,C  26)                  1.0990         0.348384   
     67. B(H  62,O  22)                  2.0120         0.010905   
     68. B(H  62,O  20)                  2.2543         0.010000   
     69. B(H  62,O  27)                  0.9706         0.500128   
     70. B(H  63,C  28)                  1.0779         0.376487   
     71. B(H  64,C  31)                  1.0784         0.375811   
     72. B(H  65,C  32)                  1.0792         0.374655   
     73. B(H  66,C  33)                  1.0883         0.362329   
     74. B(H  67,H  51)                  2.5218         0.010000   
     75. B(H  67,C  33)                  1.0930         0.356176   
     76. B(H  68,H  64)                  2.7427         0.010000   
     77. B(H  68,C  33)                  1.0939         0.355017   
     78. B(H  69,C  34)                  1.0889         0.361618   
     79. B(H  70,C  34)                  1.0950         0.353508   
     80. B(H  71,C  34)                  1.0949         0.353641   
     81. B(H  72,C  35)                  1.0928         0.356365   
     82. B(H  73,C  35)                  1.0942         0.354619   
     83. B(H  74,C  35)                  1.0892         0.361157   
     84. B(H  75,O  20)                  2.1448         0.010000   
     85. B(H  75,O  18)                  2.2520         0.010000   
     86. B(H  75,O  36)                  0.9722         0.497103   
     87. B(H  76,O  38)                  1.8795         0.017741   
     88. B(H  76,O  37)                  0.9714         0.498643   
     89. B(H  77,O  38)                  0.9642         0.512046   
     90. B(H  78,O  39)                  2.1162         0.010000   
     91. B(H  78,O  40)                  0.9668         0.507183   
     92. B(H  79,C  41)                  1.0944         0.354282   
     93. B(H  80,C  41)                  1.0892         0.361174   
     94. B(H  81,H  42)                  2.6152         0.010000   
     95. B(H  81,C  41)                  1.0944         0.354341   
     96. A(C   1,C   0,O  19)          117.2966         0.429680   
     97. A(C   5,C   0,O  19)          123.9093         0.433407   
     98. A(C   1,C   0,C   5)          118.7907         0.432614   
     99. A(C   0,C   1,O  20)          125.3293         0.425741   
    100. A(C   0,C   1,C   2)          119.5400         0.428862   
    101. A(C   2,C   1,O  20)          114.9600         0.425706   
    102. A(C   3,C   2,O  18)          124.8914         0.429414   
    103. A(C   1,C   2,C   3)          120.5949         0.433391   
    104. A(C   1,C   2,O  18)          114.5126         0.424903   
    105. A(C   4,C   3,H  42)          119.4573         0.356231   
    106. A(C   2,C   3,H  42)          120.7779         0.356770   
    107. A(C   2,C   3,C   4)          119.7643         0.437313   
    108. A(C   5,C   4,C   6)          119.1882         0.406363   
    109. A(C   3,C   4,C   6)          120.9576         0.405589   
    110. A(C   3,C   4,C   5)          119.6559         0.437462   
    111. A(C   4,C   5,H  43)          118.5550         0.357490   
    112. A(C   0,C   5,H  43)          119.8895         0.356743   
    113. A(C   0,C   5,C   4)          121.5211         0.437342   
    114. A(C   4,C   6,H  44)          109.8499         0.329954   
    115. A(C   7,C   6,H  45)          109.7649         0.321694   
    116. A(C   4,C   6,C   7)          109.5150         0.367475   
    117. A(H  44,C   6,H  45)          108.1862         0.290341   
    118. A(C   4,C   6,H  45)          110.7207         0.329932   
    119. A(C   7,C   6,H  44)          108.7684         0.321715   
    120. A(C   6,C   7,C  16)          109.2862         0.358274   
    121. A(C   8,C   7,C  16)          115.6063         0.357292   
    122. A(C  16,C   7,H  46)          106.9812         0.321541   
    123. A(C   8,C   7,H  46)          106.5245         0.320416   
    124. A(C   6,C   7,H  46)          107.4414         0.321263   
    125. A(C   6,C   7,C   8)          110.6067         0.356972   
    126. A(C   7,C   8,C  17)          115.2572         0.357586   
    127. A(C  17,C   8,H  47)          105.7550         0.321641   
    128. A(C   7,C   8,C   9)          111.1877         0.356877   
    129. A(C   9,C   8,H  47)          106.6905         0.321028   
    130. A(C   7,C   8,H  47)          106.5885         0.320264   
    131. A(C   9,C   8,C  17)          110.7650         0.358473   
    132. A(H  48,C   9,H  49)          108.9120         0.289722   
    133. A(C  10,C   9,H  48)          109.2037         0.328943   
    134. A(C  10,C   9,H  49)          108.4910         0.328043   
    135. A(C   8,C   9,C  10)          111.6915         0.366127   
    136. A(C   8,C   9,H  48)          109.7113         0.321701   
    137. A(C   8,C   9,H  49)          108.7805         0.320828   
    138. A(C   9,C  10,C  11)          119.8753         0.402676   
    139. A(C  11,C  10,C  15)          118.7908         0.436094   
    140. A(C   9,C  10,C  15)          121.3316         0.405196   
    141. A(C  10,C  11,C  12)          121.1297         0.436551   
    142. A(C  10,C  11,H  50)          118.7849         0.354969   
    143. A(C  12,C  11,H  50)          120.0796         0.357458   
    144. A(C  11,C  12,C  13)          119.7572         0.432716   
    145. A(C  13,C  12,O  22)          115.0487         0.422697   
    146. A(C  11,C  12,O  22)          125.1768         0.429579   
    147. A(C  12,C  13,O  21)          122.0178         0.429585   
    148. A(C  12,C  13,C  14)          118.8007         0.431784   
    149. A(C  14,C  13,O  21)          119.1745         0.435667   
    150. A(C  13,C  14,H  51)          118.0717         0.356874   
    151. A(C  13,C  14,C  15)          120.8849         0.438023   
    152. A(C  15,C  14,H  51)          121.0360         0.356965   
    153. A(C  14,C  15,H  52)          119.4307         0.356657   
    154. A(C  10,C  15,H  52)          119.9470         0.356941   
    155. A(C  10,C  15,C  14)          120.6189         0.438512   
    156. A(O  37,C  16,H  54)          106.0153         0.341362   
    157. A(C   7,C  16,H  54)          108.1267         0.321396   
    158. A(O  37,C  16,H  53)          110.6576         0.340610   
    159. A(C   7,C  16,H  53)          110.1792         0.320704   
    160. A(C   7,C  16,O  37)          113.7804         0.381758   
    161. A(H  53,C  16,H  54)          107.7992         0.288732   
    162. A(O  38,C  17,H  56)          105.5917         0.339464   
    163. A(C   8,C  17,O  38)          115.0575         0.379294   
    164. A(H  55,C  17,H  56)          107.8581         0.288929   
    165. A(C   8,C  17,H  56)          110.3600         0.322115   
    166. A(O  38,C  17,H  55)          109.1126         0.337969   
    167. A(C   8,C  17,H  55)          108.6222         0.320723   
    168. A(C   2,O  18,C  34)          118.4880         0.412814   
    169. A(C   0,O  19,C  33)          118.7216         0.416394   
    170. A(C   1,O  20,C  23)          120.7072         0.408856   
    171. A(C  13,O  21,H  57)          110.3408         0.370229   
    172. A(C  12,O  22,C  35)          118.5597         0.411696   
    173. A(C  26,C  23,H  58)          109.6973         0.323211   
    174. A(C  24,C  23,H  58)          110.5035         0.319751   
    175. A(O  20,C  23,H  58)          110.8058         0.337247   
    176. A(C  24,C  23,C  26)          112.5569         0.357933   
    177. A(O  20,C  23,C  26)          104.1965         0.378325   
    178. A(O  20,C  23,C  24)          108.9223         0.374051   
    179. A(C  23,C  24,O  36)          109.7796         0.379129   
    180. A(O  36,C  24,H  59)          106.6087         0.340868   
    181. A(C  25,C  24,H  59)          109.3300         0.325645   
    182. A(C  23,C  24,H  59)          108.7655         0.319020   
    183. A(C  25,C  24,O  36)          113.9112         0.387485   
    184. A(C  23,C  24,C  25)          108.3401         0.361592   
    185. A(C  28,C  25,C  32)          119.5116         0.436382   
    186. A(C  24,C  25,C  32)          119.4681         0.401630   
    187. A(C  24,C  25,C  28)          120.9419         0.400617   
    188. A(O  27,C  26,H  61)          110.8335         0.340178   
    189. A(H  60,C  26,H  61)          109.1342         0.289111   
    190. A(C  23,C  26,H  61)          108.8913         0.321973   
    191. A(O  27,C  26,H  60)          107.0175         0.341783   
    192. A(C  23,C  26,H  60)          110.0324         0.323462   
    193. A(C  23,C  26,O  27)          110.9055         0.383295   
    194. A(C  26,O  27,H  62)          106.8449         0.358420   
    195. A(C  29,C  28,H  63)          120.9234         0.357828   
    196. A(C  25,C  28,H  63)          118.7010         0.356040   
    197. A(C  25,C  28,C  29)          120.3753         0.437574   
    198. A(C  30,C  29,O  39)          114.5521         0.423511   
    199. A(C  28,C  29,O  39)          125.5981         0.429488   
    200. A(C  28,C  29,C  30)          119.8490         0.433747   
    201. A(C  31,C  30,O  40)          120.1300         0.433942   
    202. A(C  29,C  30,O  40)          120.3740         0.428494   
    203. A(C  29,C  30,C  31)          119.4957         0.433130   
    204. A(C  32,C  31,H  64)          121.2025         0.357370   
    205. A(C  30,C  31,H  64)          118.5647         0.357237   
    206. A(C  30,C  31,C  32)          120.2322         0.438825   
    207. A(C  31,C  32,H  65)          119.6075         0.357183   
    208. A(C  25,C  32,H  65)          119.9197         0.356613   
    209. A(C  25,C  32,C  31)          120.4723         0.438254   
    210. A(H  67,C  33,H  68)          110.2376         0.289693   
    211. A(H  66,C  33,H  68)          109.7294         0.290472   
    212. A(O  19,C  33,H  68)          111.0623         0.339901   
    213. A(H  66,C  33,H  67)          109.2845         0.290621   
    214. A(O  19,C  33,H  67)          111.1893         0.340086   
    215. A(O  19,C  33,H  66)          105.2068         0.341061   
    216. A(H  69,C  34,H  71)          109.2584         0.290206   
    217. A(O  18,C  34,H  71)          111.7227         0.340440   
    218. A(H  69,C  34,H  70)          109.1772         0.290189   
    219. A(O  18,C  34,H  70)          111.7412         0.340419   
    220. A(O  18,C  34,H  69)          105.5735         0.341713   
    221. A(H  70,C  34,H  71)          109.2649         0.289176   
    222. A(H  73,C  35,H  74)          109.1038         0.290273   
    223. A(H  72,C  35,H  74)          109.2440         0.290497   
    224. A(O  22,C  35,H  74)          105.7820         0.341290   
    225. A(H  72,C  35,H  73)          110.0199         0.289666   
    226. A(O  22,C  35,H  73)          111.3365         0.340249   
    227. A(O  22,C  35,H  72)          111.2344         0.340528   
    228. A(C  24,O  36,H  75)          107.2253         0.358218   
    229. A(C  16,O  37,H  76)          106.4968         0.358501   
    230. A(C  17,O  38,H  77)          108.4345         0.357549   
    231. A(C  29,O  39,C  41)          117.8651         0.412325   
    232. A(C  30,O  40,H  78)          107.6363         0.368902   
    233. A(H  80,C  41,H  81)          109.5352         0.290240   
    234. A(H  79,C  41,H  81)          109.7585         0.289364   
    235. A(O  39,C  41,H  81)          110.8265         0.340798   
    236. A(H  79,C  41,H  80)          109.3930         0.290232   
    237. A(O  39,C  41,H  80)          105.7461         0.341889   
    238. A(O  39,C  41,H  79)          111.4907         0.340788   
    239. D(O  20,C   1,C   0,O  19)     -5.7857         0.024789   
    240. D(C   2,C   1,C   0,O  19)    179.2127         0.024789   
    241. D(C   2,C   1,C   0,C   5)     -1.4360         0.024789   
    242. D(O  20,C   1,C   0,C   5)    173.5656         0.024789   
    243. D(O  18,C   2,C   1,C   0)   -177.0727         0.024765   
    244. D(C   3,C   2,C   1,C   0)      3.2961         0.024765   
    245. D(C   3,C   2,C   1,O  20)   -172.2071         0.024765   
    246. D(O  18,C   2,C   1,O  20)      7.4241         0.024765   
    247. D(C   4,C   3,C   2,C   1)     -1.7264         0.028060   
    248. D(H  42,C   3,C   2,O  18)     -1.5880         0.028060   
    249. D(C   4,C   3,C   2,O  18)    178.6827         0.028060   
    250. D(H  42,C   3,C   2,C   1)    178.0028         0.028060   
    251. D(C   6,C   4,C   3,H  42)     -6.5759         0.027533   
    252. D(C   5,C   4,C   3,H  42)    178.5821         0.027533   
    253. D(C   5,C   4,C   3,C   2)     -1.6850         0.027533   
    254. D(C   6,C   4,C   3,C   2)    173.1569         0.027533   
    255. D(H  43,C   5,C   4,C   6)      6.5162         0.028173   
    256. D(H  43,C   5,C   4,C   3)   -178.5502         0.028173   
    257. D(C   0,C   5,C   4,C   3)      3.5856         0.028173   
    258. D(C   4,C   5,C   0,O  19)    177.3128         0.027444   
    259. D(H  43,C   5,C   0,C   1)   -179.8288         0.027444   
    260. D(H  43,C   5,C   0,O  19)     -0.5234         0.027444   
    261. D(C   0,C   5,C   4,C   6)   -171.3481         0.028173   
    262. D(C   4,C   5,C   0,C   1)     -1.9926         0.027444   
    263. D(H  45,C   6,C   4,C   3)     17.0227         0.012860   
    264. D(H  44,C   6,C   4,C   5)    -48.6835         0.012860   
    265. D(H  44,C   6,C   4,C   3)    136.4508         0.012860   
    266. D(C   7,C   6,C   4,C   5)     70.7137         0.012860   
    267. D(C   7,C   6,C   4,C   3)   -104.1520         0.012860   
    268. D(C   8,C   7,C   6,H  44)   -175.3528         0.010265   
    269. D(C   8,C   7,C   6,C   4)     64.5865         0.010265   
    270. D(C  16,C   7,C   6,H  45)     71.2068         0.010265   
    271. D(C  16,C   7,C   6,H  44)    -46.9816         0.010265   
    272. D(C   8,C   7,C   6,H  45)    -57.1644         0.010265   
    273. D(C  16,C   7,C   6,C   4)   -167.0424         0.010265   
    274. D(C  17,C   8,C   7,H  46)   -151.9821         0.010000   
    275. D(C  17,C   8,C   7,C  16)    -33.2964         0.010000   
    276. D(C  17,C   8,C   7,C   6)     91.5583         0.010000   
    277. D(C   9,C   8,C   7,C  16)     93.8109         0.010000   
    278. D(C   9,C   8,C   7,H  46)    -24.8747         0.010000   
    279. D(C   9,C   8,C   7,C   6)   -141.3343         0.010000   
    280. D(H  48,C   9,C   8,C  17)     78.7181         0.010236   
    281. D(H  48,C   9,C   8,C   7)    -50.8046         0.010236   
    282. D(C  10,C   9,C   8,H  47)    -45.4118         0.010236   
    283. D(C  10,C   9,C   8,C  17)   -160.0474         0.010236   
    284. D(H  48,C   9,C   8,H  47)   -166.6463         0.010236   
    285. D(C  10,C   9,C   8,C   7)     70.4299         0.010236   
    286. D(C  15,C  10,C   9,H  48)     14.7650         0.012376   
    287. D(C  15,C  10,C   9,C   8)   -106.7635         0.012376   
    288. D(C  11,C  10,C   9,H  49)    -46.0859         0.012376   
    289. D(C  11,C  10,C   9,H  48)   -164.6655         0.012376   
    290. D(C  11,C  10,C   9,C   8)     73.8060         0.012376   
    291. D(H  50,C  11,C  10,C  15)   -179.3371         0.026334   
    292. D(H  50,C  11,C  10,C   9)      0.1078         0.026334   
    293. D(C  12,C  11,C  10,C  15)     -0.2115         0.026334   
    294. D(C  12,C  11,C  10,C   9)    179.2334         0.026334   
    295. D(O  22,C  12,C  11,H  50)      1.9638         0.028745   
    296. D(C  13,C  12,C  11,H  50)   -179.6259         0.028745   
    297. D(O  22,C  12,C  11,C  10)   -177.1507         0.028745   
    298. D(C  13,C  12,C  11,C  10)      1.2597         0.028745   
    299. D(O  21,C  13,C  12,C  11)    179.3757         0.023747   
    300. D(C  14,C  13,C  12,O  22)    176.9630         0.023747   
    301. D(C  14,C  13,C  12,C  11)     -1.6028         0.023747   
    302. D(O  21,C  13,C  12,O  22)     -2.0585         0.023747   
    303. D(H  51,C  14,C  13,O  21)      0.9630         0.028018   
    304. D(H  51,C  14,C  13,C  12)   -178.0867         0.028018   
    305. D(C  15,C  14,C  13,O  21)    179.9820         0.028018   
    306. D(C  15,C  14,C  13,C  12)      0.9322         0.028018   
    307. D(H  52,C  15,C  14,H  51)     -0.2397         0.028108   
    308. D(H  52,C  15,C  14,C  13)   -179.2295         0.028108   
    309. D(C  10,C  15,C  14,H  51)    179.0992         0.028108   
    310. D(C  10,C  15,C  14,C  13)      0.1095         0.028108   
    311. D(H  52,C  15,C  10,C  11)    178.8548         0.028390   
    312. D(H  52,C  15,C  10,C   9)     -0.5817         0.028390   
    313. D(C  14,C  15,C  10,C  11)     -0.4808         0.028390   
    314. D(C  14,C  15,C  10,C   9)   -179.9172         0.028390   
    315. D(H  53,C  16,C   7,H  46)   -173.1897         0.010366   
    316. D(H  53,C  16,C   7,C   8)     68.3773         0.010366   
    317. D(H  53,C  16,C   7,C   6)    -57.1570         0.010366   
    318. D(O  37,C  16,C   7,H  46)     61.8738         0.010366   
    319. D(O  37,C  16,C   7,C   8)    -56.5593         0.010366   
    320. D(O  37,C  16,C   7,C   6)    177.9065         0.010366   
    321. D(H  55,C  17,C   8,H  47)    -40.5290         0.010460   
    322. D(H  55,C  17,C   8,C   9)     74.6923         0.010460   
    323. D(H  55,C  17,C   8,C   7)   -157.9870         0.010460   
    324. D(O  38,C  17,C   8,H  47)   -163.1415         0.010460   
    325. D(O  38,C  17,C   8,C   9)    -47.9203         0.010460   
    326. D(O  38,C  17,C   8,C   7)     79.4005         0.010460   
    327. D(C  34,O  18,C   2,C   3)     -1.2361         0.028043   
    328. D(C  34,O  18,C   2,C   1)    179.1510         0.028043   
    329. D(C  33,O  19,C   0,C   5)      3.9808         0.029022   
    330. D(C  33,O  19,C   0,C   1)   -176.7041         0.029022   
    331. D(C  23,O  20,C   1,C   2)   -136.2156         0.031179   
    332. D(C  23,O  20,C   1,C   0)     48.5805         0.031179   
    333. D(H  57,O  21,C  13,C  14)    174.3703         0.030246   
    334. D(H  57,O  21,C  13,C  12)     -6.6117         0.030246   
    335. D(C  35,O  22,C  12,C  13)   -178.7368         0.029888   
    336. D(C  35,O  22,C  12,C  11)     -0.2600         0.029888   
    337. D(H  58,C  23,O  20,C   1)    -51.4713         0.022590   
    338. D(C  26,C  23,O  20,C   1)   -169.3789         0.022590   
    339. D(C  24,C  23,O  20,C   1)     70.2889         0.022590   
    340. D(O  36,C  24,C  23,H  58)    168.4331         0.010000   
    341. D(O  36,C  24,C  23,C  26)    -68.5430         0.010000   
    342. D(O  36,C  24,C  23,O  20)     46.4895         0.010000   
    343. D(C  25,C  24,C  23,H  58)     43.4739         0.010000   
    344. D(C  25,C  24,C  23,C  26)    166.4978         0.010000   
    345. D(C  25,C  24,C  23,O  20)    -78.4697         0.010000   
    346. D(C  32,C  25,C  24,O  36)    169.3270         0.011434   
    347. D(C  32,C  25,C  24,C  23)    -68.1963         0.011434   
    348. D(C  28,C  25,C  24,H  59)   -133.0437         0.011434   
    349. D(C  28,C  25,C  24,O  36)    -13.9084         0.011434   
    350. D(C  28,C  25,C  24,C  23)    108.5683         0.011434   
    351. D(H  60,C  26,C  23,H  58)     57.9767         0.010912   
    352. D(H  60,C  26,C  23,C  24)    -65.4972         0.010912   
    353. D(H  60,C  26,C  23,O  20)    176.6443         0.010912   
    354. D(O  27,C  26,C  23,H  58)    -60.2352         0.010912   
    355. D(O  27,C  26,C  23,C  24)    176.2909         0.010912   
    356. D(O  27,C  26,C  23,O  20)     58.4324         0.010912   
    357. D(H  62,O  27,C  26,H  61)     69.9767         0.024628   
    358. D(H  62,O  27,C  26,H  60)   -171.1261         0.024628   
    359. D(H  62,O  27,C  26,C  23)    -51.1003         0.024628   
    360. D(H  63,C  28,C  25,C  32)   -177.3214         0.027033   
    361. D(H  63,C  28,C  25,C  24)      5.9154         0.027033   
    362. D(C  29,C  28,C  25,C  32)      2.4584         0.027033   
    363. D(C  29,C  28,C  25,C  24)   -174.3048         0.027033   
    364. D(C  30,C  29,C  28,H  63)    179.0557         0.028785   
    365. D(C  30,C  29,C  28,C  25)     -0.7192         0.028785   
    366. D(O  39,C  29,C  28,H  63)     -1.2755         0.028785   
    367. D(O  39,C  29,C  28,C  25)    178.9496         0.028785   
    368. D(O  40,C  30,C  29,O  39)     -1.0284         0.024384   
    369. D(O  40,C  30,C  29,C  28)    178.6756         0.024384   
    370. D(C  31,C  30,C  29,O  39)    178.7686         0.024384   
    371. D(C  31,C  30,C  29,C  28)     -1.5274         0.024384   
    372. D(H  64,C  31,C  30,O  40)      1.5495         0.028302   
    373. D(H  64,C  31,C  30,C  29)   -178.2480         0.028302   
    374. D(C  32,C  31,C  30,O  40)   -178.1733         0.028302   
    375. D(C  32,C  31,C  30,C  29)      2.0293         0.028302   
    376. D(H  65,C  32,C  31,H  64)     -0.2720         0.028435   
    377. D(H  65,C  32,C  31,C  30)    179.4434         0.028435   
    378. D(C  25,C  32,C  31,H  64)    179.9979         0.028435   
    379. D(C  25,C  32,C  31,C  30)     -0.2867         0.028435   
    380. D(H  65,C  32,C  25,C  28)    178.3090         0.027870   
    381. D(H  65,C  32,C  25,C  24)     -4.8796         0.027870   
    382. D(C  31,C  32,C  25,C  28)     -1.9617         0.027870   
    383. D(C  31,C  32,C  25,C  24)    174.8497         0.027870   
    384. D(H  68,C  33,O  19,C   0)     61.1171         0.021585   
    385. D(H  67,C  33,O  19,C   0)    -62.0341         0.021585   
    386. D(H  66,C  33,O  19,C   0)    179.7735         0.021585   
    387. D(H  71,C  34,O  18,C   2)     62.3799         0.024097   
    388. D(H  70,C  34,O  18,C   2)    -60.3877         0.024097   
    389. D(H  69,C  34,O  18,C   2)   -178.9600         0.024097   
    390. D(H  74,C  35,O  22,C  12)    175.2031         0.025551   
    391. D(H  73,C  35,O  22,C  12)     56.8094         0.025551   
    392. D(H  72,C  35,O  22,C  12)    -66.2897         0.025551   
    393. D(H  75,O  36,C  24,H  59)   -156.3320         0.022813   
    394. D(H  75,O  36,C  24,C  25)     82.9977         0.022813   
    395. D(H  75,O  36,C  24,C  23)    -38.6855         0.022813   
    396. D(H  76,O  37,C  16,H  54)   -163.9498         0.022888   
    397. D(H  76,O  37,C  16,H  53)    -47.3281         0.022888   
    398. D(H  76,O  37,C  16,C   7)     77.3523         0.022888   
    399. D(H  77,O  38,C  17,H  56)   -173.4802         0.022747   
    400. D(H  77,O  38,C  17,H  55)    -57.7810         0.022747   
    401. D(H  77,O  38,C  17,C   8)     64.5683         0.022747   
    402. D(C  41,O  39,C  29,C  30)    178.4515         0.027393   
    403. D(C  41,O  39,C  29,C  28)     -1.2328         0.027393   
    404. D(H  78,O  40,C  30,C  31)   -178.2109         0.028552   
    405. D(H  78,O  40,C  30,C  29)      1.5847         0.028552   
    406. D(H  81,C  41,O  39,C  29)    -60.8507         0.024315   
    407. D(H  80,C  41,O  39,C  29)   -179.4685         0.024315   
    408. D(H  79,C  41,O  39,C  29)     61.7297         0.024315   
    -----------------------------------------------------------------

Number of atoms                         .... 82
Number of degrees of freedom            .... 408


         *************************************************************
         *                GEOMETRY OPTIMIZATION CYCLE   1            *
         *************************************************************
---------------------------------
CARTESIAN COORDINATES (ANGSTROEM)
---------------------------------
  C     21.125963  -31.871337    1.274858
  C     21.855439  -31.099552    0.360800
  C     22.026275  -31.560761   -0.951349
  C     21.424549  -32.736378   -1.369419
  C     20.674845  -33.483523   -0.471996
  C     20.563941  -33.064939    0.843297
  C     19.887842  -34.676020   -0.929049
  C     18.391137  -34.311074   -0.994649
  C     18.141850  -33.227047   -2.068856
  C     17.084805  -32.207635   -1.597287
  C     17.612038  -31.329407   -0.493964
  C     18.532696  -30.325162   -0.786202
  C     19.021713  -29.493911    0.203900
  C     18.607344  -29.675708    1.535869
  C     17.685876  -30.670995    1.818281
  C     17.192365  -31.488431    0.814998
  C     17.559362  -35.599209   -1.143120
  C     17.798924  -33.759299   -3.471798
  O     22.811002  -30.754217   -1.742056
  O     21.002532  -31.388840    2.538739
  O     22.359508  -29.846489    0.604491
  O     19.066338  -28.896704    2.542722
  O     19.888413  -28.442229    0.000972
  C     23.100422  -29.579083    1.789722
  C     24.471811  -30.297685    1.698454
  C     24.263696  -31.765606    2.018700
  C     23.236834  -28.052273    1.811412
  O     21.976321  -27.437088    1.809515
  C     24.352273  -32.733470    1.024936
  C     24.045961  -34.051852    1.304174
  C     23.657725  -34.418967    2.601772
  C     23.616447  -33.458952    3.598046
  C     23.914895  -32.139683    3.307010
  C     20.335593  -32.173117    3.500826
  C     23.052487  -31.147506   -3.069563
  C     20.328913  -28.176655   -1.308757
  O     25.045818  -30.066363    0.440578
  O     16.175519  -35.378885   -1.165499
  O     16.459790  -34.176239   -3.642823
  O     24.076878  -35.091596    0.399887
  O     23.327886  -35.708789    2.882156
  C     24.424287  -34.796202   -0.928280
  H     21.527820  -33.077773   -2.388162
  H     19.997557  -33.670519    1.530081
  H     20.018133  -35.498583   -0.223615
  H     20.229379  -35.011237   -1.910090
  H     18.120085  -33.864794   -0.033559
  H     19.081245  -32.676616   -2.181234
  H     16.197420  -32.734685   -1.243429
  H     16.805733  -31.571443   -2.444469
  H     18.851773  -30.194176   -1.808971
  H     17.352620  -30.779586    2.838467
  H     16.465295  -32.248827    1.059505
  H     17.877632  -36.154925   -2.035151
  H     17.750531  -36.230560   -0.269727
  H     18.029659  -32.977871   -4.209793
  H     18.410662  -34.632969   -3.706743
  H     19.764208  -28.307422    2.221068
  H     22.551788  -29.912404    2.673885
  H     25.150637  -29.857466    2.438457
  H     23.745556  -27.735313    2.723424
  H     23.827716  -27.735412    0.940627
  H     21.473598  -27.828157    1.077144
  H     24.666930  -32.434931    0.038172
  H     23.343737  -33.762981    4.596089
  H     23.870798  -31.397883    4.089628
  H     20.367652  -31.588148    4.418009
  H     19.293783  -32.344013    3.217916
  H     20.847672  -33.127588    3.653507
  H     23.701210  -30.379859   -3.488470
  H     23.561938  -32.115520   -3.119532
  H     22.126990  -31.195826   -3.652644
  H     20.954170  -28.988607   -1.688341
  H     19.486114  -28.005272   -1.985173
  H     20.923583  -27.266527   -1.242470
  H     24.326868  -30.093453   -0.213348
  H     15.963050  -35.049095   -2.054150
  H     15.886275  -33.407301   -3.545637
  H     23.445648  -36.223863    2.072540
  H     25.438167  -34.389800   -0.996612
  H     24.377533  -35.743540   -1.463721
  H     23.712643  -34.091225   -1.369026

----------------------------
CARTESIAN COORDINATES (A.U.)
----------------------------
  NO LB      ZA    FRAG     MASS         X           Y           Z
   0 C     6.0000    0    12.011   39.922284  -60.228098    2.409132
   1 C     6.0000    0    12.011   41.300795  -58.769636    0.681812
   2 C     6.0000    0    12.011   41.623628  -59.641196   -1.797789
   3 C     6.0000    0    12.011   40.486531  -61.862789   -2.587827
   4 C     6.0000    0    12.011   39.069795  -63.274688   -0.891942
   5 C     6.0000    0    12.011   38.860217  -62.483678    1.593600
   6 C     6.0000    0    12.011   37.582575  -65.528181   -1.755648
   7 C     6.0000    0    12.011   34.754211  -64.838534   -1.879614
   8 C     6.0000    0    12.011   34.283129  -62.790019   -3.909571
   9 C     6.0000    0    12.011   32.285602  -60.863609   -3.018435
  10 C     6.0000    0    12.011   33.281928  -59.203999   -0.933457
  11 C     6.0000    0    12.011   35.021721  -57.306252   -1.485707
  12 C     6.0000    0    12.011   35.945828  -55.735415    0.385316
  13 C     6.0000    0    12.011   35.162784  -56.078960    2.902371
  14 C     6.0000    0    12.011   33.421462  -57.959781    3.436054
  15 C     6.0000    0    12.011   32.488862  -59.504512    1.540122
  16 C     6.0000    0    12.011   33.182384  -67.272756   -2.160183
  17 C     6.0000    0    12.011   33.635091  -63.795830   -6.560748
  18 O     8.0000    0    15.999   43.106547  -58.117048   -3.292009
  19 O     8.0000    0    15.999   39.689034  -59.316311    4.797521
  20 O     8.0000    0    15.999   42.253347  -56.401691    1.142322
  21 O     8.0000    0    15.999   36.030158  -54.606857    4.805047
  22 O     8.0000    0    15.999   37.583653  -53.748023    0.001836
  23 C     6.0000    0    12.011   43.653471  -55.896366    3.382084
  24 C     6.0000    0    12.011   46.245020  -57.254326    3.209612
  25 C     6.0000    0    12.011   45.851740  -60.028295    3.814790
  26 C     6.0000    0    12.011   43.911252  -53.011113    3.423073
  27 O     8.0000    0    15.999   41.529228  -51.848582    3.419487
  28 C     6.0000    0    12.011   46.019128  -61.857294    1.936848
  29 C     6.0000    0    12.011   45.440282  -64.348675    2.464531
  30 C     6.0000    0    12.011   44.706622  -65.042421    4.916637
  31 C     6.0000    0    12.011   44.628618  -63.228257    6.799321
  32 C     6.0000    0    12.011   45.192603  -60.735198    6.249343
  33 C     6.0000    0    12.011   38.428701  -60.798380    6.615602
  34 C     6.0000    0    12.011   43.562888  -58.860256   -5.800633
  35 C     6.0000    0    12.011   38.416078  -53.246162   -2.473192
  36 O     8.0000    0    15.999   47.329736  -56.817191    0.832571
  37 O     8.0000    0    15.999   30.567302  -66.856403   -2.202474
  38 O     8.0000    0    15.999   31.104496  -64.583732   -6.883938
  39 O     8.0000    0    15.999   45.498706  -66.313507    0.755677
  40 O     8.0000    0    15.999   44.083316  -67.479833    5.446485
  41 C     6.0000    0    12.011   46.155213  -65.755292   -1.754195
  42 H     1.0000    0     1.008   40.681684  -62.507933   -4.512972
  43 H     1.0000    0     1.008   37.789906  -63.628060    2.891434
  44 H     1.0000    0     1.008   37.828789  -67.082600   -0.422571
  45 H     1.0000    0     1.008   38.227986  -66.161649   -3.609547
  46 H     1.0000    0     1.008   34.241997  -63.995187   -0.063417
  47 H     1.0000    0     1.008   36.058327  -61.749855   -4.121935
  48 H     1.0000    0     1.008   30.608688  -61.859589   -2.349741
  49 H     1.0000    0     1.008   31.758233  -59.661381   -4.619376
  50 H     1.0000    0     1.008   35.624688  -57.058724   -3.418461
  51 H     1.0000    0     1.008   32.791699  -58.164987    5.363925
  52 H     1.0000    0     1.008   31.114898  -60.941451    2.002174
  53 H     1.0000    0     1.008   33.783829  -68.322906   -3.845877
  54 H     1.0000    0     1.008   33.543642  -68.465836   -0.509711
  55 H     1.0000    0     1.008   34.071117  -62.319145   -7.955356
  56 H     1.0000    0     1.008   34.791110  -65.446826   -7.004729
  57 H     1.0000    0     1.008   37.348940  -53.493274    4.197210
  58 H     1.0000    0     1.008   42.616704  -56.526251    5.052910
  59 H     1.0000    0     1.008   47.527816  -56.422434    4.608016
  60 H     1.0000    0     1.008   44.872598  -52.412146    5.146526
  61 H     1.0000    0     1.008   45.027858  -52.412333    1.777528
  62 H     1.0000    0     1.008   40.579218  -52.587595    2.035507
  63 H     1.0000    0     1.008   46.613742  -61.293136    0.072134
  64 H     1.0000    0     1.008   44.113270  -63.802788    8.685349
  65 H     1.0000    0     1.008   45.109271  -59.333399    7.728276
  66 H     1.0000    0     1.008   38.489284  -59.692949    8.348827
  67 H     1.0000    0     1.008   36.459966  -61.121328    6.080980
  68 H     1.0000    0     1.008   39.396391  -62.602068    6.904128
  69 H     1.0000    0     1.008   44.788796  -57.409614   -6.592253
  70 H     1.0000    0     1.008   44.525610  -60.689538   -5.895061
  71 H     1.0000    0     1.008   41.813950  -58.951568   -6.902497
  72 H     1.0000    0     1.008   39.597642  -54.780528   -3.190503
  73 H     1.0000    0     1.008   36.823420  -52.922295   -3.751433
  74 H     1.0000    0     1.008   39.539842  -51.526268   -2.347928
  75 H     1.0000    0     1.008   45.971119  -56.868385   -0.403170
  76 H     1.0000    0     1.008   30.165792  -66.233190   -3.881780
  77 H     1.0000    0     1.008   30.020710  -63.130650   -6.700283
  78 H     1.0000    0     1.008   44.305853  -68.453180    3.916533
  79 H     1.0000    0     1.008   48.071170  -64.987304   -1.883324
  80 H     1.0000    0     1.008   46.066862  -67.545503   -2.766031
  81 H     1.0000    0     1.008   44.810401  -64.423079   -2.587084

--------------------------------
INTERNAL COORDINATES (ANGSTROEM)
--------------------------------
 C      0   0   0     0.000000000000     0.00000000     0.00000000
 C      1   0   0     1.401174654199     0.00000000     0.00000000
 C      2   1   0     1.401296840505   119.53996401     0.00000000
 C      3   2   1     1.385254649811   120.59490856     3.29606734
 C      4   3   2     1.387678275886   119.76427630   358.27360168
 C      5   4   3     1.384740525294   119.65590039   358.31497822
 C      5   4   3     1.500106697454   120.95764522   173.15693788
 C      7   5   4     1.541952151241   109.51502713   255.84796172
 C      8   7   5     1.546344176629   110.60666780    64.58647354
 C      9   8   7     1.542376336385   111.18774982   218.66568476
 C     10   9   8     1.505516341976   111.69151168    70.42990475
 C     11  10   9     1.393385321965   119.87525024    73.80600367
 C     12  11  10     1.382179040855   121.12973832   179.23341693
 C     13  12  11     1.406730784123   119.75722548     1.25968881
 C     14  13  12     1.385444756486   118.80065480   358.39716661
 C     11  10   9     1.383761271571   121.33160185   253.23645087
 C      8   7   5     1.540514273865   109.28618982   192.95762499
 C      9   8   7     1.539200129675   115.25722393    91.55832898
 O      3   2   1     1.375327844814   114.51256309   182.92725508
 O      1   2   3     1.358467426022   117.29659740   179.21265095
 O      2   1   3     1.372456579969   125.32934606   175.00164940
 O     14  13  12     1.353246127257   122.01776860   179.37567904
 O     13  12  11     1.377819058983   125.17678959   182.84931944
 C     21   2   1     1.423106907329   120.70718593    48.58051906
 C     24  21   2     1.550943344608   108.92226656    70.28893233
 C     25  24  21     1.516793211997   108.34006090   281.53026370
 C     24  21   2     1.533045204598   104.19652483   190.62107639
 O     27  24  21     1.402621786153   110.90552253    58.43237615
 C     26  25  24     1.390026776038   120.94192957   108.56830397
 C     29  26  25     1.382002960816   120.37528315   185.69520029
 C     30  29  26     1.403304282728   119.84904342   359.28076723
 C     31  30  29     1.384157773433   119.49569207   358.47256163
 C     32  31  30     1.383562674521   120.23218410     2.02925518
 C     20   1   2     1.409081293584   118.72160008   183.29587063
 C     19   3   2     1.405441479419   118.48798989   179.15098528
 C     23  13  12     1.407109829626   118.55965897   359.73995218
 O     25  24  21     1.401872309667   109.77955323    46.48949599
 O     17   8   7     1.401450384673   113.78041604   177.90647490
 O     18   9   8     1.412928633672   115.05752654    79.40046649
 O     30  29  26     1.378316816309   125.59811499   178.94962103
 O     31  30  29     1.360533240142   120.37397515   178.67562279
 C     40  30  29     1.404271599308   117.86505791   358.76724480
 H      4   3   2     1.079375986140   120.77786053   178.00284124
 H      6   5   4     1.076657838299   118.55501044   181.44980947
 H      7   5   4     1.091431515375   109.84986856   136.45076408
 H      7   5   4     1.091539930866   110.72071462    17.02274301
 H      8   7   5     1.093768300652   107.44136636   308.69660119
 H      9   8   7     1.094561798723   106.58849701   334.57018434
 H     10   9   8     1.091076900603   109.71128519   309.19536202
 H     10   9   8     1.095599065800   108.78051633   190.15132264
 H     12  11  10     1.079362808841   118.78490483     0.10775609
 H     15  14  13     1.078717256706   118.07167274   181.91325087
 H     16  11  10     1.080100231006   119.94703749   359.41833330
 H     17   8   7     1.098105325270   110.17924125   302.84302906
 H     17   8   7     1.094515425503   108.12665040    60.42338303
 H     18   9   8     1.099320100237   108.62215091   202.01302255
 H     18   9   8     1.092118120591   110.35997275   320.06132600
 H     22  14  13     0.968368110963   110.34081154   353.38827423
 H     24  21   2     1.092632508732   110.80581270   308.52873676
 H     25  24  21     1.096450113332   108.76550300   162.78431624
 H     27  24  21     1.091342480556   110.03239064   176.64427775
 H     27  24  21     1.099003785654   108.89133274   296.21690988
 H     28  27  24     0.970583864729   106.84493904   308.89967418
 H     29  26  25     1.077886005917   118.70096839     5.91535788
 H     32  31  30     1.078375552100   118.56472274   181.75203619
 H     33  32  31     1.079213695765   119.60749210   179.44338513
 H     34  20   1     1.088320427391   105.20679613   179.77347832
 H     34  20   1     1.092982618046   111.18933325   297.96588181
 H     34  20   1     1.093870040302   111.06233948    61.11711082
 H     35  19   3     1.088855073289   105.57350349   181.03997324
 H     35  19   3     1.095029002066   111.74119840   299.61229228
 H     35  19   3     1.094926653085   111.72273459    62.37988683
 H     36  23  13     1.092838451888   111.23435191   293.71034248
 H     36  23  13     1.094175219349   111.33646617    56.80939916
 H     36  23  13     1.089201833965   105.78197257   175.20306690
 H     37  25  24     0.972235230411   107.22526773   321.31453120
 H     38  17   8     0.971393021969   106.49675325    77.35226584
 H     39  18   9     0.964173237267   108.43454930    64.56829418
 H     41  31  30     0.966770580543   107.63628780     1.58474569
 H     42  40  30     1.094433573240   111.49065062    61.72966682
 H     42  40  30     1.089189385700   105.74613064   180.53152739
 H     42  40  30     1.094388597857   110.82648568   299.14932668

---------------------------
INTERNAL COORDINATES (A.U.)
---------------------------
 C      0   0   0     0.000000000000     0.00000000     0.00000000
 C      1   0   0     2.647836362229     0.00000000     0.00000000
 C      2   1   0     2.648067260884   119.53996401     0.00000000
 C      3   2   1     2.617751913884   120.59490856     3.29606734
 C      4   3   2     2.622331903416   119.76427630   358.27360168
 C      5   4   3     2.616780359348   119.65590039   358.31497822
 C      5   4   3     2.834790829850   120.95764522   173.15693788
 C      7   5   4     2.913867277457   109.51502713   255.84796172
 C      8   7   5     2.922167002612   110.60666780    64.58647354
 C      9   8   7     2.914668871208   111.18774982   218.66568476
 C     10   9   8     2.845013576478   111.69151168    70.42990475
 C     11  10   9     2.633116657539   119.87525024    73.80600367
 C     12  11  10     2.611939855261   121.12973832   179.23341693
 C     13  12  11     2.658335926148   119.75722548     1.25968881
 C     14  13  12     2.618111163435   118.80065480   358.39716661
 C     11  10   9     2.614929837996   121.33160185   253.23645087
 C      8   7   5     2.911150083002   109.28618982   192.95762499
 C      9   8   7     2.908666710382   115.25722393    91.55832898
 O      3   2   1     2.598992971055   114.51256309   182.92725508
 O      1   2   3     2.567131397034   117.29659740   179.21265095
 O      2   1   3     2.593567066840   125.32934606   175.00164940
 O     14  13  12     2.557264572305   122.01776860   179.37567904
 O     13  12  11     2.603700683575   125.17678959   182.84931944
 C     21   2   1     2.689282314143   120.70718593    48.58051906
 C     24  21   2     2.930858170537   108.92226656    70.28893233
 C     25  24  21     2.866323772465   108.34006090   281.53026370
 C     24  21   2     2.897035587611   104.19652483   190.62107639
 O     27  24  21     2.650571045300   110.90552253    58.43237615
 C     26  25  24     2.626769925529   120.94192957   108.56830397
 C     29  26  25     2.611607112211   120.37528315   185.69520029
 C     30  29  26     2.651860776915   119.84904342   359.28076723
 C     31  30  29     2.615679117926   119.49569207   358.47256163
 C     32  31  30     2.614554543960   120.23218410     2.02925518
 C     20   1   2     2.662777745305   118.72160008   183.29587063
 C     19   3   2     2.655899493355   118.48798989   179.15098528
 C     23  13  12     2.659052218342   118.55965897   359.73995218
 O     25  24  21     2.649154739999   109.77955323    46.48949599
 O     17   8   7     2.648357417311   113.78041604   177.90647490
 O     18   9   8     2.670048164416   115.05752654    79.40046649
 O     30  29  26     2.604641308603   125.59811499   178.94962103
 O     31  30  29     2.571035219965   120.37397515   178.67562279
 C     40  30  29     2.653688740336   117.86505791   358.76724480
 H      4   3   2     2.039725009336   120.77786053   178.00284124
 H      6   5   4     2.034588454325   118.55501044   181.44980947
 H      7   5   4     2.062506657990   109.84986856   136.45076408
 H      7   5   4     2.062711533576   110.72071462    17.02274301
 H      8   7   5     2.066922542197   107.44136636   308.69660119
 H      9   8   7     2.068422036239   106.58849701   334.57018434
 H     10   9   8     2.061836533188   109.71128519   309.19536202
 H     10   9   8     2.070382186942   108.78051633   190.15132264
 H     12  11  10     2.039700107850   118.78490483     0.10775609
 H     15  14  13     2.038480191109   118.07167274   181.91325087
 H     16  11  10     2.041093633787   119.94703749   359.41833330
 H     17   8   7     2.075118330960   110.17924125   302.84302906
 H     17   8   7     2.068334403554   108.12665040    60.42338303
 H     18   9   8     2.077413922962   108.62215091   202.01302255
 H     18   9   8     2.063804153811   110.35997275   320.06132600
 H     22  14  13     1.829950526543   110.34081154   353.38827423
 H     24  21   2     2.064776206523   110.80581270   308.52873676
 H     25  24  21     2.071990433705   108.76550300   162.78431624
 H     27  24  21     2.062338406565   110.03239064   176.64427775
 H     27  24  21     2.076816175030   108.89133274   296.21690988
 H     28  27  24     1.834137694341   106.84493904   308.89967418
 H     29  26  25     2.036909354770   118.70096839     5.91535788
 H     32  31  30     2.037834462986   118.56472274   181.75203619
 H     33  32  31     2.039418324973   119.60749210   179.44338513
 H     34  20   1     2.056627553721   105.20679613   179.77347832
 H     34  20   1     2.065437817244   111.18933325   297.96588181
 H     34  20   1     2.067114802272   111.06233948    61.11711082
 H     35  19   3     2.057637888047   105.57350349   181.03997324
 H     35  19   3     2.069304922606   111.74119840   299.61229228
 H     35  19   3     2.069111511061   111.72273459    62.37988683
 H     36  23  13     2.065165382687   111.23435191   293.71034248
 H     36  23  13     2.067691507092   111.33646617    56.80939916
 H     36  23  13     2.058293170759   105.78197257   175.20306690
 H     37  25  24     1.837258323226   107.22526773   321.31453120
 H     38  17   8     1.835666779924   106.49675325    77.35226584
 H     39  18   9     1.822023364091   108.43454930    64.56829418
 H     41  31  30     1.826931631558   107.63628780     1.58474569
 H     42  40  30     2.068179725193   111.49065062    61.72966682
 H     42  40  30     2.058269646947   105.74613064   180.53152739
 H     42  40  30     2.068094734036   110.82648568   299.14932668

---------------------
BASIS SET INFORMATION
---------------------
There are 3 groups of distinct atoms

 Group   1 Type C   : 11s6p2d1f contracted to 5s3p2d1f pattern {62111/411/11/1}
 Group   2 Type O   : 11s6p2d1f contracted to 5s3p2d1f pattern {62111/411/11/1}
 Group   3 Type H   : 5s1p contracted to 3s1p pattern {311/1}

Atom   0C    basis set group =>   1
Atom   1C    basis set group =>   1
Atom   2C    basis set group =>   1
Atom   3C    basis set group =>   1
Atom   4C    basis set group =>   1
Atom   5C    basis set group =>   1
Atom   6C    basis set group =>   1
Atom   7C    basis set group =>   1
Atom   8C    basis set group =>   1
Atom   9C    basis set group =>   1
Atom  10C    basis set group =>   1
Atom  11C    basis set group =>   1
Atom  12C    basis set group =>   1
Atom  13C    basis set group =>   1
Atom  14C    basis set group =>   1
Atom  15C    basis set group =>   1
Atom  16C    basis set group =>   1
Atom  17C    basis set group =>   1
Atom  18O    basis set group =>   2
Atom  19O    basis set group =>   2
Atom  20O    basis set group =>   2
Atom  21O    basis set group =>   2
Atom  22O    basis set group =>   2
Atom  23C    basis set group =>   1
Atom  24C    basis set group =>   1
Atom  25C    basis set group =>   1
Atom  26C    basis set group =>   1
Atom  27O    basis set group =>   2
Atom  28C    basis set group =>   1
Atom  29C    basis set group =>   1
Atom  30C    basis set group =>   1
Atom  31C    basis set group =>   1
Atom  32C    basis set group =>   1
Atom  33C    basis set group =>   1
Atom  34C    basis set group =>   1
Atom  35C    basis set group =>   1
Atom  36O    basis set group =>   2
Atom  37O    basis set group =>   2
Atom  38O    basis set group =>   2
Atom  39O    basis set group =>   2
Atom  40O    basis set group =>   2
Atom  41C    basis set group =>   1
Atom  42H    basis set group =>   3
Atom  43H    basis set group =>   3
Atom  44H    basis set group =>   3
Atom  45H    basis set group =>   3
Atom  46H    basis set group =>   3
Atom  47H    basis set group =>   3
Atom  48H    basis set group =>   3
Atom  49H    basis set group =>   3
Atom  50H    basis set group =>   3
Atom  51H    basis set group =>   3
Atom  52H    basis set group =>   3
Atom  53H    basis set group =>   3
Atom  54H    basis set group =>   3
Atom  55H    basis set group =>   3
Atom  56H    basis set group =>   3
Atom  57H    basis set group =>   3
Atom  58H    basis set group =>   3
Atom  59H    basis set group =>   3
Atom  60H    basis set group =>   3
Atom  61H    basis set group =>   3
Atom  62H    basis set group =>   3
Atom  63H    basis set group =>   3
Atom  64H    basis set group =>   3
Atom  65H    basis set group =>   3
Atom  66H    basis set group =>   3
Atom  67H    basis set group =>   3
Atom  68H    basis set group =>   3
Atom  69H    basis set group =>   3
Atom  70H    basis set group =>   3
Atom  71H    basis set group =>   3
Atom  72H    basis set group =>   3
Atom  73H    basis set group =>   3
Atom  74H    basis set group =>   3
Atom  75H    basis set group =>   3
Atom  76H    basis set group =>   3
Atom  77H    basis set group =>   3
Atom  78H    basis set group =>   3
Atom  79H    basis set group =>   3
Atom  80H    basis set group =>   3
Atom  81H    basis set group =>   3
---------------------------------
AUXILIARY/J BASIS SET INFORMATION
---------------------------------
There are 3 groups of distinct atoms

 Group   1 Type C   : 12s5p4d2f1g contracted to 6s4p3d1f1g pattern {711111/2111/211/2/1}
 Group   2 Type O   : 12s5p4d2f1g contracted to 6s4p3d1f1g pattern {711111/2111/211/2/1}
 Group   3 Type H   : 5s2p1d contracted to 3s1p1d pattern {311/2/1}

Atom   0C    basis set group =>   1
Atom   1C    basis set group =>   1
Atom   2C    basis set group =>   1
Atom   3C    basis set group =>   1
Atom   4C    basis set group =>   1
Atom   5C    basis set group =>   1
Atom   6C    basis set group =>   1
Atom   7C    basis set group =>   1
Atom   8C    basis set group =>   1
Atom   9C    basis set group =>   1
Atom  10C    basis set group =>   1
Atom  11C    basis set group =>   1
Atom  12C    basis set group =>   1
Atom  13C    basis set group =>   1
Atom  14C    basis set group =>   1
Atom  15C    basis set group =>   1
Atom  16C    basis set group =>   1
Atom  17C    basis set group =>   1
Atom  18O    basis set group =>   2
Atom  19O    basis set group =>   2
Atom  20O    basis set group =>   2
Atom  21O    basis set group =>   2
Atom  22O    basis set group =>   2
Atom  23C    basis set group =>   1
Atom  24C    basis set group =>   1
Atom  25C    basis set group =>   1
Atom  26C    basis set group =>   1
Atom  27O    basis set group =>   2
Atom  28C    basis set group =>   1
Atom  29C    basis set group =>   1
Atom  30C    basis set group =>   1
Atom  31C    basis set group =>   1
Atom  32C    basis set group =>   1
Atom  33C    basis set group =>   1
Atom  34C    basis set group =>   1
Atom  35C    basis set group =>   1
Atom  36O    basis set group =>   2
Atom  37O    basis set group =>   2
Atom  38O    basis set group =>   2
Atom  39O    basis set group =>   2
Atom  40O    basis set group =>   2
Atom  41C    basis set group =>   1
Atom  42H    basis set group =>   3
Atom  43H    basis set group =>   3
Atom  44H    basis set group =>   3
Atom  45H    basis set group =>   3
Atom  46H    basis set group =>   3
Atom  47H    basis set group =>   3
Atom  48H    basis set group =>   3
Atom  49H    basis set group =>   3
Atom  50H    basis set group =>   3
Atom  51H    basis set group =>   3
Atom  52H    basis set group =>   3
Atom  53H    basis set group =>   3
Atom  54H    basis set group =>   3
Atom  55H    basis set group =>   3
Atom  56H    basis set group =>   3
Atom  57H    basis set group =>   3
Atom  58H    basis set group =>   3
Atom  59H    basis set group =>   3
Atom  60H    basis set group =>   3
Atom  61H    basis set group =>   3
Atom  62H    basis set group =>   3
Atom  63H    basis set group =>   3
Atom  64H    basis set group =>   3
Atom  65H    basis set group =>   3
Atom  66H    basis set group =>   3
Atom  67H    basis set group =>   3
Atom  68H    basis set group =>   3
Atom  69H    basis set group =>   3
Atom  70H    basis set group =>   3
Atom  71H    basis set group =>   3
Atom  72H    basis set group =>   3
Atom  73H    basis set group =>   3
Atom  74H    basis set group =>   3
Atom  75H    basis set group =>   3
Atom  76H    basis set group =>   3
Atom  77H    basis set group =>   3
Atom  78H    basis set group =>   3
Atom  79H    basis set group =>   3
Atom  80H    basis set group =>   3
Atom  81H    basis set group =>   3
--------------------------------------------------------------------------
WARNING: There was an error initializing an OpenFabrics device.

  Local host:   c03b01n07
  Local device: mlx5_0
--------------------------------------------------------------------------
--------------------------------------------------------------------------
WARNING: There is at least one non-excluded one OpenFabrics device found,
but there are no active ports detected (or Open MPI was unable to use
them).  This is most certainly not what you wanted.  Check your
cables, subnet manager configuration, etc.  The openib BTL will be
ignored for this job.

  Local host: c03b01n07
--------------------------------------------------------------------------
[c03b01n07:2691634] 57 more processes have sent help message help-mpi-btl-openib.txt / error in device init
[c03b01n07:2691634] Set MCA parameter "orte_base_help_aggregate" to 0 to see all help / error messages
[c03b01n07:2691634] 5 more processes have sent help message help-mpi-btl-openib.txt / no active ports found


           ************************************************************
           *        Program running with 64 parallel MPI-processes    *
           *              working on a common directory               *
           ************************************************************
------------------------------------------------------------------------------
                             ORCA STARTUP CALCULATIONS
                           -- RI-GTO INTEGRALS CHOSEN --
------------------------------------------------------------------------------
------------------------------------------------------------------------------
                   ___                                                        
                  /   \      - P O W E R E D   B Y -                         
                 /     \                                                     
                 |  |  |   _    _      __       _____    __    __             
                 |  |  |  | |  | |    /  \     |  _  \  |  |  /  |          
                  \  \/   | |  | |   /    \    | | | |  |  | /  /          
                 / \  \   | |__| |  /  /\  \   | |_| |  |  |/  /          
                |  |  |   |  __  | /  /__\  \  |    /   |      \           
                |  |  |   | |  | | |   __   |  |    \   |  |\   \          
                \     /   | |  | | |  |  |  |  | |\  \  |  | \   \       
                 \___/    |_|  |_| |__|  |__|  |_| \__\ |__|  \__/        
                                                                              
                      - O R C A' S   B I G   F R I E N D -                    
                                      &                                       
                       - I N T E G R A L  F E E D E R -                       
                                                                              
 v1 FN, 2020, v2 2021, v3 2022-2024                                           
------------------------------------------------------------------------------


----------------------
SHARK INTEGRAL PACKAGE
----------------------

Number of atoms                             ...     82
Number of basis functions                   ...   1542
Number of shells                            ...    622
Maximum angular momentum                    ...      3
Integral batch strategy                     ... SHARK/LIBINT Hybrid
RI-J (if used) integral strategy            ... SPLIT-RIJ (Revised 2003 algorithm where possible)
Printlevel                                  ...      1
Contraction scheme used                     ... SEGMENTED contraction
Prescreening option                         ... SCHWARTZ
   Thresh                                   ... 2.500e-11
   Tcut                                     ... 2.500e-12
   Tpresel                                  ... 2.500e-12 
Coulomb Range Separation                    ... NOT USED
Exchange Range Separation                   ... NOT USED
Multipole approximations                    ... NOT USED
Finite Nucleus Model                        ... NOT USED
CABS basis                                  ... NOT available
Auxiliary Coulomb fitting basis             ... AVAILABLE
   # of basis functions in Aux-J            ...   2498
   # of shells in Aux-J                     ...    830
   Maximum angular momentum in Aux-J        ...      4
Auxiliary J/K fitting basis                 ... NOT available
Auxiliary Correlation fitting basis         ... NOT available
Auxiliary 'external' fitting basis          ... NOT available

Checking pre-screening integrals            ... done (  0.3 sec) Dimension = 622
   => SHARK Basis and OBASIS are compatible. Storing Pre-screening
Shell pair information
Shell pair cut-off parameter TPreSel        ...   2.5e-12
Total number of shell pairs                 ...    193753
Shell pairs after pre-screening             ...    120807
Total number of primitive shell pairs       ...    584784
Primitive shell pairs kept                  ...    228573
          la=0 lb=0:  33649 shell pairs
          la=1 lb=0:  35952 shell pairs
          la=1 lb=1:   9684 shell pairs
          la=2 lb=0:  16420 shell pairs
          la=2 lb=1:   8957 shell pairs
          la=2 lb=2:   2075 shell pairs
          la=3 lb=0:   7517 shell pairs
          la=3 lb=1:   4219 shell pairs
          la=3 lb=2:   1875 shell pairs
          la=3 lb=3:    459 shell pairs

Checking whether 4 symmetric matrices of dimension 1542 fit in memory
:Max Core in MB      =   6000.00
 MB in use           =    144.74
 MB left             =   5855.26
 MB needed           =     36.31
 Data fit in memory  = YES
Calculating RI/J V-Matrix + Cholesky decomp.... done (  4.9 sec)
Calculating Nuclear repulsion               ... done (  0.0 sec) ENN=   5910.809373625040 Eh

Diagonalization of the overlap matrix:
Smallest eigenvalue                        ... 2.316e-06
Time for diagonalization                   ...   30.832 sec
Threshold for overlap eigenvalues          ... 1.000e-07
Number of eigenvalues below threshold      ... 0
Time for construction of square roots      ...    1.935 sec
Total time needed                          ...   33.068 sec

-------------------
DFT GRID GENERATION
-------------------

General Integration Accuracy     IntAcc      ... 4.388
Radial Grid Type                 RadialGrid  ... OptM3 with GC (2021)
Angular Grid (max. ang.)         AngularGrid ... 4 (Lebedev-302)
Angular grid pruning method      GridPruning ... 4 (adaptive)
Weight generation scheme         WeightScheme... mBecke (2022)
Basis function cutoff            BFCut       ... 1.0000e-11
Integration weight cutoff        WCut        ... 1.0000e-14
Partially contracted basis set               ... off
Rotationally invariant grid construction     ... off
Angular grids for H and He will be reduced by one unit

Total number of grid points                  ...   373039
Total number of batches                      ...     5868
Average number of points per batch           ...       63
Average number of grid points per atom       ...     4549

--------------------
COSX GRID GENERATION
--------------------

GRIDX 1
-------
General Integration Accuracy     IntAcc      ... 3.816
Radial Grid Type                 RadialGrid  ... OptM3 with GC (2021)
Angular Grid (max. ang.)         AngularGrid ... 1 (Lebedev-50)
Angular grid pruning method      GridPruning ... 4 (adaptive)
Weight generation scheme         WeightScheme... mBecke (2022)
Basis function cutoff            BFCut       ... 1.0000e-11
Integration weight cutoff        WCut        ... 1.0000e-14
Partially contracted basis set               ... on
Rotationally invariant grid construction     ... off
Angular grids for H and He will be reduced by one unit

Total number of grid points                  ...    47209
Total number of batches                      ...      413
Average number of points per batch           ...      114
Average number of grid points per atom       ...      576
UseSFitting                                  ... on

GRIDX 2
-------
General Integration Accuracy     IntAcc      ... 4.020
Radial Grid Type                 RadialGrid  ... OptM3 with GC (2021)
Angular Grid (max. ang.)         AngularGrid ... 2 (Lebedev-110)
Angular grid pruning method      GridPruning ... 4 (adaptive)
Weight generation scheme         WeightScheme... mBecke (2022)
[...]
freq.     642.34  E(vib)   ...       0.09 
freq.     658.50  E(vib)   ...       0.08 
freq.     673.68  E(vib)   ...       0.08 
freq.     690.31  E(vib)   ...       0.07 
freq.     729.99  E(vib)   ...       0.06 
freq.     737.16  E(vib)   ...       0.06 
freq.     743.21  E(vib)   ...       0.06 
freq.     743.68  E(vib)   ...       0.06 
freq.     752.89  E(vib)   ...       0.06 
freq.     767.11  E(vib)   ...       0.06 
freq.     774.76  E(vib)   ...       0.05 
freq.     799.64  E(vib)   ...       0.05 
freq.     812.45  E(vib)   ...       0.05 
freq.     818.11  E(vib)   ...       0.05 
freq.     834.59  E(vib)   ...       0.04 
freq.     834.79  E(vib)   ...       0.04 
freq.     846.47  E(vib)   ...       0.04 
freq.     855.92  E(vib)   ...       0.04 
freq.     872.79  E(vib)   ...       0.04 
freq.     891.07  E(vib)   ...       0.04 
freq.     891.73  E(vib)   ...       0.03 
freq.     907.45  E(vib)   ...       0.03 
freq.     910.18  E(vib)   ...       0.03 
freq.     912.57  E(vib)   ...       0.03 
freq.     929.04  E(vib)   ...       0.03 
freq.     933.91  E(vib)   ...       0.03 
freq.     946.02  E(vib)   ...       0.03 
freq.     951.02  E(vib)   ...       0.03 
freq.     954.05  E(vib)   ...       0.03 
freq.     970.43  E(vib)   ...       0.03 
freq.     971.87  E(vib)   ...       0.03 
freq.     998.38  E(vib)   ...       0.02 
freq.    1012.74  E(vib)   ...       0.02 
freq.    1027.55  E(vib)   ...       0.02 
freq.    1041.75  E(vib)   ...       0.02 
freq.    1047.78  E(vib)   ...       0.02 
freq.    1048.91  E(vib)   ...       0.02 
freq.    1049.54  E(vib)   ...       0.02 
freq.    1059.07  E(vib)   ...       0.02 
freq.    1063.18  E(vib)   ...       0.02 
freq.    1069.52  E(vib)   ...       0.02 
freq.    1095.40  E(vib)   ...       0.02 
freq.    1105.00  E(vib)   ...       0.02 
freq.    1116.87  E(vib)   ...       0.01 
freq.    1122.94  E(vib)   ...       0.01 
freq.    1140.71  E(vib)   ...       0.01 
freq.    1147.04  E(vib)   ...       0.01 
freq.    1148.31  E(vib)   ...       0.01 
freq.    1165.71  E(vib)   ...       0.01 
freq.    1170.59  E(vib)   ...       0.01 
freq.    1170.65  E(vib)   ...       0.01 
freq.    1170.90  E(vib)   ...       0.01 
freq.    1172.26  E(vib)   ...       0.01 
freq.    1172.31  E(vib)   ...       0.01 
freq.    1181.82  E(vib)   ...       0.01 
freq.    1185.55  E(vib)   ...       0.01 
freq.    1196.54  E(vib)   ...       0.01 
freq.    1202.56  E(vib)   ...       0.01 
freq.    1209.27  E(vib)   ...       0.01 
freq.    1210.24  E(vib)   ...       0.01 
freq.    1214.45  E(vib)   ...       0.01 
freq.    1220.55  E(vib)   ...       0.01 
freq.    1221.21  E(vib)   ...       0.01 
freq.    1229.44  E(vib)   ...       0.01 
freq.    1238.53  E(vib)   ...       0.01 
freq.    1244.91  E(vib)   ...       0.01 
freq.    1247.20  E(vib)   ...       0.01 
freq.    1250.29  E(vib)   ...       0.01 
freq.    1251.61  E(vib)   ...       0.01 
freq.    1273.92  E(vib)   ...       0.01 
freq.    1275.97  E(vib)   ...       0.01 
freq.    1286.66  E(vib)   ...       0.01 
freq.    1287.97  E(vib)   ...       0.01 
freq.    1295.33  E(vib)   ...       0.01 
freq.    1298.15  E(vib)   ...       0.01 
freq.    1301.21  E(vib)   ...       0.01 
freq.    1316.39  E(vib)   ...       0.01 
freq.    1326.64  E(vib)   ...       0.01 
freq.    1346.04  E(vib)   ...       0.01 
freq.    1348.36  E(vib)   ...       0.01 
freq.    1352.15  E(vib)   ...       0.01 
freq.    1360.27  E(vib)   ...       0.01 
freq.    1366.50  E(vib)   ...       0.01 
freq.    1367.52  E(vib)   ...       0.01 
freq.    1373.21  E(vib)   ...       0.01 
freq.    1381.53  E(vib)   ...       0.01 
freq.    1382.81  E(vib)   ...       0.01 
freq.    1397.03  E(vib)   ...       0.00 
freq.    1399.04  E(vib)   ...       0.00 
freq.    1404.98  E(vib)   ...       0.00 
freq.    1405.80  E(vib)   ...       0.00 
freq.    1419.82  E(vib)   ...       0.00 
freq.    1428.30  E(vib)   ...       0.00 
freq.    1430.54  E(vib)   ...       0.00 
freq.    1447.60  E(vib)   ...       0.00 
freq.    1454.31  E(vib)   ...       0.00 
freq.    1459.38  E(vib)   ...       0.00 
freq.    1461.93  E(vib)   ...       0.00 
freq.    1476.98  E(vib)   ...       0.00 
freq.    1478.84  E(vib)   ...       0.00 
freq.    1479.91  E(vib)   ...       0.00 
freq.    1480.15  E(vib)   ...       0.00 
freq.    1480.95  E(vib)   ...       0.00 
freq.    1482.85  E(vib)   ...       0.00 
freq.    1483.19  E(vib)   ...       0.00 
freq.    1483.73  E(vib)   ...       0.00 
freq.    1485.51  E(vib)   ...       0.00 
freq.    1489.94  E(vib)   ...       0.00 
freq.    1491.53  E(vib)   ...       0.00 
freq.    1491.87  E(vib)   ...       0.00 
freq.    1492.67  E(vib)   ...       0.00 
freq.    1493.43  E(vib)   ...       0.00 
freq.    1493.81  E(vib)   ...       0.00 
freq.    1495.87  E(vib)   ...       0.00 
freq.    1504.68  E(vib)   ...       0.00 
freq.    1540.42  E(vib)   ...       0.00 
freq.    1541.89  E(vib)   ...       0.00 
freq.    1542.59  E(vib)   ...       0.00 
freq.    1632.72  E(vib)   ...       0.00 
freq.    1641.66  E(vib)   ...       0.00 
freq.    1642.07  E(vib)   ...       0.00 
freq.    1643.50  E(vib)   ...       0.00 
freq.    1647.98  E(vib)   ...       0.00 
freq.    1650.67  E(vib)   ...       0.00 
freq.    2989.57  E(vib)   ...       0.00 
freq.    3010.69  E(vib)   ...       0.00 
freq.    3017.86  E(vib)   ...       0.00 
freq.    3020.31  E(vib)   ...       0.00 
freq.    3022.87  E(vib)   ...       0.00 
freq.    3027.16  E(vib)   ...       0.00 
freq.    3028.90  E(vib)   ...       0.00 
freq.    3029.06  E(vib)   ...       0.00 
freq.    3030.45  E(vib)   ...       0.00 
freq.    3033.38  E(vib)   ...       0.00 
freq.    3040.55  E(vib)   ...       0.00 
freq.    3042.30  E(vib)   ...       0.00 
freq.    3056.92  E(vib)   ...       0.00 
freq.    3066.10  E(vib)   ...       0.00 
freq.    3080.98  E(vib)   ...       0.00 
freq.    3084.79  E(vib)   ...       0.00 
freq.    3087.56  E(vib)   ...       0.00 
freq.    3090.10  E(vib)   ...       0.00 
freq.    3092.95  E(vib)   ...       0.00 
freq.    3096.87  E(vib)   ...       0.00 
freq.    3101.32  E(vib)   ...       0.00 
freq.    3104.42  E(vib)   ...       0.00 
freq.    3138.38  E(vib)   ...       0.00 
freq.    3141.92  E(vib)   ...       0.00 
freq.    3142.52  E(vib)   ...       0.00 
freq.    3143.08  E(vib)   ...       0.00 
freq.    3169.31  E(vib)   ...       0.00 
freq.    3171.27  E(vib)   ...       0.00 
freq.    3185.47  E(vib)   ...       0.00 
freq.    3187.32  E(vib)   ...       0.00 
freq.    3197.53  E(vib)   ...       0.00 
freq.    3208.68  E(vib)   ...       0.00 
freq.    3211.42  E(vib)   ...       0.00 
freq.    3226.65  E(vib)   ...       0.00 
freq.    3583.02  E(vib)   ...       0.00 
freq.    3611.43  E(vib)   ...       0.00 
freq.    3721.57  E(vib)   ...       0.00 
freq.    3724.98  E(vib)   ...       0.00 
freq.    3735.46  E(vib)   ...       0.00 
freq.    3785.16  E(vib)   ...       0.00 

------------
INNER ENERGY
------------

The inner energy is: U= E(el) + E(ZPE) + E(vib) + E(rot) + E(trans)
    E(el)   - is the total energy from the electronic structure calculation
              = E(kin-el) + E(nuc-el) + E(el-el) + E(nuc-nuc)
    E(ZPE)  - the the zero temperature vibrational energy from the frequency calculation
    E(vib)  - the the finite temperature correction to E(ZPE) due to population
              of excited vibrational states
    E(rot)  - is the rotational thermal energy
    E(trans)- is the translational thermal energy

Summary of contributions to the inner energy U:
Electronic energy                ...  -2032.64052511 Eh
Zero point energy                ...      0.67970406 Eh     426.52 kcal/mol
Thermal vibrational correction   ...      0.03989383 Eh      25.03 kcal/mol
Thermal rotational correction    ...      0.00141627 Eh       0.89 kcal/mol
Thermal translational correction ...      0.00141627 Eh       0.89 kcal/mol
-----------------------------------------------------------------------
Total thermal energy                  -2031.91809468 Eh


Summary of corrections to the electronic energy:
(perhaps to be used in another calculation)
Total thermal correction                  0.04272637 Eh      26.81 kcal/mol
Non-thermal (ZPE) correction              0.67970406 Eh     426.52 kcal/mol
-----------------------------------------------------------------------
Total correction                          0.72243043 Eh     453.33 kcal/mol


--------
ENTHALPY
--------

The enthalpy is H = U + kB*T
                kB is Boltzmann's constant
Total thermal energy              ...  -2031.91809468 Eh 
Thermal Enthalpy correction       ...      0.00094421 Eh       0.59 kcal/mol
-----------------------------------------------------------------------
Total Enthalpy                    ...  -2031.91715047 Eh


Note: Only C1 symmetry has been detected, increase convergence thresholds 
      if your molecule has a higher symmetry. Symmetry factor of 1.0 is   
      used for the rotational entropy correction. 
 

Note: Rotational entropy computed according to Herzberg 
Infrared and Raman Spectra, Chapter V,1, Van Nostrand Reinhold, 1945 
Point Group:  C1, Symmetry Number:   1  
Rotational constants in cm-1:     0.003584     0.002561     0.001996 

Vibrational entropy computed according to the QRRHO of S. Grimme
Chem.Eur.J. 2012 18 9955 using a reference frequency of 100.0 cm-1


-------
ENTROPY
-------

The entropy contributions are T*S = T*(S(el)+S(vib)+S(rot)+S(trans))
     S(el)   - electronic entropy
     S(vib)  - vibrational entropy
     S(rot)  - rotational entropy
     S(trans)- translational entropy
The entropies will be listed as multiplied by the temperature to get
units of energy

Electronic entropy                ...      0.00000000 Eh      0.00 kcal/mol
Vibrational entropy               ...      0.07126002 Eh     44.72 kcal/mol
Rotational entropy                ...      0.01792122 Eh     11.25 kcal/mol
Translational entropy             ...      0.02138181 Eh     13.42 kcal/mol
-----------------------------------------------------------------------
Final entropy term                ...      0.11056306 Eh     69.38 kcal/mol

In case the symmetry of your molecule has not been determined correctly
or in case you have a reason to use a different symmetry number we print 
out the resulting rotational entropy values for sn=1,12:

 non-linear molecules -----------------------------------
|  sn= 1 | S(rot)=       0.01792122 Eh     11.25 kcal/mol|
|  sn= 2 | S(rot)=       0.01726677 Eh     10.84 kcal/mol|
|  sn= 3 | S(rot)=       0.01688394 Eh     10.59 kcal/mol|
|  sn= 4 | S(rot)=       0.01661231 Eh     10.42 kcal/mol|
|  sn= 5 | S(rot)=       0.01640162 Eh     10.29 kcal/mol|
|  sn= 6 | S(rot)=       0.01622948 Eh     10.18 kcal/mol|
|  sn= 7 | S(rot)=       0.01608393 Eh     10.09 kcal/mol|
|  sn= 8 | S(rot)=       0.01595786 Eh     10.01 kcal/mol|
|  sn= 9 | S(rot)=       0.01584665 Eh      9.94 kcal/mol|
|  sn=10 | S(rot)=       0.01574717 Eh      9.88 kcal/mol|
|  sn=11 | S(rot)=       0.01565718 Eh      9.83 kcal/mol|
|  sn=12 | S(rot)=       0.01557502 Eh      9.77 kcal/mol|
 linear molecules ---------------------------------------
|  Dinfh | S(rot)=       0.01119542 Eh      7.03 kcal/mol|
|  Cinfv | S(rot)=       0.01184988 Eh      7.44 kcal/mol|
 --------------------------------------------------------


-------------------
GIBBS FREE ENERGY
-------------------

The Gibbs free energy is G = H - T*S

Total enthalpy                    ...  -2031.91715047 Eh 
Total entropy correction          ...     -0.11056306 Eh    -69.38 kcal/mol
-----------------------------------------------------------------------
Final Gibbs free energy         ...  -2032.02771354 Eh

For completeness - the Gibbs free energy minus the electronic energy
G-E(el)                           ...      0.61281158 Eh    384.54 kcal/mol


Maximum memory used throughout the entire PROP-calculation: 1829.1 MB
--------------------------------------------------------------------------
WARNING: There was an error initializing an OpenFabrics device.

  Local host:   c03b01n07
  Local device: mlx5_0
--------------------------------------------------------------------------
--------------------------------------------------------------------------
WARNING: There is at least one non-excluded one OpenFabrics device found,
but there are no active ports detected (or Open MPI was unable to use
them).  This is most certainly not what you wanted.  Check your
cables, subnet manager configuration, etc.  The openib BTL will be
ignored for this job.

  Local host: c03b01n07
--------------------------------------------------------------------------
[c03b01n07:2790206] 60 more processes have sent help message help-mpi-btl-openib.txt / error in device init
[c03b01n07:2790206] Set MCA parameter "orte_base_help_aggregate" to 0 to see all help / error messages
[c03b01n07:2790206] 2 more processes have sent help message help-mpi-btl-openib.txt / no active ports found

--------------------------------
SUGGESTED CITATIONS FOR THIS RUN
--------------------------------

Below you find a list of papers that are relevant to this ORCA run
We neither can nor want to force you to cite these papers, but we appreciate if you do
You receive ORCA, which is the product of decades of hard work by many enthusiastic individuals, for free
The only thing we kindly ask in return is that you cite our papers,
We deeply appreciate it, if you show your appreciation for ORCA by not just citing the generic ORCA reference.

Please note that relegating all ORCA citations to the supporting information does *not* help us.
SI sections are not indexed - citations you put there will not count into any citation statistics
But we need these citations in order to attract the funding resources that allow us to do what we are doing

Therefore, if you are a happy ORCA user, please consider citing a few of the papers listed below in the main body of your paper

In addition to the list printed below, the program has created the file opt-conf-3.bibtex that contains the list in bibtex format
You can import this file easily into all common literature databanks and citation aid programs


List of essential papers. We consider these as the minimum necessary citations

  1. Neese, F.
     Software update: the ORCA program system, version 6.0
     WIRES Comput. Molec. Sci. 2025 15(1), e70019
     doi.org/10.1002/wcms.7019

List of papers to cite with high priority. The work reported in these papers was absolutely
necessary for this run to complete.
Our perspective: the developers of density functionals and basis sets usually get cited in chemistry papers
Good! But without the algorithms to do something with them, the functionals or basis sets would not do anything.
Hence, in our opinion, the algorithm design and method developments papers are equally worthy of getting cited

  1. Neese, F.
     An improvement of the resolution of the identity approximation for the formation of the Coulomb matrix
     J. Comp. Chem. 2003 24(14), 1740-1747
     doi.org/10.1002/jcc.10318
  2. Neese, F.; Wennmohs, F.; Hansen, A.; Becker, U.
     Efficient, approximate and parallel Hartree-Fock and hybrid DFT calculations. A 'chain-of-spheres' algorithm for the Hartree-Fock exchange
     Chem. Phys. 2009 356(1-3), 98-109
     doi.org/10.1016/j.chemphys.2008.10.036
  3. Bykov, D.; Petrenko, T.; Izsak, R.; Kossmann, S.; Becker, U.; Valeev, E.; Neese, F.
     Efficient implementation of the analytic second derivatives of Hartree-Fock and hybrid DFT energies: a detailed analysis of different approximations
     Molec. Phys. 2015 113 , 1961-1977
     doi.org/10.1080/00268976.2015.1025114
  4. Caldeweyher, E.; Bannwarth, C.; Grimme, S.
     Extension of the D3 dispersion coefficient model
     J. Chem. Phys. 2017 147 , 034112
     doi.org/10.1063/1.4993215
  5. Caldeweyher, E.; Ehlert, S.; Hansen, A.; Neugebauer, H.; Spicher, S.; Bannwarth, C.; Grimme, S.
     A generally applicable atomic-charge dependent London dispersion correction
     J. Chem. Phys. 2019 150 , 154122
     doi.org/10.1063/1.5090222
  6. Garcia-Rates, M.; Neese, F.
     Efficient implementation of the analytical second derivatives of hartree-fock and hybrid DFT energies within the framework of the conductor-like polarizable continuum model
     J. Comput. Chem. 2019 40 , 1816-1828
     doi.org/10.1002/jcc.25833
  7. Caldeweyher, E.; Mewes, J.; Ehlert, S.; Grimme, S.
     Extension and evaluation of the D4 London-dispersion model for periodic systems
     Phys. Chem. Chem. Phys. 2020 22(16), 8499-8512
     doi.org/10.1039/D0CP00502A
  8. Garcia-Rates, M.; Neese, F.
     Effect of the Solute Cavity on the Solvation Energy and its Derivatives within the Framework of the Gaussian Charge Scheme
     J. Comput. Chem. 2020 41 , 922-939
     doi.org/10.1002/jcc.26139
  9. Helmich-Paris, B.; de Souza, B.; Neese, F.; Izsák, R.
     An improved chain of spheres for exchange algorithm
     J. Chem. Phys. 2021 155(10), 104109
     doi.org/10.1063/5.0058766
 10. Neese, F.
     The SHARK Integral Generation and Digestion System
     J. Comp. Chem. 2022 44(3), 381
     doi.org/10.1002/jcc.26942
 11. Wittmann, L.; Gordiy, I.; Friede, M.; Helmich-Paris, B.; Grimme, S.; Hansen, A.; Bursch, M.
     Extension of the D3 and D4 London Dispersion Corrections to the full Actinides Series
     Phys. Chem. Chem. Phys. 2024 26(32), 21379-21394
     doi.org/10.1039/D4CP01514B

List of suggested additional citations. These are papers that are important in the 'surrounding' of 
of this run, or papers that preceded the highly important papers. If you like your results we are grateful for a citation.

  1. Izsak, R.; Neese, F.
     An overlap fitted chain of spheres exchange method
     J. Chem. Phys. 2011 135 , 144105
     doi.org/10.1063/1.3646921
  2. Izsak, R.; Hansen, A.; Neese, F.
     The resolution of identity and chain of spheres approximations for the LPNO-CCSD singles Fock term
     Molec. Phys. 2012 110 , 2413-2417
     doi.org/10.1080/00268976.2012.687466
  3. Neese, F.
     The ORCA program system
     WIRES Comput. Molec. Sci. 2012 2(1), 73-78
     doi.org/10.1002/wcms.81
  4. Izsak, R.; Neese, F.; Klopper, W.
     Robust fitting techniques in the chain of spheres approximation to the Fock exchange: The role of the complementary space
     J. Chem. Phys. 2013 139 , 
     doi.org/10.1063/1.4819264
  5. Neese, F.
     Software update: the ORCA program system, version 4.0
     WIRES Comput. Molec. Sci. 2018 8(1), 1-6
     doi.org/10.1002/wcms.1327
  6. Neese, F.; Wennmohs, F.; Becker, U.; Riplinger, C.
     The ORCA quantum chemistry program package
     J. Chem. Phys. 2020 152(22), 224108
     doi.org/10.1063/5.0004608
  7. Neese, F.
     Software update: The ORCA program system—Version 5.0
     WIRES Comput. Molec. Sci. 2022 12(1), e1606
     doi.org/10.1002/wcms.1606

List of optional additional citations

  1. Neese, F.
     Approximate second-order SCF convergence for spin unrestricted wavefunctions
     Chem. Phys. Lett. 2000 325(1-3), 93-98
     doi.org/10.1016/s0009-2614(00)00662-x

Timings for individual modules:

Sum of individual times          ...    20988.940 sec (= 349.816 min)
Startup calculation              ...     1944.599 sec (=  32.410 min)   9.3 %
SCF iterations                   ...    12104.867 sec (= 201.748 min)  57.7 %
Property integrals               ...     1537.732 sec (=  25.629 min)   7.3 %
SCF Response                     ...     3338.804 sec (=  55.647 min)  15.9 %
Property calculations            ...      752.317 sec (=  12.539 min)   3.6 %
SCF Gradient evaluation          ...     1303.667 sec (=  21.728 min)   6.2 %
Geometry relaxation              ...        6.956 sec (=   0.116 min)   0.0 %
                             ****ORCA TERMINATED NORMALLY****
TOTAL RUN TIME: 0 days 5 hours 57 minutes 49 seconds 691 msec
