
                                 *****************
                                 * O   R   C   A *
                                 *****************

                                            #,                                       
                                            ###                                      
                                            ####                                     
                                            #####                                    
                                            ######                                   
                                           ########,                                 
                                     ,,################,,,,,                         
                               ,,#################################,,                 
                          ,,##########################################,,             
                       ,#########################################, ''#####,          
                    ,#############################################,,   '####,        
                  ,##################################################,,,,####,       
                ,###########''''           ''''###############################       
              ,#####''   ,,,,##########,,,,          '''####'''          '####       
            ,##' ,,,,###########################,,,                        '##       
           ' ,,###''''                  '''############,,,                           
         ,,##''                                '''############,,,,        ,,,,,,###''
      ,#''                                            '''#######################'''  
     '                                                          ''''####''''         
             ,#######,   #######,   ,#######,      ##                                
            ,#'     '#,  ##    ##  ,#'     '#,    #''#        ,####,    ,#,          
            ##       ##  ##   ,#'  ##            #'  '#       #'       ,# #          
            ##       ##  #######   ##           ,######,      #####,      #          
            '#,     ,#'  ##    ##  '#,     ,#' ,#      #,     #,   #      #          
             '#######'   ##     ##  '#######'  #'      '#     '####' #    #          



                #########################################################
                #                        -***-                          #
                #          Department of theory and spectroscopy        #
                #                                                       #
                #                      Frank Neese                      #
                #                                                       #
                #     Directorship, Architecture, Infrastructure        #
                #                    SHARK, DRIVERS                     #
                #        Core code/Algorithms in most modules           #
                #                                                       #
                #        Max Planck Institute fuer Kohlenforschung      #
                #                Kaiser Wilhelm Platz 1                 #
                #                 D-45470 Muelheim/Ruhr                 #
                #                      Germany                          #
                #                                                       #
                #                  All rights reserved                  #
                #                        -***-                          #
                #########################################################


                         Program Version 6.1.0-f.0  -   RELEASE   -


 With contributions from (in alphabetic order):
[Max-Planck-Institut fuer Kohlenforschung]                               
  Daniel Aravena         : Magnetic Suceptibility                        
  Michael Atanasov       : Ab Initio Ligand Field Theory (pilot matlab implementation)
  Alexander A. Auer      : GIAO ZORA, VPT2 properties, NMR spectrum      
  Ute Becker             : All parallelization in ORCA, NUMFREQ, NUMCALC 
  Giovanni Bistoni       : ED, misc. LED, open-shell LED, HFLD           
  Dmytro Bykov           : pre 5.0 version of the SCF Hessian            
  Marcos Casanova-Páez   : Triplet and SCS-CIS(D). UHF-(DLPNO)-IP/EA/STEOM-CCSD. UHF-CVS-IP/STEOM-CCSD   
  Vijay G. Chilkuri      : MRCI spin determinant printing, contributions to CSF-ICE 
  Pauline Colinet        : FMM embedding                                 
  Dipayan Datta          : RHF DLPNO-CCSD density                        
  Achintya Kumar Dutta   : EOM-CC, STEOM-CC                              
  Nicolas Foglia         : Exact transition moments, OPA infrastructure, MCD improvements    
  Dmitry Ganyushin       : Spin-Orbit,Spin-Spin,Magnetic field MRCI      
  Miquel Garcia-Rates    : C-PCM and meta-GGA Hessian, CCSD/C-PCM, Gaussian charge scheme 
  Tiago L. C. Gouveia    : GS-ROHF, GS-ROCIS                             
  Yang Guo               : DLPNO-NEVPT2, F12-NEVPT2, CIM, IAO-localization        
  Andreas Hansen         : Spin unrestricted coupled pair/coupled cluster methods 
  Ingolf Harden          : AUTO-CI MPn and infrastructure                
  Benjamin Helmich-Paris : MC-RPA, TRAH-(SCF,CASSCF), AVAS, COSX integrals, SCF dyn. polar., MC-PDFT, srDFT 
  Lee Huntington         : MR-EOM, pCC                                   
  Robert Izsak           : Overlap fitted RIJCOSX, COSX-SCS-MP3, EOM     
  Riya Kayal             : Wick's Theorem for AUTO-CI, AUTO-CI UHF-CCSDT 
  Emily Kempfer          : AUTO-CI RHF CISDT and CCSDT, approximate NEVPT4
  Christian Kollmar      : KDIIS, OOCD, Brueckner-CCSD(T), CCSD density, CASPT2, CASPT2-K, improved NEVPT2 
  Axel Koslowski         : Symmetry handling                             
  Simone Kossmann        : meta-GGA functionals, TD-DFT gradient, OOMP2, (MP2 Hessian; deprecated post 5.0) 
  Lucas Lang             : DCDCAS, Hyperfine gauge corrections, ICE-SOC+SSC
  Marvin Lechner         : AUTO-CI (C++ implementation), FIC-MRCC        
  Spencer Leger          : CASSCF response                               
  Dagmar Lenk            : GEPOL surface, SMD, ORCA-2-JSON               
  Dimitrios Liakos       : Extrapolation schemes; Compound Job, Property file
  Dimitrios Manganas     : Further ROCIS development; embedding schemes. LFT, Crystal Embedding 
  Dimitrios Pantazis     : SARC Basis sets                               
  Anastasios Papadopoulos: AUTO-CI, single reference methods and gradients 
  Taras Petrenko         : pre 6.0 DFT Hessian and TD-DFT gradient,  ECA, NRVS 
  Petra Pikulova         : Analytic Raman intensities                    
  Peter Pinski           : DLPNO-MP2, DLPNO-MP2 Gradient                 
  Shashank Vittal Rao    : ES-AILFT, MagRelax                            
  Christoph Reimann      : Effective Core Potentials                     
  Marius Retegan         : Local ZFS, SOC                                
  Christoph Riplinger    : Optimizer, TS searches, QM/MM, DLPNO-CCSD(T), (RO)-DLPNO pert. Triples 
  Michael Roemelt        : Original ROCIS implementation, recursive CI coupling coefficients
  Masaaki Saitow         : Open-shell DLPNO-CCSD energy and density      
  Barbara Sandhoefer     : DKH picture change effects                    
  Yorick L. A. Schmerwitz: GMF and freeze-and-release deltaSCF, NEB S-IDPP initial path                    
  Kantharuban Sivalingam : CASSCF convergence/infrastructure, NEVPT2, NEVPT3, NEVPT4(SD), FIC-MRCI and CEPA variants
  Bernardo de Souza      : ESD, SOC TD-DFT                               
  Georgi L. Stoychev     : AutoAux, RI-MP2 NMR, DLPNO-MP2 response, X2C  
  Van Anh Tran           : RI-MP2 g-tensors                              
  Willem Van den Heuvel  : Paramagnetic NMR                              
  Zikuan Wang            : NOTCH, Electric field optimization            
  Frank Wennmohs         : Technical directorship and infrastructure     
  Hang Xu                : AUTO-CI-Response properties                   
                                                                         
[FACCTs GmbH]                                                            
  Markus Bursch, Nicolas Foglia, Miquel Garcia-Rates, Ingolf Harden, Hagen Neugebauer, Anastasios Papadopoulos, 
  Christoph Riplinger, Bernardo de Souza, Georgi L. Stoychev                                                    
                                                                 
  APM, various basis sets, CI-OPT, improved COSX, DLPNO-Multilevel,           
  DOCKER, DRACO, updates on ESD, Fragmentator, GOAT, IRC, LR-CPCM, L-BFGS, MBIS, meta-GGA TD-DFT gradient, ML-optimized integration grids, 
  MM, NACMEs, nearIR, NEB, NEB-TS, NL-DFT gradient (VV10), 2- and 3-layer-ONIOM, interface openCOSMO-RS, QMMM,   
  Crystal-QMMM, RESP, rigid body optimization, SF, symmetry and pop. for TD-DFT, various functionals, SOLVATOR                                   
                                                                         
[Other institutions]                                                     
  V. Asgeirsson          : NEB                                           
  Christoph Bannwarth    : sTDA-DFT, sTD-DFT, PBEh-3c, B97-3c, D3        
  Giovanni Bistoni       : ETS/NOCV, ADLD/ADEX, COVALED                  
  Martin Brehm           : Molecular dynamics                            
  Ronald Cardenas        : ETS/NOCV                                      
  Martina Colucci        : COVALED                                       
  Sebastian Ehlert       : rSCAN, r2SCAN, r2SCAN-3c, D4, dhf basis sets  
  Marvin Friede          : D4 for Fr, Ra, Ac-Lr                          
  Lars Goerigk           : TD-DFT with DH, B97 family of functionals     
  Stefan Grimme          : VdW corrections, initial TS optimization, DFT functionals, gCP, sTDA/sTD-DF 
  Waldemar Hujo          : DFT-NL                                        
  H. Jonsson             : NEB                                           
  Holger Kruse           : gCP                                           
  Marcel Mueller         : wB97X-3c, vDZP basis set                      
  Hagen Neugebauer       : wr2SCAN, Native XTB                           
  Gianluca Regni         : ADLD/ADEX                                     
  Tobias Risthaus        : pre 6.0 range-separated hybrid DFT and stability analysis
  Lukas Wittmann         : regularized MP2, r2SCAN double-hybrids, wr2SCAN        
                                                                         
We gratefully acknowledge several colleagues who have allowed us to      
interface, adapt or use parts of their codes:                            
  Ed Valeev, F. Pavosevic, A. Kumar             : LibInt (2-el integral package), F12 methods 
  Garnet Chan, S. Sharma, J. Yang, R. Olivares  : DMRG                   
  Ulf Ekstrom                                   : XCFun DFT Library      
  Mihaly Kallay                                 : mrcc  (arbitrary order and MRCC methods)
  Frank Weinhold                                : gennbo (NPA and NBO analysis)           
  Simon Mueller                                 : openCOSMO-RS                            
  Christopher J. Cramer and Donald G. Truhlar   : smd solvation model                     
  S Lehtola, MJT Oliveira, MAL Marques          : LibXC Library                           
  Liviu Ungur et al                             : ANISO software                          


 Your calculation uses the libint2 library for the computation of 2-el integrals
 For citations please refer to: http://libint.valeyev.net

 Your ORCA version has been built with support for libXC version: 7.0.0
 For citations please refer to: https://libxc.gitlab.io

 This ORCA versions uses:
   CBLAS   interface :  Fast vector & matrix operations
   LAPACKE interface :  Fast linear algebra routines
   SCALAPACK package :  Parallel linear algebra routines
   Shared memory     :  Shared parallel matrices
   BLAS/LAPACK       :  OpenBLAS 0.3.29  USE64BITINT DYNAMIC_ARCH NO_AFFINITY Cooperlake SINGLE_THREADED
        Core in use  :  Cooperlake
   Copyright (c) 2011-2014, The OpenBLAS Project


  ***********************************
  * Starting time: Tue Mar  3 23:15:13 2026
  * Host name:     c08b01n08
  * Process ID:    1549229
  * Working dir.:  /lustre1/jiangy/jiangy_liuxy/NMR/B9D7C2-SSRR
  ***********************************

NOTE: MaxCore=6000 MB was set to SCF,MP2,MDCI,CIPSI,MRCI,RASCI and CIS
      => If you want to overwrite this, your respective input block should be placed after the MaxCore statement


***************************************
The coordinates will be read from file: conf-4.xyz
***************************************


Your calculation utilizes the atom-pairwise dispersion correction
based on EEQ partial charges (D4)


Warning: RI is on but no J-basis has been assigned. Assigning Def2/J (nothing to worry about!)
================================================================================

----- Orbital basis set information -----
Your calculation utilizes the basis: def2-TZVP
   F. Weigend and R. Ahlrichs, Phys. Chem. Chem. Phys. 7, 3297 (2005).

----- AuxJ basis set information -----
Your calculation utilizes the auxiliary basis: def2/J
   H-Rn: F. Weigend, Phys. Chem. Chem. Phys. 8, 1057 (2006).
   Fr-Lr: K. Eichkorn, F. Weigend, O. Treutler, R. Ahlrichs; Theor. Chem. Acc. 97, 119 (1997).

================================================================================
                                        WARNINGS
                       Please study these warnings very carefully!
================================================================================


WARNING: Geometry Optimization
  ===> : Switching off AutoStart
         For restart on a previous wavefunction, please use MOREAD

================================================================================
                                       INPUT FILE
================================================================================
NAME = opt-conf-4.inp
|  1> ! B3LYP OPT FREQ DEF2-TZVP D4 CPCM(Methanol) 
|  2> ! TightOpt
|  3> %pal nprocs 64 end
|  4> %maxcore 6000
|  5> 
|  6> %cpcm
|  7> end
|  8> 
|  9> %freq
| 10>    Temp 298.15
| 11> end
| 12> 
| 13> * xyzfile 0 1 conf-4.xyz
| 14> 
| 15> 
| 16>                          ****END OF INPUT****
================================================================================

                       *****************************
                       * Geometry Optimization Run *
                       *****************************

Geometry optimization settings:
Update method            Update   .... BFGS
Choice of coordinates    CoordSys .... (2022) Redundant Internals
Initial Hessian          InHess   .... Almloef's Model
Max. no of cycles        MaxIter  .... 246

Convergence Tolerances:
Energy Change            TolE     ....  1.0000e-06 Eh
Max. Gradient            TolMAXG  ....  1.0000e-04 Eh/bohr
RMS Gradient             TolRMSG  ....  3.0000e-05 Eh/bohr
Max. Displacement        TolMAXD  ....  1.0000e-03 bohr
RMS Displacement         TolRMSD  ....  6.0000e-04 bohr
Strict Convergence                .... False

------------------------------------------------------------------------------
                        ORCA OPTIMIZATION COORDINATE SETUP
------------------------------------------------------------------------------

The optimization will be done in redundant internal coordinates (2022)
Making redundant internal coordinates   ...  (2022 redundants) done
Evaluating the initial hessian          ...  (Almloef) done
Evaluating the coordinates              ...  done
Calculating the B-matrix                .... done
Calculating the G-matrix                .... done
The number of degrees of freedom        ....  407

    -----------------------------------------------------------------
                    Redundant Internal Coordinates


    -----------------------------------------------------------------
         Definition                    Initial Value    Approx d2E/dq
    -----------------------------------------------------------------
      1. B(C   1,C   0)                  1.3994         0.603517   
      2. B(C   2,C   1)                  1.4012         0.599647   
      3. B(C   3,C   2)                  1.3841         0.638457   
      4. B(C   4,C   3)                  1.3862         0.633659   
      5. B(C   5,C   4)                  1.3845         0.637561   
      6. B(C   5,C   0)                  1.3874         0.630834   
      7. B(C   6,C   4)                  1.5007         0.416052   
      8. B(C   7,C   6)                  1.5447         0.353993   
      9. B(C   8,C   7)                  1.5462         0.352022   
     10. B(C   9,C   8)                  1.5394         0.360832   
     11. B(C  10,C   9)                  1.5044         0.410394   
     12. B(C  11,C  10)                  1.3937         0.616283   
     13. B(C  12,C  11)                  1.3821         0.643240   
     14. B(C  13,C  12)                  1.4068         0.587456   
     15. B(C  14,C  13)                  1.3846         0.637216   
     16. B(C  15,C  14)                  1.3858         0.634493   
     17. B(C  15,C  10)                  1.3839         0.638907   
     18. B(C  16,C   7)                  1.5389         0.361498   
     19. B(C  17,C   8)                  1.5402         0.359802   
     20. B(O  18,C   2)                  1.3720         0.597788   
     21. B(O  19,C   0)                  1.3636         0.616627   
     22. B(O  20,C   1)                  1.3738         0.593861   
     23. B(O  21,C  13)                  1.3550         0.636279   
     24. B(O  22,C  12)                  1.3763         0.588544   
     25. B(C  23,O  20)                  1.4221         0.497362   
     26. B(C  24,C  23)                  1.5513         0.345470   
     27. B(C  25,C  24)                  1.5169         0.391931   
     28. B(C  26,C  23)                  1.5329         0.369621   
     29. B(O  27,C  26)                  1.4026         0.534211   
     30. B(C  28,C  25)                  1.3930         0.618012   
     31. B(C  29,C  28)                  1.3807         0.646461   
     32. B(C  30,C  29)                  1.4048         0.591665   
     33. B(C  31,C  30)                  1.3825         0.642318   
     34. B(C  32,C  31)                  1.3842         0.638326   
     35. B(C  32,C  25)                  1.3836         0.639687   
     36. B(C  33,O  19)                  1.4072         0.525239   
     37. B(C  34,O  18)                  1.4081         0.523656   
     38. B(C  35,O  22)                  1.4086         0.522676   
     39. B(O  36,C  24)                  1.4000         0.539444   
     40. B(O  37,C  16)                  1.4139         0.512589   
     41. B(O  38,C  17)                  1.4029         0.533687   
     42. B(O  39,C  29)                  1.3807         0.578997   
     43. B(O  40,C  30)                  1.3611         0.622335   
     44. B(C  41,O  39)                  1.4064         0.526789   
     45. B(H  42,C   3)                  1.0780         0.376323   
     46. B(H  43,C   5)                  1.0772         0.377437   
     47. B(H  44,C   6)                  1.0938         0.355109   
     48. B(H  44,O  40)                  4.1767         0.010000   
     49. B(H  45,C   6)                  1.0905         0.359413   
     50. B(H  46,C   7)                  1.0948         0.353773   
     51. B(H  47,C   8)                  1.0934         0.355667   
     52. B(H  48,C   9)                  1.0916         0.357926   
     53. B(H  49,C   9)                  1.0926         0.356695   
     54. B(H  50,C  11)                  1.0786         0.375465   
     55. B(H  51,C  14)                  1.0790         0.374882   
     56. B(H  52,C  15)                  1.0806         0.372792   
     57. B(H  53,C  16)                  1.0984         0.349106   
     58. B(H  54,C  16)                  1.0920         0.357466   
     59. B(H  55,C  17)                  1.0977         0.350033   
     60. B(H  56,C  17)                  1.0948         0.353867   
     61. B(H  57,O  21)                  0.9679         0.505139   
     62. B(H  57,O  22)                  2.2063         0.010000   
     63. B(H  58,C  23)                  1.0930         0.356121   
     64. B(H  59,C  24)                  1.0966         0.351514   
     65. B(H  60,C  26)                  1.0916         0.358046   
     66. B(H  61,C  26)                  1.0988         0.348628   
     67. B(H  62,O  22)                  2.0503         0.010000   
     68. B(H  62,O  20)                  2.2323         0.010000   
     69. B(H  62,O  27)                  0.9705         0.500281   
     70. B(H  63,C  28)                  1.0787         0.375379   
     71. B(H  64,C  31)                  1.0777         0.376701   
     72. B(H  65,C  32)                  1.0783         0.375902   
     73. B(H  66,H  51)                  2.5203         0.010000   
     74. B(H  66,C  33)                  1.0931         0.356020   
     75. B(H  67,C  33)                  1.0947         0.353970   
     76. B(H  68,C  33)                  1.0890         0.361447   
     77. B(H  69,C  34)                  1.0889         0.361542   
     78. B(H  70,C  34)                  1.0940         0.354842   
     79. B(H  71,C  34)                  1.0943         0.354509   
     80. B(H  72,C  35)                  1.0891         0.361244   
     81. B(H  73,C  35)                  1.0925         0.356744   
     82. B(H  74,C  35)                  1.0939         0.354918   
     83. B(H  75,O  20)                  2.2035         0.010000   
     84. B(H  75,O  18)                  2.2098         0.010000   
     85. B(H  75,O  36)                  0.9726         0.496492   
     86. B(H  76,O  37)                  0.9639         0.512471   
     87. B(H  77,O  37)                  1.8814         0.017614   
     88. B(H  77,O  38)                  0.9716         0.498235   
     89. B(H  78,O  39)                  2.1182         0.010000   
     90. B(H  78,O  40)                  0.9670         0.506706   
     91. B(H  79,H  67)                  2.6841         0.010000   
     92. B(H  79,C  41)                  1.0941         0.354663   
     93. B(H  80,C  41)                  1.0891         0.361258   
     94. B(H  81,C  41)                  1.0940         0.354791   
     95. A(C   1,C   0,O  19)          117.1524         0.428726   
     96. A(C   5,C   0,O  19)          123.9011         0.432147   
     97. A(C   1,C   0,C   5)          118.9454         0.433315   
     98. A(C   0,C   1,O  20)          124.7808         0.425846   
     99. A(C   0,C   1,C   2)          119.6236         0.429387   
    100. A(C   2,C   1,O  20)          115.4255         0.425356   
    101. A(C   3,C   2,O  18)          124.9069         0.430673   
    102. A(C   1,C   2,C   3)          120.4582         0.433750   
    103. A(C   1,C   2,O  18)          114.6335         0.425858   
    104. A(C   4,C   3,H  42)          119.3400         0.356872   
    105. A(C   2,C   3,H  42)          120.9020         0.357330   
    106. A(C   2,C   3,C   4)          119.7575         0.438082   
    107. A(C   5,C   4,C   6)          119.5192         0.406275   
    108. A(C   3,C   4,C   6)          120.3764         0.405835   
    109. A(C   3,C   4,C   5)          119.9067         0.437971   
    110. A(C   4,C   5,H  43)          118.7427         0.357424   
    111. A(C   0,C   5,H  43)          120.0257         0.356781   
    112. A(C   0,C   5,C   4)          121.2082         0.437619   
    113. A(C   4,C   6,H  44)          109.5388         0.329365   
    114. A(C   7,C   6,H  45)          110.0315         0.321368   
    115. A(C   4,C   6,C   7)          109.1150         0.366716   
    116. A(H  44,C   6,H  45)          109.3096         0.290116   
    117. A(C   4,C   6,H  45)          109.6705         0.330021   
    118. A(C   7,C   6,H  44)          109.1604         0.320735   
    119. A(C   6,C   7,C  16)          110.7821         0.358020   
    120. A(C   8,C   7,C  16)          115.2735         0.357680   
    121. A(C  16,C   7,H  46)          105.9312         0.321640   
    122. A(C   8,C   7,H  46)          106.1772         0.320245   
    123. A(C   6,C   7,H  46)          106.7719         0.320538   
    124. A(C   6,C   7,C   8)          111.2966         0.356408   
    125. A(C   7,C   8,C  17)          115.3261         0.357395   
    126. A(C  17,C   8,H  47)          106.9129         0.321673   
    127. A(C   7,C   8,C   9)          110.5161         0.357568   
    128. A(C   9,C   8,H  47)          107.3301         0.321824   
    129. A(C   7,C   8,H  47)          106.8142         0.320525   
    130. A(C   9,C   8,C  17)          109.5526         0.358900   
    131. A(H  48,C   9,H  49)          107.8030         0.290130   
    132. A(C  10,C   9,H  48)          109.9198         0.329050   
    133. A(C  10,C   9,H  49)          109.0611         0.328863   
    134. A(C   8,C   9,C  10)          111.8565         0.367058   
    135. A(C   8,C   9,H  48)          109.5845         0.322158   
    136. A(C   8,C   9,H  49)          108.5166         0.321976   
    137. A(C   9,C  10,C  11)          119.6870         0.402873   
    138. A(C  11,C  10,C  15)          118.6904         0.435948   
    139. A(C   9,C  10,C  15)          121.6226         0.405444   
    140. A(C  10,C  11,C  12)          121.1772         0.436479   
    141. A(C  10,C  11,H  50)          118.6244         0.355054   
    142. A(C  12,C  11,H  50)          120.1942         0.357645   
    143. A(C  11,C  12,C  13)          119.7136         0.432731   
    144. A(C  13,C  12,O  22)          114.9324         0.423115   
    145. A(C  11,C  12,O  22)          125.3387         0.430046   
    146. A(C  12,C  13,O  21)          121.7480         0.429065   
    147. A(C  12,C  13,C  14)          118.9067         0.432000   
    148. A(C  14,C  13,O  21)          119.3405         0.435381   
    149. A(C  13,C  14,H  51)          118.2137         0.356979   
    150. A(C  13,C  14,C  15)          120.7598         0.438032   
    151. A(C  15,C  14,H  51)          121.0172         0.356719   
    152. A(C  14,C  15,H  52)          119.2690         0.356381   
    153. A(C  10,C  15,H  52)          119.9943         0.356801   
    154. A(C  10,C  15,C  14)          120.7315         0.438242   
    155. A(O  37,C  16,H  54)          105.6623         0.339290   
    156. A(C   7,C  16,H  54)          110.2765         0.322187   
    157. A(O  37,C  16,H  53)          109.1958         0.337953   
    158. A(C   7,C  16,H  53)          108.6641         0.320942   
    159. A(C   7,C  16,O  37)          114.9267         0.379125   
    160. A(H  53,C  16,H  54)          107.8859         0.289095   
    161. A(O  38,C  17,H  56)          106.0226         0.341008   
    162. A(C   8,C  17,O  38)          113.6383         0.381475   
    163. A(H  55,C  17,H  56)          107.7499         0.288757   
    164. A(C   8,C  17,H  56)          108.2880         0.321406   
    165. A(O  38,C  17,H  55)          110.6435         0.340387   
    166. A(C   8,C  17,H  55)          110.2230         0.320834   
    167. A(C   2,O  18,C  34)          118.0856         0.412995   
    168. A(C   0,O  19,C  33)          118.5246         0.415501   
    169. A(C   1,O  20,C  23)          120.0737         0.408762   
    170. A(C  13,O  21,H  57)          109.7434         0.369926   
    171. A(C  12,O  22,C  35)          118.4276         0.411717   
    172. A(C  26,C  23,H  58)          109.5670         0.323163   
    173. A(C  24,C  23,H  58)          110.7073         0.319609   
    174. A(O  20,C  23,H  58)          110.5977         0.337376   
    175. A(C  24,C  23,C  26)          112.6461         0.357889   
    176. A(O  20,C  23,C  26)          104.1891         0.378605   
    177. A(O  20,C  23,C  24)          108.9543         0.374209   
    178. A(C  23,C  24,O  36)          109.6837         0.379501   
    179. A(O  36,C  24,H  59)          106.4811         0.341239   
    180. A(C  25,C  24,H  59)          109.8635         0.325592   
    181. A(C  23,C  24,H  59)          108.8480         0.318931   
    182. A(C  25,C  24,O  36)          113.6155         0.387917   
    183. A(C  23,C  24,C  25)          108.2623         0.361480   
    184. A(C  28,C  25,C  32)          119.4269         0.436264   
    185. A(C  24,C  25,C  32)          121.7199         0.402251   
    186. A(C  24,C  25,C  28)          118.7550         0.399817   
    187. A(O  27,C  26,H  61)          110.8991         0.340214   
    188. A(H  60,C  26,H  61)          109.1200         0.289107   
    189. A(C  23,C  26,H  61)          108.7709         0.322039   
    190. A(O  27,C  26,H  60)          107.0982         0.341734   
    191. A(C  23,C  26,H  60)          110.2003         0.323449   
    192. A(C  23,C  26,O  27)          110.7339         0.383328   
    193. A(C  26,O  27,H  62)          106.6528         0.358436   
    194. A(C  29,C  28,H  63)          120.5963         0.357935   
    195. A(C  25,C  28,H  63)          119.0793         0.355209   
    196. A(C  25,C  28,C  29)          120.3212         0.437093   
    197. A(C  30,C  29,O  39)          114.6802         0.422419   
    198. A(C  28,C  29,O  39)          125.4289         0.429170   
    199. A(C  28,C  29,C  30)          119.8871         0.433677   
    200. A(C  31,C  30,O  40)          120.3036         0.434270   
    201. A(C  29,C  30,O  40)          120.2513         0.427910   
    202. A(C  29,C  30,C  31)          119.4424         0.433176   
    203. A(C  32,C  31,H  64)          121.2227         0.357379   
    204. A(C  30,C  31,H  64)          118.5403         0.357757   
    205. A(C  30,C  31,C  32)          120.2354         0.439140   
    206. A(C  31,C  32,H  65)          119.8064         0.357250   
    207. A(C  25,C  32,H  65)          119.6235         0.357379   
    208. A(C  25,C  32,C  31)          120.5699         0.438815   
    209. A(H  67,C  33,H  68)          109.9488         0.290227   
    210. A(H  66,C  33,H  68)          109.0006         0.290490   
    211. A(O  19,C  33,H  68)          105.3657         0.341307   
    212. A(H  66,C  33,H  67)          109.7990         0.289539   
    213. A(O  19,C  33,H  67)          111.3393         0.340116   
    214. A(O  19,C  33,H  66)          111.2787         0.340444   
    215. A(H  69,C  34,H  71)          109.3119         0.290308   
    216. A(O  18,C  34,H  71)          111.6492         0.340031   
    217. A(H  69,C  34,H  70)          109.4253         0.290351   
    218. A(O  18,C  34,H  70)          111.4264         0.340084   
    219. A(O  18,C  34,H  69)          105.5908         0.341149   
    220. A(H  70,C  34,H  71)          109.3467         0.289457   
    221. A(H  73,C  35,H  74)          110.0486         0.289752   
    222. A(H  72,C  35,H  74)          109.1911         0.290323   
    223. A(O  22,C  35,H  74)          111.2232         0.339990   
    224. A(H  72,C  35,H  73)          109.2772         0.290557   
    225. A(O  22,C  35,H  73)          111.2436         0.340281   
    226. A(O  22,C  35,H  72)          105.7388         0.340995   
    227. A(C  24,O  36,H  75)          107.0965         0.358566   
    228. A(C  16,O  37,H  76)          108.4050         0.357386   
    229. A(C  17,O  38,H  77)          106.2963         0.358126   
    230. A(C  29,O  39,C  41)          117.9593         0.411096   
    231. A(C  30,O  40,H  78)          107.6241         0.368716   
    232. A(H  80,C  41,H  81)          109.4705         0.290308   
    233. A(H  79,C  41,H  81)          109.4377         0.289471   
    234. A(O  39,C  41,H  81)          111.2603         0.340415   
    235. A(H  79,C  41,H  80)          109.3131         0.290292   
    236. A(O  39,C  41,H  80)          105.6864         0.341445   
    237. A(O  39,C  41,H  79)          111.5853         0.340395   
    238. D(O  20,C   1,C   0,O  19)     -6.3245         0.025125   
    239. D(C   2,C   1,C   0,O  19)    178.6402         0.025125   
    240. D(C   2,C   1,C   0,C   5)     -1.7186         0.025125   
    241. D(O  20,C   1,C   0,C   5)    173.3167         0.025125   
    242. D(O  18,C   2,C   1,C   0)   -177.5849         0.024787   
    243. D(C   3,C   2,C   1,C   0)      2.8204         0.024787   
    244. D(C   3,C   2,C   1,O  20)   -172.6656         0.024787   
    245. D(O  18,C   2,C   1,O  20)      6.9291         0.024787   
    246. D(C   4,C   3,C   2,C   1)     -0.9706         0.028312   
    247. D(H  42,C   3,C   2,O  18)     -0.7657         0.028312   
    248. D(C   4,C   3,C   2,O  18)    179.4787         0.028312   
    249. D(H  42,C   3,C   2,C   1)    178.7851         0.028312   
    250. D(C   6,C   4,C   3,H  42)     -6.8564         0.027861   
    251. D(C   5,C   4,C   3,H  42)    178.2772         0.027861   
    252. D(C   5,C   4,C   3,C   2)     -1.9633         0.027861   
    253. D(C   6,C   4,C   3,C   2)    172.9031         0.027861   
    254. D(H  43,C   5,C   4,C   6)      6.4147         0.028228   
    255. D(H  43,C   5,C   4,C   3)   -178.6747         0.028228   
    256. D(C   0,C   5,C   4,C   3)      3.0861         0.028228   
    257. D(C   4,C   5,C   0,O  19)    178.3994         0.027597   
    258. D(H  43,C   5,C   0,C   1)   -179.4329         0.027597   
    259. D(H  43,C   5,C   0,O  19)      0.1825         0.027597   
    260. D(C   0,C   5,C   4,C   6)   -171.8245         0.028228   
    261. D(C   4,C   5,C   0,C   1)     -1.2160         0.027597   
    262. D(H  45,C   6,C   4,C   3)     17.6842         0.012807   
    263. D(H  44,C   6,C   4,C   5)    -47.4638         0.012807   
    264. D(H  44,C   6,C   4,C   3)    137.6500         0.012807   
    265. D(C   7,C   6,C   4,C   5)     71.9810         0.012807   
    266. D(C   7,C   6,C   4,C   3)   -102.9052         0.012807   
    267. D(C   8,C   7,C   6,H  44)   -175.9694         0.010078   
    268. D(C   8,C   7,C   6,C   4)     64.3515         0.010078   
    269. D(C  16,C   7,C   6,H  45)     73.6307         0.010078   
    270. D(C  16,C   7,C   6,H  44)    -46.3223         0.010078   
    271. D(C   8,C   7,C   6,H  45)    -56.0164         0.010078   
    272. D(C  16,C   7,C   6,C   4)   -166.0014         0.010078   
    273. D(C  17,C   8,C   7,H  46)   -151.2691         0.010000   
    274. D(C  17,C   8,C   7,C  16)    -34.3317         0.010000   
    275. D(C  17,C   8,C   7,C   6)     92.9097         0.010000   
    276. D(C   9,C   8,C   7,C  16)     90.5880         0.010000   
    277. D(C   9,C   8,C   7,H  46)    -26.3494         0.010000   
    278. D(C   9,C   8,C   7,C   6)   -142.1706         0.010000   
    279. D(H  48,C   9,C   8,C  17)     74.8515         0.010442   
    280. D(H  48,C   9,C   8,C   7)    -53.2888         0.010442   
    281. D(C  10,C   9,C   8,H  47)    -47.2489         0.010442   
    282. D(C  10,C   9,C   8,C  17)   -162.9847         0.010442   
    283. D(H  48,C   9,C   8,H  47)   -169.4127         0.010442   
    284. D(C  10,C   9,C   8,C   7)     68.8750         0.010442   
    285. D(C  15,C  10,C   9,H  48)     15.2251         0.012473   
    286. D(C  15,C  10,C   9,C   8)   -106.7464         0.012473   
    287. D(C  11,C  10,C   9,H  49)    -46.7378         0.012473   
    288. D(C  11,C  10,C   9,H  48)   -164.7253         0.012473   
    289. D(C  11,C  10,C   9,C   8)     73.3032         0.012473   
    290. D(H  50,C  11,C  10,C  15)   -179.3980         0.026262   
    291. D(H  50,C  11,C  10,C   9)      0.5539         0.026262   
    292. D(C  12,C  11,C  10,C  15)     -0.1401         0.026262   
    293. D(C  12,C  11,C  10,C   9)    179.8118         0.026262   
    294. D(O  22,C  12,C  11,H  50)      2.0634         0.028767   
    295. D(C  13,C  12,C  11,H  50)   -179.4381         0.028767   
    296. D(O  22,C  12,C  11,C  10)   -177.1830         0.028767   
    297. D(C  13,C  12,C  11,C  10)      1.3156         0.028767   
    298. D(O  21,C  13,C  12,C  11)    179.0841         0.023739   
    299. D(C  14,C  13,C  12,O  22)    176.9374         0.023739   
    300. D(C  14,C  13,C  12,C  11)     -1.7120         0.023739   
    301. D(O  21,C  13,C  12,O  22)     -2.2666         0.023739   
    302. D(H  51,C  14,C  13,O  21)      1.2855         0.028195   
    303. D(H  51,C  14,C  13,C  12)   -177.9379         0.028195   
    304. D(C  15,C  14,C  13,O  21)   -179.8112         0.028195   
    305. D(C  15,C  14,C  13,C  12)      0.9654         0.028195   
    306. D(H  52,C  15,C  14,H  51)     -0.0918         0.027939   
    307. D(H  52,C  15,C  14,C  13)   -178.9642         0.027939   
    308. D(C  10,C  15,C  14,H  51)    179.0804         0.027939   
    309. D(C  10,C  15,C  14,C  13)      0.2080         0.027939   
    310. D(H  52,C  15,C  10,C  11)    178.5362         0.028355   
    311. D(H  52,C  15,C  10,C   9)     -1.4147         0.028355   
    312. D(C  14,C  15,C  10,C  11)     -0.6300         0.028355   
    313. D(C  14,C  15,C  10,C   9)    179.4192         0.028355   
    314. D(H  53,C  16,C   7,H  46)    -40.1419         0.010478   
    315. D(H  53,C  16,C   7,C   8)   -157.2182         0.010478   
    316. D(H  53,C  16,C   7,C   6)     75.2813         0.010478   
    317. D(O  37,C  16,C   7,H  46)   -162.8040         0.010478   
    318. D(O  37,C  16,C   7,C   8)     80.1197         0.010478   
    319. D(O  37,C  16,C   7,C   6)    -47.3808         0.010478   
    320. D(H  55,C  17,C   8,H  47)   -172.6241         0.010387   
    321. D(H  55,C  17,C   8,C   9)    -56.6232         0.010387   
    322. D(H  55,C  17,C   8,C   7)     68.7952         0.010387   
    323. D(O  38,C  17,C   8,H  47)     62.5308         0.010387   
    324. D(O  38,C  17,C   8,C   9)    178.5316         0.010387   
    325. D(O  38,C  17,C   8,C   7)    -56.0500         0.010387   
    326. D(C  34,O  18,C   2,C   3)     -4.5495         0.028779   
    327. D(C  34,O  18,C   2,C   1)    175.8766         0.028779   
    328. D(C  33,O  19,C   0,C   5)      0.9194         0.027875   
    329. D(C  33,O  19,C   0,C   1)   -179.4589         0.027875   
    330. D(C  23,O  20,C   1,C   2)   -131.8561         0.030845   
    331. D(C  23,O  20,C   1,C   0)     52.9220         0.030845   
    332. D(H  57,O  21,C  13,C  14)    175.3797         0.029819   
    333. D(H  57,O  21,C  13,C  12)     -5.4198         0.029819   
    334. D(C  35,O  22,C  12,C  13)   -177.3109         0.030255   
    335. D(C  35,O  22,C  12,C  11)      1.2511         0.030255   
    336. D(H  58,C  23,O  20,C   1)    -50.6548         0.022766   
    337. D(C  26,C  23,O  20,C   1)   -168.3044         0.022766   
    338. D(C  24,C  23,O  20,C   1)     71.2475         0.022766   
    339. D(O  36,C  24,C  23,H  58)    171.5545         0.010000   
    340. D(O  36,C  24,C  23,C  26)    -65.3758         0.010000   
    341. D(O  36,C  24,C  23,O  20)     49.7187         0.010000   
    342. D(C  25,C  24,C  23,H  58)     47.0778         0.010000   
    343. D(C  25,C  24,C  23,C  26)    170.1475         0.010000   
    344. D(C  25,C  24,C  23,O  20)    -74.7581         0.010000   
    345. D(C  32,C  25,C  24,O  36)    -10.9824         0.011422   
    346. D(C  32,C  25,C  24,C  23)    111.1168         0.011422   
    347. D(C  28,C  25,C  24,H  59)     53.4874         0.011422   
    348. D(C  28,C  25,C  24,O  36)    172.6421         0.011422   
    349. D(C  28,C  25,C  24,C  23)    -65.2588         0.011422   
    350. D(H  60,C  26,C  23,H  58)     57.8717         0.010923   
    351. D(H  60,C  26,C  23,C  24)    -65.8325         0.010923   
    352. D(H  60,C  26,C  23,O  20)    176.2300         0.010923   
    353. D(O  27,C  26,C  23,H  58)    -60.4390         0.010923   
    354. D(O  27,C  26,C  23,C  24)    175.8568         0.010923   
    355. D(O  27,C  26,C  23,O  20)     57.9192         0.010923   
    356. D(H  62,O  27,C  26,H  61)     71.1247         0.022679   
    357. D(H  62,O  27,C  26,H  60)   -169.9096         0.022679   
    358. D(H  62,O  27,C  26,C  23)    -49.7288         0.022679   
    359. D(H  63,C  28,C  25,C  32)    177.6100         0.026419   
    360. D(H  63,C  28,C  25,C  24)     -5.9297         0.026419   
    361. D(C  29,C  28,C  25,C  32)     -3.0463         0.026419   
    362. D(C  29,C  28,C  25,C  24)    173.4140         0.026419   
    363. D(C  30,C  29,C  28,H  63)    179.5555         0.029076   
    364. D(C  30,C  29,C  28,C  25)      0.2219         0.029076   
    365. D(O  39,C  29,C  28,H  63)      0.2972         0.029076   
    366. D(O  39,C  29,C  28,C  25)   -179.0364         0.029076   
    367. D(O  40,C  30,C  29,O  39)      1.1685         0.024097   
    368. D(O  40,C  30,C  29,C  28)   -178.1664         0.024097   
    369. D(C  31,C  30,C  29,O  39)   -178.2344         0.024097   
    370. D(C  31,C  30,C  29,C  28)      2.4307         0.024097   
    371. D(H  64,C  31,C  30,O  40)     -1.2014         0.028679   
    372. D(H  64,C  31,C  30,C  29)    178.2012         0.028679   
    373. D(C  32,C  31,C  30,O  40)    178.3451         0.028679   
    374. D(C  32,C  31,C  30,C  29)     -2.2523         0.028679   
    375. D(H  65,C  32,C  31,H  64)     -1.2299         0.028300   
    376. D(H  65,C  32,C  31,C  30)    179.2360         0.028300   
    377. D(C  25,C  32,C  31,H  64)    178.9455         0.028300   
    378. D(C  25,C  32,C  31,C  30)     -0.5887         0.028300   
    379. D(H  65,C  32,C  25,C  28)   -176.5824         0.028429   
    380. D(H  65,C  32,C  25,C  24)      7.0658         0.028429   
    381. D(C  31,C  32,C  25,C  28)      3.2425         0.028429   
    382. D(C  31,C  32,C  25,C  24)   -173.1092         0.028429   
    383. D(H  68,C  33,O  19,C   0)   -178.0386         0.021891   
    384. D(H  67,C  33,O  19,C   0)     62.8028         0.021891   
    385. D(H  66,C  33,O  19,C   0)    -60.0450         0.021891   
    386. D(H  71,C  34,O  18,C   2)     64.5192         0.023613   
    387. D(H  70,C  34,O  18,C   2)    -58.0727         0.023613   
    388. D(H  69,C  34,O  18,C   2)   -176.7853         0.023613   
    389. D(H  74,C  35,O  22,C  12)     56.0131         0.025262   
    390. D(H  73,C  35,O  22,C  12)    -67.0483         0.025262   
    391. D(H  72,C  35,O  22,C  12)    174.4255         0.025262   
    392. D(H  75,O  36,C  24,H  59)   -162.1400         0.023148   
    393. D(H  75,O  36,C  24,C  25)     76.7906         0.023148   
    394. D(H  75,O  36,C  24,C  23)    -44.5174         0.023148   
    395. D(H  76,O  37,C  16,H  54)   -171.3447         0.022581   
    396. D(H  76,O  37,C  16,H  53)    -55.5366         0.022581   
    397. D(H  76,O  37,C  16,C   7)     66.8395         0.022581   
    398. D(H  77,O  38,C  17,H  56)   -163.6428         0.022633   
    399. D(H  77,O  38,C  17,H  55)    -47.0826         0.022633   
    400. D(H  77,O  38,C  17,C   8)     77.5366         0.022633   
    401. D(C  41,O  39,C  29,C  30)    172.1931         0.026882   
    402. D(C  41,O  39,C  29,C  28)     -8.5147         0.026882   
    403. D(H  78,O  40,C  30,C  31)    176.1419         0.031380   
    404. D(H  78,O  40,C  30,C  29)     -3.2558         0.031380   
    405. D(H  81,C  41,O  39,C  29)    -57.3540         0.023911   
    406. D(H  80,C  41,O  39,C  29)   -176.0894         0.023911   
    407. D(H  79,C  41,O  39,C  29)     65.1901         0.023911   
    -----------------------------------------------------------------

Number of atoms                         .... 82
Number of degrees of freedom            .... 407


         *************************************************************
         *                GEOMETRY OPTIMIZATION CYCLE   1            *
         *************************************************************
---------------------------------
CARTESIAN COORDINATES (ANGSTROEM)
---------------------------------
  C     21.257531  -32.012924    0.935627
  C     21.804094  -31.086593    0.040310
  C     21.728840  -31.327905   -1.337885
  C     21.067959  -32.444575   -1.819602
  C     20.493927  -33.340752   -0.931452
  C     20.618921  -33.137034    0.432257
  C     19.640526  -34.467520   -1.435591
  C     18.153625  -34.117888   -1.205710
  C     17.731252  -32.885571   -2.038570
  C     16.756865  -32.002008   -1.238706
  C     17.435771  -31.329205   -0.076949
  C     18.310957  -30.269468   -0.308255
  C     18.948221  -29.626787    0.736256
  C     18.735390  -30.062474    2.056823
  C     17.858334  -31.109792    2.282946
  C     17.213829  -31.735001    1.227393
  C     17.266662  -35.363505   -1.379174
  C     17.126826  -33.199692   -3.419979
  O     22.342039  -30.380845   -2.118609
  O     21.384026  -31.741838    2.265991
  O     22.343760  -29.875007    0.398373
  O     19.352886  -29.474392    3.109913
  O     19.783387  -28.540039    0.611363
  C     23.354009  -29.812146    1.397270
  C     24.667887  -30.404198    0.823077
  C     24.526291  -31.913626    0.771170
  C     23.471240  -28.318119    1.719625
  O     22.237959  -27.803899    2.146226
  C     24.407062  -32.617030    1.967572
  C     24.140991  -33.971824    1.956106
  C     23.994224  -34.646058    0.732415
  C     24.168455  -33.952526   -0.450752
  C     24.438907  -32.595200   -0.429721
  C     20.855003  -32.659838    3.192143
  C     22.387525  -30.596398   -3.509339
  C     20.001973  -28.006527   -0.673815
  O     24.942665  -29.823577   -0.420841
  O     17.531400  -36.126634   -2.539612
  O     17.962383  -33.976907   -4.236020
  O     23.983426  -34.766057    3.074482
  O     23.695045  -35.973696    0.712602
  C     24.279474  -34.204125    4.329344
  H     20.988966  -32.626990   -2.879120
  H     20.183995  -33.856695    1.105523
  H     19.882794  -35.383069   -0.888350
  H     19.827761  -34.622583   -2.498668
  H     18.056901  -33.823985   -0.155516
  H     18.635891  -32.296961   -2.213584
  H     15.922240  -32.608236   -0.881516
  H     16.352797  -31.237985   -1.907094
  H     18.475592  -29.947655   -1.324506
  H     17.677568  -31.412676    3.302716
  H     16.521411  -32.538777    1.432659
  H     17.380679  -36.002408   -0.492961
  H     16.216365  -35.073242   -1.450477
  H     16.145162  -33.677277   -3.304938
  H     16.977980  -32.254950   -3.952700
  H     19.984527  -28.813839    2.791367
  H     23.043710  -30.356608    2.292802
  H     25.498575  -30.130421    1.484490
  H     24.182400  -28.162696    2.533009
  H     23.827482  -27.790104    0.824258
  H     21.577852  -28.086979    1.493544
  H     24.514844  -32.086550    2.900601
  H     24.081439  -34.490488   -1.380553
  H     24.585795  -32.063516   -1.356266
  H     19.777565  -32.784297    3.056096
  H     21.352815  -33.631962    3.118190
  H     21.040366  -32.221035    4.171416
  H     22.960675  -29.764539   -3.915836
  H     22.890148  -31.537400   -3.751680
  H     21.386301  -30.596025   -3.950874
  H     20.600676  -27.109243   -0.523297
  H     20.554298  -28.707066   -1.304564
  H     19.058307  -27.732702   -1.154679
  H     24.108095  -29.808615   -0.920002
  H     18.407922  -36.518279   -2.452912
  H     17.887466  -34.889821   -3.911961
  H     23.675073  -36.283028    1.628602
  H     23.592087  -33.390021    4.578096
  H     24.157171  -35.011655    5.049852
  H     25.308881  -33.835471    4.366026

----------------------------
CARTESIAN COORDINATES (A.U.)
----------------------------
  NO LB      ZA    FRAG     MASS         X           Y           Z
   0 C     6.0000    0    12.011   40.170912  -60.495659    1.768078
   1 C     6.0000    0    12.011   41.203767  -58.745147    0.076175
   2 C     6.0000    0    12.011   41.061557  -59.201160   -2.528237
   3 C     6.0000    0    12.011   39.812673  -61.311361   -3.438549
   4 C     6.0000    0    12.011   38.727910  -63.004890   -1.760189
   5 C     6.0000    0    12.011   38.964113  -62.619920    0.816847
   6 C     6.0000    0    12.011   37.115216  -65.134172   -2.712874
   7 C     6.0000    0    12.011   34.305380  -64.473465   -2.278462
   8 C     6.0000    0    12.011   33.507211  -62.144724   -3.852339
   9 C     6.0000    0    12.011   31.665886  -60.475030   -2.340815
  10 C     6.0000    0    12.011   32.948832  -59.203618   -0.145412
  11 C     6.0000    0    12.011   34.602695  -57.201005   -0.582517
  12 C     6.0000    0    12.011   35.806949  -55.986514    1.391323
  13 C     6.0000    0    12.011   35.404757  -56.809842    3.886832
  14 C     6.0000    0    12.011   33.747360  -58.788986    4.314142
  15 C     6.0000    0    12.011   32.529423  -59.970461    2.319437
  16 C     6.0000    0    12.011   32.629263  -66.827339   -2.606260
  17 C     6.0000    0    12.011   32.365010  -62.738326   -6.462824
  18 O     8.0000    0    15.999   42.220334  -57.411477   -4.003590
  19 O     8.0000    0    15.999   40.409953  -59.983381    4.282102
  20 O     8.0000    0    15.999   42.223588  -56.455581    0.752817
  21 O     8.0000    0    15.999   36.571655  -55.698528    5.876884
  22 O     8.0000    0    15.999   37.385183  -53.932857    1.155309
  23 C     6.0000    0    12.011   44.132682  -56.336791    2.640458
  24 C     6.0000    0    12.011   46.615551  -57.455608    1.555389
  25 C     6.0000    0    12.011   46.347972  -60.308013    1.457300
  26 C     6.0000    0    12.011   44.354216  -53.513490    3.249621
  27 O     8.0000    0    15.999   42.023653  -52.541755    4.055780
  28 C     6.0000    0    12.011   46.122662  -61.637255    3.718172
  29 C     6.0000    0    12.011   45.619862  -64.197444    3.696505
  30 C     6.0000    0    12.011   45.342512  -65.471562    1.384064
  31 C     6.0000    0    12.011   45.671761  -64.160976   -0.851797
  32 C     6.0000    0    12.011   46.182840  -61.596001   -0.812054
  33 C     6.0000    0    12.011   39.410244  -61.718150    6.032275
  34 C     6.0000    0    12.011   42.306290  -57.818813   -6.631689
  35 C     6.0000    0    12.011   37.798252  -52.924666   -1.273325
  36 O     8.0000    0    15.999   47.134805  -56.358393   -0.795275
  37 O     8.0000    0    15.999   33.129546  -68.269444   -4.799171
  38 O     8.0000    0    15.999   33.943985  -64.207049   -8.004918
  39 O     8.0000    0    15.999   45.322106  -65.698326    5.809928
  40 O     8.0000    0    15.999   44.777145  -67.980434    1.346623
  41 C     6.0000    0    12.011   45.881556  -64.636429    8.181274
  42 H     1.0000    0     1.008   39.663398  -61.656077   -5.440749
  43 H     1.0000    0     1.008   38.142222  -63.979882    2.089136
  44 H     1.0000    0     1.008   37.573035  -66.864310   -1.678739
  45 H     1.0000    0     1.008   37.469039  -65.427199   -4.721798
  46 H     1.0000    0     1.008   34.122598  -63.918067   -0.293883
  47 H     1.0000    0     1.008   35.216730  -61.032412   -4.183067
  48 H     1.0000    0     1.008   30.088673  -61.620636   -1.665823
  49 H     1.0000    0     1.008   30.902308  -59.031237   -3.603886
  50 H     1.0000    0     1.008   34.913810  -56.592866   -2.502953
  51 H     1.0000    0     1.008   33.405762  -59.361356    6.241229
  52 H     1.0000    0     1.008   31.220942  -61.489377    2.707334
  53 H     1.0000    0     1.008   32.844724  -68.034692   -0.931560
  54 H     1.0000    0     1.008   30.644489  -66.278822   -2.741004
  55 H     1.0000    0     1.008   30.509935  -63.640831   -6.245428
  56 H     1.0000    0     1.008   32.083733  -60.953022   -7.469520
  57 H     1.0000    0     1.008   37.765284  -54.450264    5.274919
  58 H     1.0000    0     1.008   43.546301  -57.365675    4.332768
  59 H     1.0000    0     1.008   48.185324  -56.938244    2.805279
  60 H     1.0000    0     1.008   45.698113  -53.219782    4.786694
  61 H     1.0000    0     1.008   45.027415  -52.515686    1.557622
  62 H     1.0000    0     1.008   40.776230  -53.076699    2.822389
  63 H     1.0000    0     1.008   46.326342  -60.634792    5.481341
  64 H     1.0000    0     1.008   45.507324  -65.177576   -2.608868
  65 H     1.0000    0     1.008   46.460419  -60.591264   -2.562972
  66 H     1.0000    0     1.008   37.374181  -61.953343    5.775184
  67 H     1.0000    0     1.008   40.350972  -63.555197    5.892525
  68 H     1.0000    0     1.008   39.760530  -60.888932    7.882835
  69 H     1.0000    0     1.008   43.389387  -56.246828   -7.399857
  70 H     1.0000    0     1.008   43.256111  -59.597050   -7.089648
  71 H     1.0000    0     1.008   40.414251  -57.818109   -7.466071
  72 H     1.0000    0     1.008   38.929636  -51.229045   -0.988888
  73 H     1.0000    0     1.008   38.841995  -54.248493   -2.465268
  74 H     1.0000    0     1.008   36.014981  -52.407211   -2.182027
  75 H     1.0000    0     1.008   45.557697  -56.330119   -1.738552
  76 H     1.0000    0     1.008   34.785932  -69.009546   -4.635332
  77 H     1.0000    0     1.008   33.802413  -65.932206   -7.392535
  78 H     1.0000    0     1.008   44.739404  -68.564986    3.077613
  79 H     1.0000    0     1.008   44.582583  -63.097994    8.651347
  80 H     1.0000    0     1.008   45.650437  -66.162440    9.542837
  81 H     1.0000    0     1.008   47.826854  -63.939773    8.250594

--------------------------------
INTERNAL COORDINATES (ANGSTROEM)
--------------------------------
 C      0   0   0     0.000000000000     0.00000000     0.00000000
 C      1   0   0     1.399432736007     0.00000000     0.00000000
 C      2   1   0     1.401183875530   119.62364453     0.00000000
 C      3   2   1     1.384112585065   120.45821303     2.82039511
 C      4   3   2     1.386165892696   119.75751355   359.02943813
 C      5   4   3     1.384494594494   119.90666559   358.03671442
 C      5   4   3     1.500684913885   120.37638744   172.90310393
 C      7   5   4     1.544656104580   109.11499929   257.09479179
 C      8   7   5     1.546175638727   111.29661123    64.35150080
 C      9   8   7     1.539447280969   110.51612944   217.82940296
 C     10   9   8     1.504412310827   111.85649292    68.87496914
 C     11  10   9     1.393734698272   119.68704120    73.30315733
 C     12  11  10     1.382080784239   121.17720514   179.81176259
 C     13  12  11     1.406775028143   119.71360214     1.31558727
 C     14  13  12     1.384642348475   118.90673587   358.28799149
 C     11  10   9     1.383920878670   121.62257415   253.25356777
 C      8   7   5     1.538945328005   110.78206834   193.99862875
 C      9   8   7     1.540225547774   115.32612648    92.90968320
 O      3   2   1     1.372028942690   114.63350625   182.41509523
 O      1   2   3     1.363582704067   117.15244609   178.64015606
 O      2   1   3     1.373823117207   124.78084819   175.03536761
 O     14  13  12     1.355042616589   121.74802344   179.08406740
 O     13  12  11     1.376271043221   125.33867200   182.81701724
 C     21   2   1     1.422093289711   120.07369552    52.92198014
 C     24  21   2     1.551289933795   108.95433534    71.24750984
 C     25  24  21     1.516942961181   108.26234399   285.24193024
 C     24  21   2     1.532896335311   104.18909677   191.69560354
 O     27  24  21     1.402637477035   110.73392039    57.91916879
 C     26  25  24     1.392971852850   118.75500613   294.74124762
 C     29  26  25     1.380721083866   120.32116425   173.41399481
 C     30  29  26     1.404831700886   119.88710558     0.22187206
 C     31  30  29     1.382471480096   119.44244047     2.43074400
 C     26  25  24     1.383588505663   121.71993307   111.11675276
 C     20   1   2     1.407248061452   118.52459527   180.54112518
 C     19   3   2     1.408070161220   118.08561200   175.87655888
 C     23  13  12     1.408579600221   118.42756075     1.25109379
 O     25  24  21     1.399984143319   109.68370057    49.71865733
 O     17   8   7     1.413884643590   114.92665691   312.61919032
 O     18   9   8     1.402904687240   113.63826715   303.94999617
 O     30  29  26     1.380722840304   125.42894732   180.96357045
 O     31  30  29     1.361074567438   120.25129578   181.83363243
 C     40  30  29     1.406446138444   117.95931504   351.48534800
 H      4   3   2     1.078004983453   120.90203980   178.78509834
 H      6   5   4     1.077200045297   118.74267373   181.32531284
 H      7   5   4     1.093799346049   109.53880817   137.64997230
 H      7   5   4     1.090519913152   109.67049332    17.68418951
 H      8   7   5     1.094825462152   106.77190601   308.89671469
 H      9   8   7     1.093372186669   106.81416698   334.27405402
 H     10   9   8     1.091648591469   109.58449929   306.71120954
 H     10   9   8     1.092585852807   108.51658171   189.23417679
 H     12  11  10     1.078626359112   118.62440346     0.55385243
 H     15  14  13     1.079049216756   118.21370752   182.06205711
 H     16  11  10     1.080570587010   119.99428073   358.58533709
 H     17   8   7     1.098440241913   108.66413438    75.28125394
 H     17   8   7     1.091998175752   110.27646975   193.34007989
 H     18   9   8     1.097717966283   110.22298276    68.79516391
 H     18   9   8     1.094752703564   108.28800600   186.43552078
 H     22  14  13     0.967870049486   109.74339766   354.58022774
 H     24  21   2     1.093024236679   110.59772310   309.34522555
 H     25  24  21     1.096568731885   108.84795997   165.85397012
 H     27  24  21     1.091557312377   110.20025112   176.22995794
 H     27  24  21     1.098812936766   108.77093378   295.81192561
 H     28  27  24     0.970500216822   106.65281786   310.27116416
 H     29  26  25     1.078688696900   119.07927201   354.07031768
 H     32  31  30     1.077731481812   118.54034501   178.20117337
 H     33  26  25     1.078309532876   119.62352184     7.06581411
 H     34  20   1     1.093101744880   111.27867487   299.95502096
 H     34  20   1     1.094673478700   111.33928429    62.80277314
 H     34  20   1     1.088983413534   105.36574433   181.96142871
 H     35  19   3     1.088912143445   105.59080160   183.21473816
 H     35  19   3     1.094004232212   111.42641417   301.92734987
 H     35  19   3     1.094259306377   111.64923907    64.51918085
 H     36  23  13     1.089136951194   105.73880636   174.42546652
 H     36  23  13     1.092548674629   111.24355707   292.95168304
 H     36  23  13     1.093945498406   111.22320271    56.01312826
 H     37  25  24     0.972569912212   107.09652306   315.48256372
 H     38  17   8     0.963946971670   108.40502290    66.83949008
 H     39  18   9     0.971615993692   106.29628393    77.53656049
 H     41  31  30     0.967026913181   107.62414342   356.74421458
 H     42  40  30     1.094141159456   111.58526547    65.19010375
 H     42  40  30     1.089126136826   105.68636312   183.91056991
 H     42  40  30     1.094043309115   111.26025822   302.64598309

---------------------------
INTERNAL COORDINATES (A.U.)
---------------------------
 C      0   0   0     0.000000000000     0.00000000     0.00000000
 C      1   0   0     2.644544613898     0.00000000     0.00000000
 C      2   1   0     2.647853788019   119.62364453     0.00000000
 C      3   2   1     2.615593724287   120.45821303     2.82039511
 C      4   3   2     2.619473913378   119.75751355   359.02943813
 C      5   4   3     2.616315617488   119.90666559   358.03671442
 C      5   4   3     2.835883500551   120.37638744   172.90310393
 C      7   5   4     2.918977008746   109.11499929   257.09479179
 C      8   7   5     2.921848512136   111.29661123    64.35150080
 C      9   8   7     2.909133758640   110.51612944   217.82940296
 C     10   9   8     2.842927259962   111.85649292    68.87496914
 C     11  10   9     2.633776883078   119.68704120    73.30315733
 C     12  11  10     2.611754177166   121.17720514   179.81176259
 C     13  12  11     2.658419535229   119.71360214     1.31558727
 C     14  13  12     2.616594832048   118.90673587   358.28799149
 C     11  10   9     2.615231451703   121.62257415   253.25356777
 C      8   7   5     2.908185205007   110.78206834   193.99862875
 C      9   8   7     2.910604469761   115.32612648    92.90968320
 O      3   2   1     2.592758949497   114.63350625   182.41509523
 O      1   2   3     2.576797871639   117.15244609   178.64015606
 O      2   1   3     2.596149447971   124.78084819   175.03536761
 O     14  13  12     2.560659445145   121.74802344   179.08406740
 O     13  12  11     2.600775357735   125.33867200   182.81701724
 C     21   2   1     2.687366854441   120.07369552    52.92198014
 C     24  21   2     2.931513129181   108.95433534    71.24750984
 C     25  24  21     2.866606757412   108.26234399   285.24193024
 C     24  21   2     2.896754265429   104.18909677   191.69560354
 O     27  24  21     2.650600696770   110.73392039    57.91916879
 C     26  25  24     2.632335314148   118.75500613   294.74124762
 C     29  26  25     2.609184715838   120.32116425   173.41399481
 C     30  29  26     2.654747178926   119.88710558     0.22187206
 C     31  30  29     2.612492485338   119.44244047     2.43074400
 C     26  25  24     2.614603357745   121.71993307   111.11675276
 C     20   1   2     2.659313438636   118.52459527   180.54112518
 C     19   3   2     2.660866982053   118.08561200   175.87655888
 C     23  13  12     2.661829682247   118.42756075     1.25109379
 O     25  24  21     2.645586622705   109.68370057    49.71865733
 O     17   8   7     2.671854761342   114.92665691   312.61919032
 O     18   9   8     2.651105650878   113.63826715   303.94999617
 O     30  29  26     2.609188035025   125.42894732   180.96357045
 O     31  30  29     2.572058180304   120.25129578   181.83363243
 C     40  30  29     2.657798023770   117.95931504   351.48534800
 H      4   3   2     2.037134189729   120.90203980   178.78509834
 H      6   5   4     2.035613077059   118.74267373   181.32531284
 H      7   5   4     2.066981209494   109.53880817   137.64997230
 H      7   5   4     2.060783979444   109.67049332    17.68418951
 H      8   7   5     2.068920287910   106.77190601   308.89671469
 H      9   8   7     2.066173995251   106.81416698   334.27405402
 H     10   9   8     2.062916872358   109.58449929   306.71120954
 H     10   9   8     2.064688039602   108.51658171   189.23417679
 H     12  11  10     2.038308419550   118.62440346     0.55385243
 H     15  14  13     2.039107504691   118.21370752   182.06205711
 H     16  11  10     2.041982477820   119.99428073   358.58533709
 H     17   8   7     2.075751231694   108.66413438    75.28125394
 H     17   8   7     2.063577490914   110.27646975   193.34007989
 H     18   9   8     2.074386328560   110.22298276    68.79516391
 H     18   9   8     2.068782794106   108.28800600   186.43552078
 H     22  14  13     1.829009326753   109.74339766   354.58022774
 H     24  21   2     2.065516465062   110.59772310   309.34522555
 H     25  24  21     2.072214590285   108.84795997   165.85397012
 H     27  24  21     2.062744379872   110.20025112   176.22995794
 H     27  24  21     2.076455522897   108.77093378   295.81192561
 H     28  27  24     1.833979622704   106.65281786   310.27116416
 H     29  26  25     2.038426220898   119.07927201   354.07031768
 H     32  31  30     2.036617346529   118.54034501   178.20117337
 H     33  26  25     2.037709704732   119.62352184     7.06581411
 H     34  20   1     2.065662934335   111.27867487   299.95502096
 H     34  20   1     2.068633080809   111.33928429    62.80277314
 H     34  20   1     2.057880415962   105.36574433   181.96142871
 H     35  19   3     2.057745735012   105.59080160   183.21473816
 H     35  19   3     2.067368388232   111.42641417   301.92734987
 H     35  19   3     2.067850408547   111.64923907    64.51918085
 H     36  23  13     2.058170560091   105.73880636   174.42546652
 H     36  23  13     2.064617783028   111.24355707   292.95168304
 H     36  23  13     2.067257397422   111.22320271    56.01312826
 H     37  25  24     1.837890780172   107.09652306   315.48256372
 H     38  17   8     1.821595784079   108.40502290    66.83949008
 H     39  18   9     1.836088135416   106.29628393    77.53656049
 H     41  31  30     1.827416030043   107.62414342   356.74421458
 H     42  40  30     2.067627143223   111.58526547    65.19010375
 H     42  40  30     2.058150123897   105.68636312   183.91056991
 H     42  40  30     2.067442232876   111.26025822   302.64598309

---------------------
BASIS SET INFORMATION
---------------------
There are 3 groups of distinct atoms

 Group   1 Type C   : 11s6p2d1f contracted to 5s3p2d1f pattern {62111/411/11/1}
 Group   2 Type O   : 11s6p2d1f contracted to 5s3p2d1f pattern {62111/411/11/1}
 Group   3 Type H   : 5s1p contracted to 3s1p pattern {311/1}

Atom   0C    basis set group =>   1
Atom   1C    basis set group =>   1
Atom   2C    basis set group =>   1
Atom   3C    basis set group =>   1
Atom   4C    basis set group =>   1
Atom   5C    basis set group =>   1
Atom   6C    basis set group =>   1
Atom   7C    basis set group =>   1
Atom   8C    basis set group =>   1
Atom   9C    basis set group =>   1
Atom  10C    basis set group =>   1
Atom  11C    basis set group =>   1
Atom  12C    basis set group =>   1
Atom  13C    basis set group =>   1
Atom  14C    basis set group =>   1
Atom  15C    basis set group =>   1
Atom  16C    basis set group =>   1
Atom  17C    basis set group =>   1
Atom  18O    basis set group =>   2
Atom  19O    basis set group =>   2
Atom  20O    basis set group =>   2
Atom  21O    basis set group =>   2
Atom  22O    basis set group =>   2
Atom  23C    basis set group =>   1
Atom  24C    basis set group =>   1
Atom  25C    basis set group =>   1
Atom  26C    basis set group =>   1
Atom  27O    basis set group =>   2
Atom  28C    basis set group =>   1
Atom  29C    basis set group =>   1
Atom  30C    basis set group =>   1
Atom  31C    basis set group =>   1
Atom  32C    basis set group =>   1
Atom  33C    basis set group =>   1
Atom  34C    basis set group =>   1
Atom  35C    basis set group =>   1
Atom  36O    basis set group =>   2
Atom  37O    basis set group =>   2
Atom  38O    basis set group =>   2
Atom  39O    basis set group =>   2
Atom  40O    basis set group =>   2
Atom  41C    basis set group =>   1
Atom  42H    basis set group =>   3
Atom  43H    basis set group =>   3
Atom  44H    basis set group =>   3
Atom  45H    basis set group =>   3
Atom  46H    basis set group =>   3
Atom  47H    basis set group =>   3
Atom  48H    basis set group =>   3
Atom  49H    basis set group =>   3
Atom  50H    basis set group =>   3
Atom  51H    basis set group =>   3
Atom  52H    basis set group =>   3
Atom  53H    basis set group =>   3
Atom  54H    basis set group =>   3
Atom  55H    basis set group =>   3
Atom  56H    basis set group =>   3
Atom  57H    basis set group =>   3
Atom  58H    basis set group =>   3
Atom  59H    basis set group =>   3
Atom  60H    basis set group =>   3
Atom  61H    basis set group =>   3
Atom  62H    basis set group =>   3
Atom  63H    basis set group =>   3
Atom  64H    basis set group =>   3
Atom  65H    basis set group =>   3
Atom  66H    basis set group =>   3
Atom  67H    basis set group =>   3
Atom  68H    basis set group =>   3
Atom  69H    basis set group =>   3
Atom  70H    basis set group =>   3
Atom  71H    basis set group =>   3
Atom  72H    basis set group =>   3
Atom  73H    basis set group =>   3
Atom  74H    basis set group =>   3
Atom  75H    basis set group =>   3
Atom  76H    basis set group =>   3
Atom  77H    basis set group =>   3
Atom  78H    basis set group =>   3
Atom  79H    basis set group =>   3
Atom  80H    basis set group =>   3
Atom  81H    basis set group =>   3
---------------------------------
AUXILIARY/J BASIS SET INFORMATION
---------------------------------
There are 3 groups of distinct atoms

 Group   1 Type C   : 12s5p4d2f1g contracted to 6s4p3d1f1g pattern {711111/2111/211/2/1}
 Group   2 Type O   : 12s5p4d2f1g contracted to 6s4p3d1f1g pattern {711111/2111/211/2/1}
 Group   3 Type H   : 5s2p1d contracted to 3s1p1d pattern {311/2/1}

Atom   0C    basis set group =>   1
Atom   1C    basis set group =>   1
Atom   2C    basis set group =>   1
Atom   3C    basis set group =>   1
Atom   4C    basis set group =>   1
Atom   5C    basis set group =>   1
Atom   6C    basis set group =>   1
Atom   7C    basis set group =>   1
Atom   8C    basis set group =>   1
Atom   9C    basis set group =>   1
Atom  10C    basis set group =>   1
Atom  11C    basis set group =>   1
Atom  12C    basis set group =>   1
Atom  13C    basis set group =>   1
Atom  14C    basis set group =>   1
Atom  15C    basis set group =>   1
Atom  16C    basis set group =>   1
Atom  17C    basis set group =>   1
Atom  18O    basis set group =>   2
Atom  19O    basis set group =>   2
Atom  20O    basis set group =>   2
Atom  21O    basis set group =>   2
Atom  22O    basis set group =>   2
Atom  23C    basis set group =>   1
Atom  24C    basis set group =>   1
Atom  25C    basis set group =>   1
Atom  26C    basis set group =>   1
Atom  27O    basis set group =>   2
Atom  28C    basis set group =>   1
Atom  29C    basis set group =>   1
Atom  30C    basis set group =>   1
Atom  31C    basis set group =>   1
Atom  32C    basis set group =>   1
Atom  33C    basis set group =>   1
Atom  34C    basis set group =>   1
Atom  35C    basis set group =>   1
Atom  36O    basis set group =>   2
Atom  37O    basis set group =>   2
Atom  38O    basis set group =>   2
Atom  39O    basis set group =>   2
Atom  40O    basis set group =>   2
Atom  41C    basis set group =>   1
Atom  42H    basis set group =>   3
Atom  43H    basis set group =>   3
Atom  44H    basis set group =>   3
Atom  45H    basis set group =>   3
Atom  46H    basis set group =>   3
Atom  47H    basis set group =>   3
Atom  48H    basis set group =>   3
Atom  49H    basis set group =>   3
Atom  50H    basis set group =>   3
Atom  51H    basis set group =>   3
Atom  52H    basis set group =>   3
Atom  53H    basis set group =>   3
Atom  54H    basis set group =>   3
Atom  55H    basis set group =>   3
Atom  56H    basis set group =>   3
Atom  57H    basis set group =>   3
Atom  58H    basis set group =>   3
Atom  59H    basis set group =>   3
Atom  60H    basis set group =>   3
Atom  61H    basis set group =>   3
Atom  62H    basis set group =>   3
Atom  63H    basis set group =>   3
Atom  64H    basis set group =>   3
Atom  65H    basis set group =>   3
Atom  66H    basis set group =>   3
Atom  67H    basis set group =>   3
Atom  68H    basis set group =>   3
Atom  69H    basis set group =>   3
Atom  70H    basis set group =>   3
Atom  71H    basis set group =>   3
Atom  72H    basis set group =>   3
Atom  73H    basis set group =>   3
Atom  74H    basis set group =>   3
Atom  75H    basis set group =>   3
Atom  76H    basis set group =>   3
Atom  77H    basis set group =>   3
Atom  78H    basis set group =>   3
Atom  79H    basis set group =>   3
Atom  80H    basis set group =>   3
Atom  81H    basis set group =>   3
--------------------------------------------------------------------------
WARNING: There was an error initializing an OpenFabrics device.

  Local host:   c08b01n08
  Local device: mlx5_0
--------------------------------------------------------------------------
--------------------------------------------------------------------------
WARNING: There is at least one non-excluded one OpenFabrics device found,
but there are no active ports detected (or Open MPI was unable to use
them).  This is most certainly not what you wanted.  Check your
cables, subnet manager configuration, etc.  The openib BTL will be
ignored for this job.

  Local host: c08b01n08
--------------------------------------------------------------------------
[c08b01n08:1549230] 60 more processes have sent help message help-mpi-btl-openib.txt / error in device init
[c08b01n08:1549230] Set MCA parameter "orte_base_help_aggregate" to 0 to see all help / error messages
[c08b01n08:1549230] 2 more processes have sent help message help-mpi-btl-openib.txt / no active ports found


           ************************************************************
           *        Program running with 64 parallel MPI-processes    *
           *              working on a common directory               *
           ************************************************************
------------------------------------------------------------------------------
                             ORCA STARTUP CALCULATIONS
                           -- RI-GTO INTEGRALS CHOSEN --
------------------------------------------------------------------------------
------------------------------------------------------------------------------
                   ___                                                        
                  /   \      - P O W E R E D   B Y -                         
                 /     \                                                     
                 |  |  |   _    _      __       _____    __    __             
                 |  |  |  | |  | |    /  \     |  _  \  |  |  /  |          
                  \  \/   | |  | |   /    \    | | | |  |  | /  /          
                 / \  \   | |__| |  /  /\  \   | |_| |  |  |/  /          
                |  |  |   |  __  | /  /__\  \  |    /   |      \           
                |  |  |   | |  | | |   __   |  |    \   |  |\   \          
                \     /   | |  | | |  |  |  |  | |\  \  |  | \   \       
                 \___/    |_|  |_| |__|  |__|  |_| \__\ |__|  \__/        
                                                                              
                      - O R C A' S   B I G   F R I E N D -                    
                                      &                                       
                       - I N T E G R A L  F E E D E R -                       
                                                                              
 v1 FN, 2020, v2 2021, v3 2022-2024                                           
------------------------------------------------------------------------------


----------------------
SHARK INTEGRAL PACKAGE
----------------------

Number of atoms                             ...     82
Number of basis functions                   ...   1542
Number of shells                            ...    622
Maximum angular momentum                    ...      3
Integral batch strategy                     ... SHARK/LIBINT Hybrid
RI-J (if used) integral strategy            ... SPLIT-RIJ (Revised 2003 algorithm where possible)
Printlevel                                  ...      1
Contraction scheme used                     ... SEGMENTED contraction
Prescreening option                         ... SCHWARTZ
   Thresh                                   ... 2.500e-11
   Tcut                                     ... 2.500e-12
   Tpresel                                  ... 2.500e-12 
Coulomb Range Separation                    ... NOT USED
Exchange Range Separation                   ... NOT USED
Multipole approximations                    ... NOT USED
Finite Nucleus Model                        ... NOT USED
CABS basis                                  ... NOT available
Auxiliary Coulomb fitting basis             ... AVAILABLE
   # of basis functions in Aux-J            ...   2498
   # of shells in Aux-J                     ...    830
   Maximum angular momentum in Aux-J        ...      4
Auxiliary J/K fitting basis                 ... NOT available
Auxiliary Correlation fitting basis         ... NOT available
Auxiliary 'external' fitting basis          ... NOT available

Checking pre-screening integrals            ... done (  0.3 sec) Dimension = 622
   => SHARK Basis and OBASIS are compatible. Storing Pre-screening
Shell pair information
Shell pair cut-off parameter TPreSel        ...   2.5e-12
Total number of shell pairs                 ...    193753
Shell pairs after pre-screening             ...    119870
Total number of primitive shell pairs       ...    584784
Primitive shell pairs kept                  ...    226659
          la=0 lb=0:  33302 shell pairs
          la=1 lb=0:  35693 shell pairs
          la=1 lb=1:   9655 shell pairs
          la=2 lb=0:  16279 shell pairs
          la=2 lb=1:   8919 shell pairs
          la=2 lb=2:   2057 shell pairs
          la=3 lb=0:   7465 shell pairs
          la=3 lb=1:   4192 shell pairs
          la=3 lb=2:   1853 shell pairs
          la=3 lb=3:    455 shell pairs

Checking whether 4 symmetric matrices of dimension 1542 fit in memory
:Max Core in MB      =   6000.00
 MB in use           =    143.63
 MB left             =   5856.37
 MB needed           =     36.31
 Data fit in memory  = YES
Calculating RI/J V-Matrix + Cholesky decomp.... done (  4.7 sec)
Calculating Nuclear repulsion               ... done (  0.0 sec) ENN=   5891.427921646314 Eh

Diagonalization of the overlap matrix:
Smallest eigenvalue                        ... 2.480e-06
Time for diagonalization                   ...   32.256 sec
Threshold for overlap eigenvalues          ... 1.000e-07
Number of eigenvalues below threshold      ... 0
Time for construction of square roots      ...    1.881 sec
Total time needed                          ...   34.473 sec

-------------------
DFT GRID GENERATION
-------------------

General Integration Accuracy     IntAcc      ... 4.388
Radial Grid Type                 RadialGrid  ... OptM3 with GC (2021)
Angular Grid (max. ang.)         AngularGrid ... 4 (Lebedev-302)
Angular grid pruning method      GridPruning ... 4 (adaptive)
Weight generation scheme         WeightScheme... mBecke (2022)
Basis function cutoff            BFCut       ... 1.0000e-11
Integration weight cutoff        WCut        ... 1.0000e-14
Partially contracted basis set               ... off
Rotationally invariant grid construction     ... off
Angular grids for H and He will be reduced by one unit

Total number of grid points                  ...   373184
Total number of batches                      ...     5872
Average number of points per batch           ...       63
Average number of grid points per atom       ...     4551

--------------------
COSX GRID GENERATION
--------------------

GRIDX 1
-------
General Integration Accuracy     IntAcc      ... 3.816
Radial Grid Type                 RadialGrid  ... OptM3 with GC (2021)
Angular Grid (max. ang.)         AngularGrid ... 1 (Lebedev-50)
Angular grid pruning method      GridPruning ... 4 (adaptive)
Weight generation scheme         WeightScheme... mBecke (2022)
Basis function cutoff            BFCut       ... 1.0000e-11
Integration weight cutoff        WCut        ... 1.0000e-14
Partially contracted basis set               ... on
Rotationally invariant grid construction     ... off
Angular grids for H and He will be reduced by one unit

Total number of grid points                  ...    47261
Total number of batches                      ...      412
Average number of points per batch           ...      114
Average number of grid points per atom       ...      576
UseSFitting                                  ... on

GRIDX 2
-------
General Integration Accuracy     IntAcc      ... 4.020
Radial Grid Type                 RadialGrid  ... OptM3 with GC (2021)
Angular Grid (max. ang.)         AngularGrid ... 2 (Lebedev-110)
Angular grid pruning method      GridPruning ... 4 (adaptive)
Weight generation scheme         WeightScheme... mBecke (2022)
Basis function cutoff            BFCut       ... 1.0000e-11
[...]
freq.     652.04  E(vib)   ...       0.08 
freq.     656.21  E(vib)   ...       0.08 
freq.     671.46  E(vib)   ...       0.08 
freq.     712.20  E(vib)   ...       0.07 
freq.     725.42  E(vib)   ...       0.06 
freq.     736.69  E(vib)   ...       0.06 
freq.     742.19  E(vib)   ...       0.06 
freq.     746.91  E(vib)   ...       0.06 
freq.     758.39  E(vib)   ...       0.06 
freq.     762.81  E(vib)   ...       0.06 
freq.     777.87  E(vib)   ...       0.05 
freq.     801.42  E(vib)   ...       0.05 
freq.     809.22  E(vib)   ...       0.05 
freq.     809.53  E(vib)   ...       0.05 
freq.     832.69  E(vib)   ...       0.04 
freq.     838.99  E(vib)   ...       0.04 
freq.     849.12  E(vib)   ...       0.04 
freq.     851.59  E(vib)   ...       0.04 
freq.     876.35  E(vib)   ...       0.04 
freq.     883.36  E(vib)   ...       0.04 
freq.     893.90  E(vib)   ...       0.03 
freq.     902.63  E(vib)   ...       0.03 
freq.     909.46  E(vib)   ...       0.03 
freq.     913.65  E(vib)   ...       0.03 
freq.     924.17  E(vib)   ...       0.03 
freq.     930.97  E(vib)   ...       0.03 
freq.     943.33  E(vib)   ...       0.03 
freq.     947.64  E(vib)   ...       0.03 
freq.     955.82  E(vib)   ...       0.03 
freq.     963.05  E(vib)   ...       0.03 
freq.     984.90  E(vib)   ...       0.02 
freq.     994.24  E(vib)   ...       0.02 
freq.    1012.05  E(vib)   ...       0.02 
freq.    1029.38  E(vib)   ...       0.02 
freq.    1040.90  E(vib)   ...       0.02 
freq.    1047.05  E(vib)   ...       0.02 
freq.    1047.33  E(vib)   ...       0.02 
freq.    1049.01  E(vib)   ...       0.02 
freq.    1058.91  E(vib)   ...       0.02 
freq.    1063.83  E(vib)   ...       0.02 
freq.    1069.80  E(vib)   ...       0.02 
freq.    1101.57  E(vib)   ...       0.02 
freq.    1104.15  E(vib)   ...       0.02 
freq.    1118.94  E(vib)   ...       0.01 
freq.    1125.41  E(vib)   ...       0.01 
freq.    1139.56  E(vib)   ...       0.01 
freq.    1140.72  E(vib)   ...       0.01 
freq.    1147.21  E(vib)   ...       0.01 
freq.    1169.50  E(vib)   ...       0.01 
freq.    1170.66  E(vib)   ...       0.01 
freq.    1171.30  E(vib)   ...       0.01 
freq.    1171.56  E(vib)   ...       0.01 
freq.    1172.69  E(vib)   ...       0.01 
freq.    1172.89  E(vib)   ...       0.01 
freq.    1181.84  E(vib)   ...       0.01 
freq.    1186.38  E(vib)   ...       0.01 
freq.    1199.21  E(vib)   ...       0.01 
freq.    1203.73  E(vib)   ...       0.01 
freq.    1208.43  E(vib)   ...       0.01 
freq.    1209.49  E(vib)   ...       0.01 
freq.    1214.45  E(vib)   ...       0.01 
freq.    1219.87  E(vib)   ...       0.01 
freq.    1220.74  E(vib)   ...       0.01 
freq.    1236.74  E(vib)   ...       0.01 
freq.    1238.77  E(vib)   ...       0.01 
freq.    1245.17  E(vib)   ...       0.01 
freq.    1247.30  E(vib)   ...       0.01 
freq.    1251.04  E(vib)   ...       0.01 
freq.    1251.48  E(vib)   ...       0.01 
freq.    1273.81  E(vib)   ...       0.01 
freq.    1276.29  E(vib)   ...       0.01 
freq.    1286.07  E(vib)   ...       0.01 
freq.    1287.81  E(vib)   ...       0.01 
freq.    1289.98  E(vib)   ...       0.01 
freq.    1296.09  E(vib)   ...       0.01 
freq.    1303.01  E(vib)   ...       0.01 
freq.    1324.58  E(vib)   ...       0.01 
freq.    1326.22  E(vib)   ...       0.01 
freq.    1344.92  E(vib)   ...       0.01 
freq.    1350.86  E(vib)   ...       0.01 
freq.    1351.19  E(vib)   ...       0.01 
freq.    1359.90  E(vib)   ...       0.01 
freq.    1365.95  E(vib)   ...       0.01 
freq.    1371.43  E(vib)   ...       0.01 
freq.    1373.30  E(vib)   ...       0.01 
freq.    1383.38  E(vib)   ...       0.00 
freq.    1386.77  E(vib)   ...       0.00 
freq.    1397.96  E(vib)   ...       0.00 
freq.    1402.41  E(vib)   ...       0.00 
freq.    1405.12  E(vib)   ...       0.00 
freq.    1407.34  E(vib)   ...       0.00 
freq.    1418.35  E(vib)   ...       0.00 
freq.    1433.37  E(vib)   ...       0.00 
freq.    1440.21  E(vib)   ...       0.00 
freq.    1446.98  E(vib)   ...       0.00 
freq.    1454.31  E(vib)   ...       0.00 
freq.    1455.61  E(vib)   ...       0.00 
freq.    1461.30  E(vib)   ...       0.00 
freq.    1478.61  E(vib)   ...       0.00 
freq.    1478.89  E(vib)   ...       0.00 
freq.    1479.22  E(vib)   ...       0.00 
freq.    1479.72  E(vib)   ...       0.00 
freq.    1479.86  E(vib)   ...       0.00 
freq.    1481.74  E(vib)   ...       0.00 
freq.    1483.68  E(vib)   ...       0.00 
freq.    1483.97  E(vib)   ...       0.00 
freq.    1485.73  E(vib)   ...       0.00 
freq.    1489.78  E(vib)   ...       0.00 
freq.    1491.27  E(vib)   ...       0.00 
freq.    1491.83  E(vib)   ...       0.00 
freq.    1492.26  E(vib)   ...       0.00 
freq.    1493.97  E(vib)   ...       0.00 
freq.    1494.73  E(vib)   ...       0.00 
freq.    1498.51  E(vib)   ...       0.00 
freq.    1504.00  E(vib)   ...       0.00 
freq.    1540.20  E(vib)   ...       0.00 
freq.    1541.74  E(vib)   ...       0.00 
freq.    1542.98  E(vib)   ...       0.00 
freq.    1632.86  E(vib)   ...       0.00 
freq.    1641.73  E(vib)   ...       0.00 
freq.    1643.01  E(vib)   ...       0.00 
freq.    1645.49  E(vib)   ...       0.00 
freq.    1647.89  E(vib)   ...       0.00 
freq.    1650.55  E(vib)   ...       0.00 
freq.    2987.41  E(vib)   ...       0.00 
freq.    3014.21  E(vib)   ...       0.00 
freq.    3018.12  E(vib)   ...       0.00 
freq.    3018.40  E(vib)   ...       0.00 
freq.    3024.35  E(vib)   ...       0.00 
freq.    3024.88  E(vib)   ...       0.00 
freq.    3025.18  E(vib)   ...       0.00 
freq.    3025.39  E(vib)   ...       0.00 
freq.    3028.92  E(vib)   ...       0.00 
freq.    3029.99  E(vib)   ...       0.00 
freq.    3037.73  E(vib)   ...       0.00 
freq.    3045.26  E(vib)   ...       0.00 
freq.    3054.29  E(vib)   ...       0.00 
freq.    3066.76  E(vib)   ...       0.00 
freq.    3085.31  E(vib)   ...       0.00 
freq.    3087.41  E(vib)   ...       0.00 
freq.    3088.42  E(vib)   ...       0.00 
freq.    3088.96  E(vib)   ...       0.00 
freq.    3089.31  E(vib)   ...       0.00 
freq.    3089.67  E(vib)   ...       0.00 
freq.    3101.59  E(vib)   ...       0.00 
freq.    3104.04  E(vib)   ...       0.00 
freq.    3139.33  E(vib)   ...       0.00 
freq.    3141.16  E(vib)   ...       0.00 
freq.    3142.79  E(vib)   ...       0.00 
freq.    3143.72  E(vib)   ...       0.00 
freq.    3168.35  E(vib)   ...       0.00 
freq.    3180.65  E(vib)   ...       0.00 
freq.    3185.03  E(vib)   ...       0.00 
freq.    3199.25  E(vib)   ...       0.00 
freq.    3202.86  E(vib)   ...       0.00 
freq.    3207.74  E(vib)   ...       0.00 
freq.    3211.65  E(vib)   ...       0.00 
freq.    3213.33  E(vib)   ...       0.00 
freq.    3585.61  E(vib)   ...       0.00 
freq.    3612.06  E(vib)   ...       0.00 
freq.    3709.18  E(vib)   ...       0.00 
freq.    3725.05  E(vib)   ...       0.00 
freq.    3745.77  E(vib)   ...       0.00 
freq.    3786.08  E(vib)   ...       0.00 

------------
INNER ENERGY
------------

The inner energy is: U= E(el) + E(ZPE) + E(vib) + E(rot) + E(trans)
    E(el)   - is the total energy from the electronic structure calculation
              = E(kin-el) + E(nuc-el) + E(el-el) + E(nuc-nuc)
    E(ZPE)  - the the zero temperature vibrational energy from the frequency calculation
    E(vib)  - the the finite temperature correction to E(ZPE) due to population
              of excited vibrational states
    E(rot)  - is the rotational thermal energy
    E(trans)- is the translational thermal energy

Summary of contributions to the inner energy U:
Electronic energy                ...  -2032.64004089 Eh
Zero point energy                ...      0.68005906 Eh     426.74 kcal/mol
Thermal vibrational correction   ...      0.03973759 Eh      24.94 kcal/mol
Thermal rotational correction    ...      0.00141627 Eh       0.89 kcal/mol
Thermal translational correction ...      0.00141627 Eh       0.89 kcal/mol
-----------------------------------------------------------------------
Total thermal energy                  -2031.91741169 Eh


Summary of corrections to the electronic energy:
(perhaps to be used in another calculation)
Total thermal correction                  0.04257014 Eh      26.71 kcal/mol
Non-thermal (ZPE) correction              0.68005906 Eh     426.74 kcal/mol
-----------------------------------------------------------------------
Total correction                          0.72262920 Eh     453.46 kcal/mol


--------
ENTHALPY
--------

The enthalpy is H = U + kB*T
                kB is Boltzmann's constant
Total thermal energy              ...  -2031.91741169 Eh 
Thermal Enthalpy correction       ...      0.00094421 Eh       0.59 kcal/mol
-----------------------------------------------------------------------
Total Enthalpy                    ...  -2031.91646748 Eh


Note: Only C1 symmetry has been detected, increase convergence thresholds 
      if your molecule has a higher symmetry. Symmetry factor of 1.0 is   
      used for the rotational entropy correction. 
 

Note: Rotational entropy computed according to Herzberg 
Infrared and Raman Spectra, Chapter V,1, Van Nostrand Reinhold, 1945 
Point Group:  C1, Symmetry Number:   1  
Rotational constants in cm-1:     0.003468     0.002484     0.002039 

Vibrational entropy computed according to the QRRHO of S. Grimme
Chem.Eur.J. 2012 18 9955 using a reference frequency of 100.0 cm-1


-------
ENTROPY
-------

The entropy contributions are T*S = T*(S(el)+S(vib)+S(rot)+S(trans))
     S(el)   - electronic entropy
     S(vib)  - vibrational entropy
     S(rot)  - rotational entropy
     S(trans)- translational entropy
The entropies will be listed as multiplied by the temperature to get
units of energy

Electronic entropy                ...      0.00000000 Eh      0.00 kcal/mol
Vibrational entropy               ...      0.07106583 Eh     44.59 kcal/mol
Rotational entropy                ...      0.01794125 Eh     11.26 kcal/mol
Translational entropy             ...      0.02138181 Eh     13.42 kcal/mol
-----------------------------------------------------------------------
Final entropy term                ...      0.11038889 Eh     69.27 kcal/mol

In case the symmetry of your molecule has not been determined correctly
or in case you have a reason to use a different symmetry number we print 
out the resulting rotational entropy values for sn=1,12:

 non-linear molecules -----------------------------------
|  sn= 1 | S(rot)=       0.01794125 Eh     11.26 kcal/mol|
|  sn= 2 | S(rot)=       0.01728679 Eh     10.85 kcal/mol|
|  sn= 3 | S(rot)=       0.01690396 Eh     10.61 kcal/mol|
|  sn= 4 | S(rot)=       0.01663234 Eh     10.44 kcal/mol|
|  sn= 5 | S(rot)=       0.01642165 Eh     10.30 kcal/mol|
|  sn= 6 | S(rot)=       0.01624950 Eh     10.20 kcal/mol|
|  sn= 7 | S(rot)=       0.01610396 Eh     10.11 kcal/mol|
|  sn= 8 | S(rot)=       0.01597788 Eh     10.03 kcal/mol|
|  sn= 9 | S(rot)=       0.01586667 Eh      9.96 kcal/mol|
|  sn=10 | S(rot)=       0.01576719 Eh      9.89 kcal/mol|
|  sn=11 | S(rot)=       0.01567720 Eh      9.84 kcal/mol|
|  sn=12 | S(rot)=       0.01559505 Eh      9.79 kcal/mol|
 linear molecules ---------------------------------------
|  Dinfh | S(rot)=       0.01117546 Eh      7.01 kcal/mol|
|  Cinfv | S(rot)=       0.01182992 Eh      7.42 kcal/mol|
 --------------------------------------------------------


-------------------
GIBBS FREE ENERGY
-------------------

The Gibbs free energy is G = H - T*S

Total enthalpy                    ...  -2031.91646748 Eh 
Total entropy correction          ...     -0.11038889 Eh    -69.27 kcal/mol
-----------------------------------------------------------------------
Final Gibbs free energy         ...  -2032.02685637 Eh

For completeness - the Gibbs free energy minus the electronic energy
G-E(el)                           ...      0.61318452 Eh    384.78 kcal/mol


Maximum memory used throughout the entire PROP-calculation: 1826.2 MB
--------------------------------------------------------------------------
WARNING: There was an error initializing an OpenFabrics device.

  Local host:   c08b01n08
  Local device: mlx5_0
--------------------------------------------------------------------------
--------------------------------------------------------------------------
WARNING: There is at least one non-excluded one OpenFabrics device found,
but there are no active ports detected (or Open MPI was unable to use
them).  This is most certainly not what you wanted.  Check your
cables, subnet manager configuration, etc.  The openib BTL will be
ignored for this job.

  Local host: c08b01n08
--------------------------------------------------------------------------
[c08b01n08:1637197] 57 more processes have sent help message help-mpi-btl-openib.txt / error in device init
[c08b01n08:1637197] Set MCA parameter "orte_base_help_aggregate" to 0 to see all help / error messages
[c08b01n08:1637197] 5 more processes have sent help message help-mpi-btl-openib.txt / no active ports found

--------------------------------
SUGGESTED CITATIONS FOR THIS RUN
--------------------------------

Below you find a list of papers that are relevant to this ORCA run
We neither can nor want to force you to cite these papers, but we appreciate if you do
You receive ORCA, which is the product of decades of hard work by many enthusiastic individuals, for free
The only thing we kindly ask in return is that you cite our papers,
We deeply appreciate it, if you show your appreciation for ORCA by not just citing the generic ORCA reference.

Please note that relegating all ORCA citations to the supporting information does *not* help us.
SI sections are not indexed - citations you put there will not count into any citation statistics
But we need these citations in order to attract the funding resources that allow us to do what we are doing

Therefore, if you are a happy ORCA user, please consider citing a few of the papers listed below in the main body of your paper

In addition to the list printed below, the program has created the file opt-conf-4.bibtex that contains the list in bibtex format
You can import this file easily into all common literature databanks and citation aid programs


List of essential papers. We consider these as the minimum necessary citations

  1. Neese, F.
     Software update: the ORCA program system, version 6.0
     WIRES Comput. Molec. Sci. 2025 15(1), e70019
     doi.org/10.1002/wcms.7019

List of papers to cite with high priority. The work reported in these papers was absolutely
necessary for this run to complete.
Our perspective: the developers of density functionals and basis sets usually get cited in chemistry papers
Good! But without the algorithms to do something with them, the functionals or basis sets would not do anything.
Hence, in our opinion, the algorithm design and method developments papers are equally worthy of getting cited

  1. Neese, F.
     An improvement of the resolution of the identity approximation for the formation of the Coulomb matrix
     J. Comp. Chem. 2003 24(14), 1740-1747
     doi.org/10.1002/jcc.10318
  2. Neese, F.; Wennmohs, F.; Hansen, A.; Becker, U.
     Efficient, approximate and parallel Hartree-Fock and hybrid DFT calculations. A 'chain-of-spheres' algorithm for the Hartree-Fock exchange
     Chem. Phys. 2009 356(1-3), 98-109
     doi.org/10.1016/j.chemphys.2008.10.036
  3. Bykov, D.; Petrenko, T.; Izsak, R.; Kossmann, S.; Becker, U.; Valeev, E.; Neese, F.
     Efficient implementation of the analytic second derivatives of Hartree-Fock and hybrid DFT energies: a detailed analysis of different approximations
     Molec. Phys. 2015 113 , 1961-1977
     doi.org/10.1080/00268976.2015.1025114
  4. Caldeweyher, E.; Bannwarth, C.; Grimme, S.
     Extension of the D3 dispersion coefficient model
     J. Chem. Phys. 2017 147 , 034112
     doi.org/10.1063/1.4993215
  5. Caldeweyher, E.; Ehlert, S.; Hansen, A.; Neugebauer, H.; Spicher, S.; Bannwarth, C.; Grimme, S.
     A generally applicable atomic-charge dependent London dispersion correction
     J. Chem. Phys. 2019 150 , 154122
     doi.org/10.1063/1.5090222
  6. Garcia-Rates, M.; Neese, F.
     Efficient implementation of the analytical second derivatives of hartree-fock and hybrid DFT energies within the framework of the conductor-like polarizable continuum model
     J. Comput. Chem. 2019 40 , 1816-1828
     doi.org/10.1002/jcc.25833
  7. Caldeweyher, E.; Mewes, J.; Ehlert, S.; Grimme, S.
     Extension and evaluation of the D4 London-dispersion model for periodic systems
     Phys. Chem. Chem. Phys. 2020 22(16), 8499-8512
     doi.org/10.1039/D0CP00502A
  8. Garcia-Rates, M.; Neese, F.
     Effect of the Solute Cavity on the Solvation Energy and its Derivatives within the Framework of the Gaussian Charge Scheme
     J. Comput. Chem. 2020 41 , 922-939
     doi.org/10.1002/jcc.26139
  9. Helmich-Paris, B.; de Souza, B.; Neese, F.; Izsák, R.
     An improved chain of spheres for exchange algorithm
     J. Chem. Phys. 2021 155(10), 104109
     doi.org/10.1063/5.0058766
 10. Neese, F.
     The SHARK Integral Generation and Digestion System
     J. Comp. Chem. 2022 44(3), 381
     doi.org/10.1002/jcc.26942
 11. Wittmann, L.; Gordiy, I.; Friede, M.; Helmich-Paris, B.; Grimme, S.; Hansen, A.; Bursch, M.
     Extension of the D3 and D4 London Dispersion Corrections to the full Actinides Series
     Phys. Chem. Chem. Phys. 2024 26(32), 21379-21394
     doi.org/10.1039/D4CP01514B

List of suggested additional citations. These are papers that are important in the 'surrounding' of 
of this run, or papers that preceded the highly important papers. If you like your results we are grateful for a citation.

  1. Izsak, R.; Neese, F.
     An overlap fitted chain of spheres exchange method
     J. Chem. Phys. 2011 135 , 144105
     doi.org/10.1063/1.3646921
  2. Izsak, R.; Hansen, A.; Neese, F.
     The resolution of identity and chain of spheres approximations for the LPNO-CCSD singles Fock term
     Molec. Phys. 2012 110 , 2413-2417
     doi.org/10.1080/00268976.2012.687466
  3. Neese, F.
     The ORCA program system
     WIRES Comput. Molec. Sci. 2012 2(1), 73-78
     doi.org/10.1002/wcms.81
  4. Izsak, R.; Neese, F.; Klopper, W.
     Robust fitting techniques in the chain of spheres approximation to the Fock exchange: The role of the complementary space
     J. Chem. Phys. 2013 139 , 
     doi.org/10.1063/1.4819264
  5. Neese, F.
     Software update: the ORCA program system, version 4.0
     WIRES Comput. Molec. Sci. 2018 8(1), 1-6
     doi.org/10.1002/wcms.1327
  6. Neese, F.; Wennmohs, F.; Becker, U.; Riplinger, C.
     The ORCA quantum chemistry program package
     J. Chem. Phys. 2020 152(22), 224108
     doi.org/10.1063/5.0004608
  7. Neese, F.
     Software update: The ORCA program system—Version 5.0
     WIRES Comput. Molec. Sci. 2022 12(1), e1606
     doi.org/10.1002/wcms.1606

List of optional additional citations

  1. Neese, F.
     Approximate second-order SCF convergence for spin unrestricted wavefunctions
     Chem. Phys. Lett. 2000 325(1-3), 93-98
     doi.org/10.1016/s0009-2614(00)00662-x

Timings for individual modules:

Sum of individual times          ...    21765.792 sec (= 362.763 min)
Startup calculation              ...     2010.537 sec (=  33.509 min)   9.2 %
SCF iterations                   ...    12143.084 sec (= 202.385 min)  55.8 %
Property integrals               ...     1654.303 sec (=  27.572 min)   7.6 %
SCF Response                     ...     3820.453 sec (=  63.674 min)  17.6 %
Property calculations            ...      811.731 sec (=  13.529 min)   3.7 %
SCF Gradient evaluation          ...     1322.041 sec (=  22.034 min)   6.1 %
Geometry relaxation              ...        3.643 sec (=   0.061 min)   0.0 %
                             ****ORCA TERMINATED NORMALLY****
TOTAL RUN TIME: 0 days 6 hours 10 minutes 37 seconds 421 msec
