
                                 *****************
                                 * O   R   C   A *
                                 *****************

                                            #,                                       
                                            ###                                      
                                            ####                                     
                                            #####                                    
                                            ######                                   
                                           ########,                                 
                                     ,,################,,,,,                         
                               ,,#################################,,                 
                          ,,##########################################,,             
                       ,#########################################, ''#####,          
                    ,#############################################,,   '####,        
                  ,##################################################,,,,####,       
                ,###########''''           ''''###############################       
              ,#####''   ,,,,##########,,,,          '''####'''          '####       
            ,##' ,,,,###########################,,,                        '##       
           ' ,,###''''                  '''############,,,                           
         ,,##''                                '''############,,,,        ,,,,,,###''
      ,#''                                            '''#######################'''  
     '                                                          ''''####''''         
             ,#######,   #######,   ,#######,      ##                                
            ,#'     '#,  ##    ##  ,#'     '#,    #''#        ,####,    ,#,          
            ##       ##  ##   ,#'  ##            #'  '#       #'       ,# #          
            ##       ##  #######   ##           ,######,      #####,      #          
            '#,     ,#'  ##    ##  '#,     ,#' ,#      #,     #,   #      #          
             '#######'   ##     ##  '#######'  #'      '#     '####' #    #          



                #########################################################
                #                        -***-                          #
                #          Department of theory and spectroscopy        #
                #                                                       #
                #                      Frank Neese                      #
                #                                                       #
                #     Directorship, Architecture, Infrastructure        #
                #                    SHARK, DRIVERS                     #
                #        Core code/Algorithms in most modules           #
                #                                                       #
                #        Max Planck Institute fuer Kohlenforschung      #
                #                Kaiser Wilhelm Platz 1                 #
                #                 D-45470 Muelheim/Ruhr                 #
                #                      Germany                          #
                #                                                       #
                #                  All rights reserved                  #
                #                        -***-                          #
                #########################################################


                         Program Version 6.1.0-f.0  -   RELEASE   -


 With contributions from (in alphabetic order):
[Max-Planck-Institut fuer Kohlenforschung]                               
  Daniel Aravena         : Magnetic Suceptibility                        
  Michael Atanasov       : Ab Initio Ligand Field Theory (pilot matlab implementation)
  Alexander A. Auer      : GIAO ZORA, VPT2 properties, NMR spectrum      
  Ute Becker             : All parallelization in ORCA, NUMFREQ, NUMCALC 
  Giovanni Bistoni       : ED, misc. LED, open-shell LED, HFLD           
  Dmytro Bykov           : pre 5.0 version of the SCF Hessian            
  Marcos Casanova-Páez   : Triplet and SCS-CIS(D). UHF-(DLPNO)-IP/EA/STEOM-CCSD. UHF-CVS-IP/STEOM-CCSD   
  Vijay G. Chilkuri      : MRCI spin determinant printing, contributions to CSF-ICE 
  Pauline Colinet        : FMM embedding                                 
  Dipayan Datta          : RHF DLPNO-CCSD density                        
  Achintya Kumar Dutta   : EOM-CC, STEOM-CC                              
  Nicolas Foglia         : Exact transition moments, OPA infrastructure, MCD improvements    
  Dmitry Ganyushin       : Spin-Orbit,Spin-Spin,Magnetic field MRCI      
  Miquel Garcia-Rates    : C-PCM and meta-GGA Hessian, CCSD/C-PCM, Gaussian charge scheme 
  Tiago L. C. Gouveia    : GS-ROHF, GS-ROCIS                             
  Yang Guo               : DLPNO-NEVPT2, F12-NEVPT2, CIM, IAO-localization        
  Andreas Hansen         : Spin unrestricted coupled pair/coupled cluster methods 
  Ingolf Harden          : AUTO-CI MPn and infrastructure                
  Benjamin Helmich-Paris : MC-RPA, TRAH-(SCF,CASSCF), AVAS, COSX integrals, SCF dyn. polar., MC-PDFT, srDFT 
  Lee Huntington         : MR-EOM, pCC                                   
  Robert Izsak           : Overlap fitted RIJCOSX, COSX-SCS-MP3, EOM     
  Riya Kayal             : Wick's Theorem for AUTO-CI, AUTO-CI UHF-CCSDT 
  Emily Kempfer          : AUTO-CI RHF CISDT and CCSDT, approximate NEVPT4
  Christian Kollmar      : KDIIS, OOCD, Brueckner-CCSD(T), CCSD density, CASPT2, CASPT2-K, improved NEVPT2 
  Axel Koslowski         : Symmetry handling                             
  Simone Kossmann        : meta-GGA functionals, TD-DFT gradient, OOMP2, (MP2 Hessian; deprecated post 5.0) 
  Lucas Lang             : DCDCAS, Hyperfine gauge corrections, ICE-SOC+SSC
  Marvin Lechner         : AUTO-CI (C++ implementation), FIC-MRCC        
  Spencer Leger          : CASSCF response                               
  Dagmar Lenk            : GEPOL surface, SMD, ORCA-2-JSON               
  Dimitrios Liakos       : Extrapolation schemes; Compound Job, Property file
  Dimitrios Manganas     : Further ROCIS development; embedding schemes. LFT, Crystal Embedding 
  Dimitrios Pantazis     : SARC Basis sets                               
  Anastasios Papadopoulos: AUTO-CI, single reference methods and gradients 
  Taras Petrenko         : pre 6.0 DFT Hessian and TD-DFT gradient,  ECA, NRVS 
  Petra Pikulova         : Analytic Raman intensities                    
  Peter Pinski           : DLPNO-MP2, DLPNO-MP2 Gradient                 
  Shashank Vittal Rao    : ES-AILFT, MagRelax                            
  Christoph Reimann      : Effective Core Potentials                     
  Marius Retegan         : Local ZFS, SOC                                
  Christoph Riplinger    : Optimizer, TS searches, QM/MM, DLPNO-CCSD(T), (RO)-DLPNO pert. Triples 
  Michael Roemelt        : Original ROCIS implementation, recursive CI coupling coefficients
  Masaaki Saitow         : Open-shell DLPNO-CCSD energy and density      
  Barbara Sandhoefer     : DKH picture change effects                    
  Yorick L. A. Schmerwitz: GMF and freeze-and-release deltaSCF, NEB S-IDPP initial path                    
  Kantharuban Sivalingam : CASSCF convergence/infrastructure, NEVPT2, NEVPT3, NEVPT4(SD), FIC-MRCI and CEPA variants
  Bernardo de Souza      : ESD, SOC TD-DFT                               
  Georgi L. Stoychev     : AutoAux, RI-MP2 NMR, DLPNO-MP2 response, X2C  
  Van Anh Tran           : RI-MP2 g-tensors                              
  Willem Van den Heuvel  : Paramagnetic NMR                              
  Zikuan Wang            : NOTCH, Electric field optimization            
  Frank Wennmohs         : Technical directorship and infrastructure     
  Hang Xu                : AUTO-CI-Response properties                   
                                                                         
[FACCTs GmbH]                                                            
  Markus Bursch, Nicolas Foglia, Miquel Garcia-Rates, Ingolf Harden, Hagen Neugebauer, Anastasios Papadopoulos, 
  Christoph Riplinger, Bernardo de Souza, Georgi L. Stoychev                                                    
                                                                 
  APM, various basis sets, CI-OPT, improved COSX, DLPNO-Multilevel,           
  DOCKER, DRACO, updates on ESD, Fragmentator, GOAT, IRC, LR-CPCM, L-BFGS, MBIS, meta-GGA TD-DFT gradient, ML-optimized integration grids, 
  MM, NACMEs, nearIR, NEB, NEB-TS, NL-DFT gradient (VV10), 2- and 3-layer-ONIOM, interface openCOSMO-RS, QMMM,   
  Crystal-QMMM, RESP, rigid body optimization, SF, symmetry and pop. for TD-DFT, various functionals, SOLVATOR                                   
                                                                         
[Other institutions]                                                     
  V. Asgeirsson          : NEB                                           
  Christoph Bannwarth    : sTDA-DFT, sTD-DFT, PBEh-3c, B97-3c, D3        
  Giovanni Bistoni       : ETS/NOCV, ADLD/ADEX, COVALED                  
  Martin Brehm           : Molecular dynamics                            
  Ronald Cardenas        : ETS/NOCV                                      
  Martina Colucci        : COVALED                                       
  Sebastian Ehlert       : rSCAN, r2SCAN, r2SCAN-3c, D4, dhf basis sets  
  Marvin Friede          : D4 for Fr, Ra, Ac-Lr                          
  Lars Goerigk           : TD-DFT with DH, B97 family of functionals     
  Stefan Grimme          : VdW corrections, initial TS optimization, DFT functionals, gCP, sTDA/sTD-DF 
  Waldemar Hujo          : DFT-NL                                        
  H. Jonsson             : NEB                                           
  Holger Kruse           : gCP                                           
  Marcel Mueller         : wB97X-3c, vDZP basis set                      
  Hagen Neugebauer       : wr2SCAN, Native XTB                           
  Gianluca Regni         : ADLD/ADEX                                     
  Tobias Risthaus        : pre 6.0 range-separated hybrid DFT and stability analysis
  Lukas Wittmann         : regularized MP2, r2SCAN double-hybrids, wr2SCAN        
                                                                         
We gratefully acknowledge several colleagues who have allowed us to      
interface, adapt or use parts of their codes:                            
  Ed Valeev, F. Pavosevic, A. Kumar             : LibInt (2-el integral package), F12 methods 
  Garnet Chan, S. Sharma, J. Yang, R. Olivares  : DMRG                   
  Ulf Ekstrom                                   : XCFun DFT Library      
  Mihaly Kallay                                 : mrcc  (arbitrary order and MRCC methods)
  Frank Weinhold                                : gennbo (NPA and NBO analysis)           
  Simon Mueller                                 : openCOSMO-RS                            
  Christopher J. Cramer and Donald G. Truhlar   : smd solvation model                     
  S Lehtola, MJT Oliveira, MAL Marques          : LibXC Library                           
  Liviu Ungur et al                             : ANISO software                          


 Your calculation uses the libint2 library for the computation of 2-el integrals
 For citations please refer to: http://libint.valeyev.net

 Your ORCA version has been built with support for libXC version: 7.0.0
 For citations please refer to: https://libxc.gitlab.io

 This ORCA versions uses:
   CBLAS   interface :  Fast vector & matrix operations
   LAPACKE interface :  Fast linear algebra routines
   SCALAPACK package :  Parallel linear algebra routines
   Shared memory     :  Shared parallel matrices
   BLAS/LAPACK       :  OpenBLAS 0.3.29  USE64BITINT DYNAMIC_ARCH NO_AFFINITY Cooperlake SINGLE_THREADED
        Core in use  :  Cooperlake
   Copyright (c) 2011-2014, The OpenBLAS Project


  ***********************************
  * Starting time: Tue Mar  3 23:17:05 2026
  * Host name:     c07b01n02
  * Process ID:    1534830
  * Working dir.:  /lustre1/jiangy/jiangy_liuxy/NMR/B9D7C2-SSRR
  ***********************************

NOTE: MaxCore=6000 MB was set to SCF,MP2,MDCI,CIPSI,MRCI,RASCI and CIS
      => If you want to overwrite this, your respective input block should be placed after the MaxCore statement


***************************************
The coordinates will be read from file: conf-15.xyz
***************************************


Your calculation utilizes the atom-pairwise dispersion correction
based on EEQ partial charges (D4)


Warning: RI is on but no J-basis has been assigned. Assigning Def2/J (nothing to worry about!)
================================================================================

----- Orbital basis set information -----
Your calculation utilizes the basis: def2-TZVP
   F. Weigend and R. Ahlrichs, Phys. Chem. Chem. Phys. 7, 3297 (2005).

----- AuxJ basis set information -----
Your calculation utilizes the auxiliary basis: def2/J
   H-Rn: F. Weigend, Phys. Chem. Chem. Phys. 8, 1057 (2006).
   Fr-Lr: K. Eichkorn, F. Weigend, O. Treutler, R. Ahlrichs; Theor. Chem. Acc. 97, 119 (1997).

================================================================================
                                        WARNINGS
                       Please study these warnings very carefully!
================================================================================


WARNING: Geometry Optimization
  ===> : Switching off AutoStart
         For restart on a previous wavefunction, please use MOREAD

================================================================================
                                       INPUT FILE
================================================================================
NAME = opt-conf-15.inp
|  1> ! B3LYP OPT FREQ DEF2-TZVP D4 CPCM(Methanol) 
|  2> ! TightOpt
|  3> %pal nprocs 64 end
|  4> %maxcore 6000
|  5> 
|  6> %cpcm
|  7> end
|  8> 
|  9> %freq
| 10>    Temp 298.15
| 11> end
| 12> 
| 13> * xyzfile 0 1 conf-15.xyz
| 14> 
| 15> 
| 16>                          ****END OF INPUT****
================================================================================

                       *****************************
                       * Geometry Optimization Run *
                       *****************************

Geometry optimization settings:
Update method            Update   .... BFGS
Choice of coordinates    CoordSys .... (2022) Redundant Internals
Initial Hessian          InHess   .... Almloef's Model
Max. no of cycles        MaxIter  .... 246

Convergence Tolerances:
Energy Change            TolE     ....  1.0000e-06 Eh
Max. Gradient            TolMAXG  ....  1.0000e-04 Eh/bohr
RMS Gradient             TolRMSG  ....  3.0000e-05 Eh/bohr
Max. Displacement        TolMAXD  ....  1.0000e-03 bohr
RMS Displacement         TolRMSD  ....  6.0000e-04 bohr
Strict Convergence                .... False

------------------------------------------------------------------------------
                        ORCA OPTIMIZATION COORDINATE SETUP
------------------------------------------------------------------------------

The optimization will be done in redundant internal coordinates (2022)
Making redundant internal coordinates   ...  (2022 redundants) done
Evaluating the initial hessian          ...  (Almloef) done
Evaluating the coordinates              ...  done
Calculating the B-matrix                .... done
Calculating the G-matrix                .... done
The number of degrees of freedom        ....  406

    -----------------------------------------------------------------
                    Redundant Internal Coordinates


    -----------------------------------------------------------------
         Definition                    Initial Value    Approx d2E/dq
    -----------------------------------------------------------------
      1. B(C   1,C   0)                  1.4017         0.598462   
      2. B(C   2,C   1)                  1.3999         0.602535   
      3. B(C   3,C   2)                  1.3885         0.628252   
      4. B(C   4,C   3)                  1.3860         0.633969   
      5. B(C   5,C   4)                  1.3864         0.633179   
      6. B(C   5,C   0)                  1.3867         0.632468   
      7. B(C   6,C   4)                  1.5024         0.413415   
      8. B(C   7,C   6)                  1.5414         0.358220   
      9. B(C   8,C   7)                  1.5462         0.352049   
     10. B(C   9,C   8)                  1.5374         0.363608   
     11. B(C  10,C   9)                  1.5030         0.412531   
     12. B(C  11,C  10)                  1.3940         0.615733   
     13. B(C  12,C  11)                  1.3833         0.640442   
     14. B(C  13,C  12)                  1.4036         0.594370   
     15. B(C  14,C  13)                  1.3826         0.641946   
     16. B(C  15,C  10)                  1.3865         0.632865   
     17. B(C  15,C  14)                  1.3857         0.634637   
     18. B(C  16,C   7)                  1.5352         0.366546   
     19. B(C  17,C   8)                  1.5412         0.358577   
     20. B(O  18,C   2)                  1.3662         0.610683   
     21. B(O  19,C   0)                  1.3667         0.609571   
     22. B(O  20,C   1)                  1.3766         0.587752   
     23. B(O  21,C  13)                  1.3632         0.617513   
     24. B(O  22,C  12)                  1.3782         0.584360   
     25. B(C  23,O  20)                  1.4245         0.493031   
     26. B(C  24,C  23)                  1.5502         0.346915   
     27. B(C  25,C  24)                  1.5175         0.391077   
     28. B(C  26,C  23)                  1.5330         0.369490   
     29. B(O  27,C  26)                  1.4016         0.536172   
     30. B(C  28,C  25)                  1.3925         0.619129   
     31. B(C  29,C  28)                  1.3813         0.645005   
     32. B(C  30,C  29)                  1.4033         0.594978   
     33. B(C  31,C  30)                  1.3814         0.644839   
     34. B(C  32,C  31)                  1.3849         0.636636   
     35. B(C  32,C  25)                  1.3834         0.640014   
     36. B(C  33,O  19)                  1.4074         0.524899   
     37. B(C  34,O  18)                  1.4087         0.522498   
     38. B(C  35,O  22)                  1.4066         0.526579   
     39. B(O  36,C  24)                  1.4000         0.539371   
     40. B(O  37,C  16)                  1.4082         0.523440   
     41. B(O  38,C  17)                  1.4021         0.535241   
     42. B(O  39,C  29)                  1.3749         0.591582   
     43. B(O  40,C  30)                  1.3690         0.604585   
     44. B(C  41,O  39)                  1.4089         0.522054   
     45. B(H  42,C   3)                  1.0778         0.376587   
     46. B(H  43,C   5)                  1.0777         0.376747   
     47. B(H  44,C   6)                  1.0910         0.358746   
     48. B(H  45,C   6)                  1.0915         0.358080   
     49. B(H  46,C   7)                  1.0961         0.352133   
     50. B(H  47,C   8)                  1.0951         0.353466   
     51. B(H  48,C   9)                  1.0901         0.360001   
     52. B(H  49,C   9)                  1.0949         0.353623   
     53. B(H  50,C  11)                  1.0788         0.375245   
     54. B(H  51,C  14)                  1.0786         0.375448   
     55. B(H  52,C  15)                  1.0787         0.375301   
     56. B(H  53,C  16)                  1.0937         0.355264   
     57. B(H  54,C  16)                  1.0974         0.350474   
     58. B(H  55,C  17)                  1.0947         0.353886   
     59. B(H  56,C  17)                  1.1019         0.344682   
     60. B(H  57,O  21)                  0.9674         0.505951   
     61. B(H  57,O  22)                  2.1074         0.010000   
     62. B(H  58,C  23)                  1.0940         0.354857   
     63. B(H  59,C  24)                  1.0977         0.350029   
     64. B(H  60,C  26)                  1.0917         0.357901   
     65. B(H  61,C  26)                  1.0985         0.348989   
     66. B(H  62,O  20)                  2.3114         0.010000   
     67. B(H  62,O  27)                  0.9657         0.509266   
     68. B(H  63,C  28)                  1.0778         0.376616   
     69. B(H  64,C  31)                  1.0786         0.375523   
     70. B(H  65,C  32)                  1.0784         0.375832   
     71. B(H  66,C  33)                  1.0888         0.361687   
     72. B(H  67,C  33)                  1.0945         0.354212   
     73. B(H  68,C  33)                  1.0939         0.354933   
     74. B(H  69,C  34)                  1.0893         0.361070   
     75. B(H  70,C  34)                  1.0940         0.354801   
     76. B(H  71,C  34)                  1.0948         0.353867   
     77. B(H  72,C  35)                  1.0940         0.354823   
     78. B(H  73,C  35)                  1.0944         0.354279   
     79. B(H  74,C  35)                  1.0888         0.361647   
     80. B(H  75,O  20)                  2.2699         0.010000   
     81. B(H  75,O  19)                  2.0794         0.010000   
     82. B(H  75,O  36)                  0.9732         0.495355   
     83. B(H  76,O  40)                  1.9606         0.013172   
     84. B(H  76,O  37)                  0.9703         0.500721   
     85. B(H  77,O  37)                  1.9677         0.012832   
     86. B(H  77,O  38)                  0.9693         0.502553   
     87. B(H  78,O  39)                  2.1156         0.010000   
     88. B(H  78,O  40)                  0.9697         0.501811   
     89. B(H  79,O  21)                  2.3506         0.010000   
     90. B(H  79,C  41)                  1.0882         0.362440   
     91. B(H  80,C  41)                  1.0944         0.354383   
     92. B(H  81,H  71)                  2.3935         0.010000   
     93. B(H  81,C  41)                  1.0927         0.356501   
     94. A(C   1,C   0,O  19)          114.7568         0.427198   
     95. A(C   5,C   0,O  19)          124.9288         0.431455   
     96. A(C   1,C   0,C   5)          120.3134         0.432862   
     97. A(C   0,C   1,O  20)          116.5545         0.424419   
     98. A(C   0,C   1,C   2)          119.4943         0.429109   
     99. A(C   2,C   1,O  20)          123.7772         0.424934   
    100. A(C   3,C   2,O  18)          123.8394         0.431078   
    101. A(C   1,C   2,C   3)          119.2140         0.432869   
    102. A(C   1,C   2,O  18)          116.9466         0.427857   
    103. A(C   4,C   3,H  42)          118.5118         0.356944   
    104. A(C   2,C   3,H  42)          120.3133         0.356396   
    105. A(C   2,C   3,C   4)          121.1665         0.436850   
    106. A(C   5,C   4,C   6)          121.3269         0.405325   
    107. A(C   3,C   4,C   6)          118.9878         0.405414   
    108. A(C   3,C   4,C   5)          119.6720         0.437466   
    109. A(C   4,C   5,H  43)          119.2466         0.356894   
    110. A(C   0,C   5,H  43)          120.6652         0.356826   
    111. A(C   0,C   5,C   4)          120.0882         0.437279   
    112. A(C   4,C   6,H  44)          110.2198         0.329573   
    113. A(C   7,C   6,H  45)          108.9652         0.321797   
    114. A(C   4,C   6,C   7)          111.2496         0.367062   
    115. A(H  44,C   6,H  45)          107.9749         0.290411   
    116. A(C   4,C   6,H  45)          108.6989         0.329472   
    117. A(C   7,C   6,H  44)          109.6575         0.321895   
    118. A(C   6,C   7,C  16)          108.3069         0.359592   
    119. A(C   8,C   7,C  16)          114.7720         0.358530   
    120. A(C  16,C   7,H  46)          107.5467         0.322126   
    121. A(C   8,C   7,H  46)          107.0751         0.320006   
    122. A(C   6,C   7,H  46)          107.4989         0.320917   
    123. A(C   6,C   7,C   8)          111.3369         0.357132   
    124. A(C   7,C   8,C  17)          113.9159         0.357192   
    125. A(C  17,C   8,H  47)          106.1739         0.321167   
    126. A(C   7,C   8,C   9)          112.5748         0.358039   
    127. A(C   9,C   8,H  47)          108.1043         0.321901   
    128. A(C   7,C   8,H  47)          106.8093         0.320204   
    129. A(C   9,C   8,C  17)          108.8938         0.359160   
    130. A(H  48,C   9,H  49)          106.9277         0.289999   
    131. A(C  10,C   9,H  48)          108.8825         0.329647   
    132. A(C  10,C   9,H  49)          108.5502         0.328675   
    133. A(C   8,C   9,C  10)          115.7180         0.367868   
    134. A(C   8,C   9,H  48)          109.0043         0.322868   
    135. A(C   8,C   9,H  49)          107.4098         0.321924   
    136. A(C   9,C  10,C  11)          118.5645         0.403178   
    137. A(C  11,C  10,C  15)          118.6246         0.435132   
    138. A(C   9,C  10,C  15)          122.7756         0.405136   
    139. A(C  10,C  11,C  12)          121.0164         0.436066   
    140. A(C  10,C  11,H  50)          118.6847         0.354965   
    141. A(C  12,C  11,H  50)          120.2953         0.357344   
    142. A(C  11,C  12,C  13)          119.7115         0.433303   
    143. A(C  13,C  12,O  22)          114.6517         0.423460   
    144. A(C  11,C  12,O  22)          125.6367         0.429160   
    145. A(C  12,C  13,O  21)          120.0393         0.427664   
    146. A(C  12,C  13,C  14)          119.3429         0.433486   
    147. A(C  14,C  13,O  21)          120.6178         0.433618   
    148. A(C  13,C  14,H  51)          118.5046         0.357520   
    149. A(C  13,C  14,C  15)          120.3661         0.438635   
    150. A(C  15,C  14,H  51)          121.1197         0.356825   
    151. A(C  14,C  15,H  52)          118.9792         0.356801   
    152. A(C  10,C  15,H  52)          120.0898         0.356631   
    153. A(C  10,C  15,C  14)          120.9277         0.437509   
    154. A(O  37,C  16,H  54)          110.2435         0.339358   
    155. A(C   7,C  16,H  54)          107.7836         0.321877   
    156. A(O  37,C  16,H  53)          106.2776         0.340128   
    157. A(C   7,C  16,H  53)          110.6134         0.322593   
    158. A(C   7,C  16,O  37)          113.9653         0.381420   
    159. A(H  53,C  16,H  54)          107.8119         0.288992   
    160. A(O  38,C  17,H  56)          110.6871         0.339677   
    161. A(C   8,C  17,O  38)          114.9792         0.381441   
    162. A(H  55,C  17,H  56)          107.4683         0.288064   
    163. A(C   8,C  17,H  56)          109.1222         0.319849   
    164. A(O  38,C  17,H  55)          105.2492         0.341177   
    165. A(C   8,C  17,H  55)          109.0168         0.321230   
    166. A(C   2,O  18,C  34)          118.2464         0.414401   
    167. A(C   0,O  19,C  33)          118.4354         0.414604   
    168. A(C   1,O  20,C  23)          118.7061         0.407383   
    169. A(C  13,O  21,H  57)          107.2461         0.368130   
    170. A(C  12,O  22,C  35)          118.1273         0.411740   
    171. A(C  26,C  23,H  58)          109.4971         0.322956   
    172. A(C  24,C  23,H  58)          111.0559         0.319641   
    173. A(O  20,C  23,H  58)          110.1302         0.336685   
    174. A(C  24,C  23,C  26)          111.0789         0.358122   
    175. A(O  20,C  23,C  26)          104.8597         0.378009   
    176. A(O  20,C  23,C  24)          110.0454         0.373914   
    177. A(C  23,C  24,O  36)          109.7369         0.379766   
    178. A(O  36,C  24,H  59)          106.1751         0.340990   
    179. A(C  25,C  24,H  59)          108.9475         0.325249   
    180. A(C  23,C  24,H  59)          108.1767         0.318927   
    181. A(C  25,C  24,O  36)          113.0311         0.387760   
    182. A(C  23,C  24,C  25)          110.5697         0.361603   
    183. A(C  28,C  25,C  32)          119.3977         0.436446   
    184. A(C  24,C  25,C  32)          121.1981         0.402133   
    185. A(C  24,C  25,C  28)          119.4033         0.399790   
    186. A(O  27,C  26,H  61)          110.9810         0.340481   
    187. A(H  60,C  26,H  61)          109.0985         0.289135   
    188. A(C  23,C  26,H  61)          108.5145         0.322075   
    189. A(O  27,C  26,H  60)          106.7807         0.341921   
    190. A(C  23,C  26,H  60)          109.9980         0.323409   
    191. A(C  23,C  26,O  27)          111.4403         0.383548   
    192. A(C  26,O  27,H  62)          106.8753         0.359748   
    193. A(C  29,C  28,H  63)          120.2862         0.357998   
    194. A(C  25,C  28,H  63)          119.2367         0.355516   
    195. A(C  25,C  28,C  29)          120.4766         0.437057   
    196. A(C  30,C  29,O  39)          114.9109         0.424469   
    197. A(C  28,C  29,O  39)          125.5117         0.430655   
    198. A(C  28,C  29,C  30)          119.5774         0.433937   
    199. A(C  31,C  30,O  40)          120.3236         0.432321   
    200. A(C  29,C  30,O  40)          119.8987         0.426124   
    201. A(C  29,C  30,C  31)          119.7709         0.433917   
    202. A(C  32,C  31,H  64)          120.8926         0.357027   
    203. A(C  30,C  31,H  64)          119.0036         0.357805   
    204. A(C  30,C  31,C  32)          120.1015         0.439240   
    205. A(C  31,C  32,H  65)          119.9904         0.357077   
    206. A(C  25,C  32,H  65)          119.4615         0.357399   
    207. A(C  25,C  32,C  31)          120.5388         0.438645   
    208. A(H  67,C  33,H  68)          109.5079         0.289431   
    209. A(H  66,C  33,H  68)          109.2971         0.290381   
    210. A(O  19,C  33,H  68)          111.4977         0.340233   
    211. A(H  66,C  33,H  67)          109.3994         0.290288   
    212. A(O  19,C  33,H  67)          111.4532         0.340118   
    213. A(O  19,C  33,H  66)          105.5880         0.341307   
    214. A(H  69,C  34,H  71)          109.5530         0.290166   
    215. A(O  18,C  34,H  71)          111.8374         0.339802   
    216. A(H  69,C  34,H  70)          109.2397         0.290286   
    217. A(O  18,C  34,H  70)          111.2883         0.339952   
    218. A(O  18,C  34,H  69)          105.5276         0.340949   
    219. A(H  70,C  34,H  71)          109.3040         0.289370   
    220. A(H  73,C  35,H  74)          109.3453         0.290291   
    221. A(H  72,C  35,H  74)          109.3557         0.290361   
    222. A(O  22,C  35,H  74)          105.6484         0.341484   
    223. A(H  72,C  35,H  73)          109.5089         0.289425   
    224. A(O  22,C  35,H  73)          111.5013         0.340310   
    225. A(O  22,C  35,H  72)          111.3861         0.340397   
    226. A(C  24,O  36,H  75)          107.1897         0.358418   
    227. A(C  16,O  37,H  76)          107.7272         0.357250   
    228. A(C  17,O  38,H  77)          108.8506         0.358830   
    229. A(C  29,O  39,C  41)          117.9506         0.412007   
    230. A(C  30,O  40,H  78)          107.6747         0.366281   
    231. A(H  80,C  41,H  81)          109.3416         0.289653   
    232. A(H  79,C  41,H  81)          109.0772         0.290676   
    233. A(O  39,C  41,H  81)          111.5895         0.340175   
    234. A(H  79,C  41,H  80)          109.9170         0.290405   
    235. A(O  39,C  41,H  80)          111.0506         0.339836   
    236. A(O  39,C  41,H  79)          105.7936         0.341116   
    237. D(O  20,C   1,C   0,O  19)      6.8963         0.024684   
    238. D(C   2,C   1,C   0,O  19)   -177.7154         0.024684   
    239. D(C   2,C   1,C   0,C   5)      1.9325         0.024684   
    240. D(O  20,C   1,C   0,C   5)   -173.4557         0.024684   
    241. D(O  18,C   2,C   1,C   0)    179.8815         0.025039   
    242. D(C   3,C   2,C   1,C   0)     -0.0861         0.025039   
    243. D(C   3,C   2,C   1,O  20)    174.9501         0.025039   
    244. D(O  18,C   2,C   1,O  20)     -5.0824         0.025039   
    245. D(C   4,C   3,C   2,C   1)     -1.7618         0.027357   
    246. D(H  42,C   3,C   2,O  18)     -0.6534         0.027357   
    247. D(C   4,C   3,C   2,O  18)    178.2730         0.027357   
    248. D(H  42,C   3,C   2,C   1)    179.3118         0.027357   
    249. D(C   6,C   4,C   3,H  42)     -0.6030         0.027890   
    250. D(C   5,C   4,C   3,H  42)   -179.2965         0.027890   
    251. D(C   5,C   4,C   3,C   2)      1.7582         0.027890   
    252. D(C   6,C   4,C   3,C   2)   -179.5483         0.027890   
    253. D(H  43,C   5,C   4,C   6)      1.4415         0.027816   
    254. D(H  43,C   5,C   4,C   3)   -179.8964         0.027816   
    255. D(C   0,C   5,C   4,C   3)      0.1199         0.027816   
    256. D(C   4,C   5,C   0,O  19)    177.6544         0.027749   
    257. D(H  43,C   5,C   0,C   1)    178.0609         0.027749   
    258. D(H  43,C   5,C   0,O  19)     -2.3291         0.027749   
    259. D(C   0,C   5,C   4,C   6)   -178.5422         0.027816   
    260. D(C   4,C   5,C   0,C   1)     -1.9556         0.027749   
    261. D(H  45,C   6,C   4,C   3)     40.0083         0.012651   
    262. D(H  44,C   6,C   4,C   5)    -23.1658         0.012651   
    263. D(H  44,C   6,C   4,C   3)    158.1631         0.012651   
    264. D(C   7,C   6,C   4,C   5)     98.6958         0.012651   
    265. D(C   7,C   6,C   4,C   3)    -79.9752         0.012651   
    266. D(C   8,C   7,C   6,H  44)    -77.5773         0.010302   
    267. D(C   8,C   7,C   6,C   4)    160.2350         0.010302   
    268. D(C  16,C   7,C   6,H  45)    167.4989         0.010302   
    269. D(C  16,C   7,C   6,H  44)     49.5123         0.010302   
    270. D(C   8,C   7,C   6,H  45)     40.4093         0.010302   
    271. D(C  16,C   7,C   6,C   4)    -72.6754         0.010302   
    272. D(C  17,C   8,C   7,H  46)   -159.8610         0.010000   
    273. D(C  17,C   8,C   7,C  16)    -40.5799         0.010000   
    274. D(C  17,C   8,C   7,C   6)     82.9011         0.010000   
    275. D(C   9,C   8,C   7,C  16)     84.0304         0.010000   
    276. D(C   9,C   8,C   7,H  46)    -35.2507         0.010000   
    277. D(C   9,C   8,C   7,C   6)   -152.4886         0.010000   
    278. D(H  48,C   9,C   8,C  17)     55.6626         0.010593   
    279. D(H  48,C   9,C   8,C   7)    -71.6617         0.010593   
    280. D(C  10,C   9,C   8,H  47)    -66.3190         0.010593   
    281. D(C  10,C   9,C   8,C  17)    178.7425         0.010593   
    282. D(H  48,C   9,C   8,H  47)    170.6012         0.010593   
    283. D(C  10,C   9,C   8,C   7)     51.4182         0.010593   
    284. D(C  15,C  10,C   9,H  48)    167.1417         0.012599   
    285. D(C  15,C  10,C   9,C   8)     43.9977         0.012599   
    286. D(C  11,C  10,C   9,H  49)    101.0128         0.012599   
    287. D(C  11,C  10,C   9,H  48)    -15.0507         0.012599   
    288. D(C  11,C  10,C   9,C   8)   -138.1947         0.012599   
    289. D(H  50,C  11,C  10,C  15)   -179.9318         0.026213   
    290. D(H  50,C  11,C  10,C   9)      2.1682         0.026213   
    291. D(C  12,C  11,C  10,C  15)      0.7538         0.026213   
    292. D(C  12,C  11,C  10,C   9)   -177.1462         0.026213   
    293. D(O  22,C  12,C  11,H  50)      0.4968         0.028500   
    294. D(C  13,C  12,C  11,H  50)   -179.6232         0.028500   
    295. D(O  22,C  12,C  11,C  10)    179.8002         0.028500   
    296. D(C  13,C  12,C  11,C  10)     -0.3198         0.028500   
    297. D(O  21,C  13,C  12,C  11)    179.4119         0.024330   
    298. D(C  14,C  13,C  12,O  22)    179.2615         0.024330   
    299. D(C  14,C  13,C  12,C  11)     -0.6312         0.024330   
    300. D(O  21,C  13,C  12,O  22)     -0.6954         0.024330   
    301. D(H  51,C  14,C  13,O  21)     -0.0203         0.028644   
    302. D(H  51,C  14,C  13,C  12)   -179.9769         0.028644   
    303. D(C  15,C  14,C  13,O  21)   -178.9030         0.028644   
    304. D(C  15,C  14,C  13,C  12)      1.1403         0.028644   
    305. D(H  52,C  15,C  14,H  51)     -0.2276         0.027952   
    306. D(H  52,C  15,C  14,C  13)    178.6255         0.027952   
    307. D(C  10,C  15,C  14,H  51)   -179.5613         0.027952   
    308. D(C  10,C  15,C  14,C  13)     -0.7081         0.027952   
    309. D(H  52,C  15,C  10,C  11)   -179.5686         0.027786   
    310. D(H  52,C  15,C  10,C   9)     -1.7623         0.027786   
    311. D(C  14,C  15,C  10,C  11)     -0.2424         0.027786   
    312. D(C  14,C  15,C  10,C   9)    177.5640         0.027786   
    313. D(H  53,C  16,C   7,H  46)   -177.9042         0.010753   
    314. D(H  53,C  16,C   7,C   8)     63.0782         0.010753   
    315. D(H  53,C  16,C   7,C   6)    -62.0051         0.010753   
    316. D(O  37,C  16,C   7,H  46)     62.4318         0.010753   
    317. D(O  37,C  16,C   7,C   8)    -56.5858         0.010753   
    318. D(O  37,C  16,C   7,C   6)    178.3309         0.010753   
    319. D(H  55,C  17,C   8,H  47)    -41.8912         0.010321   
    320. D(H  55,C  17,C   8,C   9)     74.2921         0.010321   
    321. D(H  55,C  17,C   8,C   7)   -159.1497         0.010321   
    322. D(O  38,C  17,C   8,H  47)   -159.7615         0.010321   
    323. D(O  38,C  17,C   8,C   9)    -43.5782         0.010321   
    324. D(O  38,C  17,C   8,C   7)     82.9801         0.010321   
    325. D(C  34,O  18,C   2,C   3)     -7.2929         0.027302   
    326. D(C  34,O  18,C   2,C   1)    172.7411         0.027302   
    327. D(C  33,O  19,C   0,C   5)     -0.9126         0.030010   
    328. D(C  33,O  19,C   0,C   1)    178.7167         0.030010   
    329. D(C  23,O  20,C   1,C   2)     61.0208         0.030167   
    330. D(C  23,O  20,C   1,C   0)   -123.8090         0.030167   
    331. D(H  57,O  21,C  13,C  14)    175.6213         0.030858   
    332. D(H  57,O  21,C  13,C  12)     -4.4224         0.030858   
    333. D(C  35,O  22,C  12,C  13)    179.5607         0.027415   
    334. D(C  35,O  22,C  12,C  11)     -0.5540         0.027415   
    335. D(H  58,C  23,O  20,C   1)    -54.0296         0.022355   
    336. D(C  26,C  23,O  20,C   1)   -171.7416         0.022355   
    337. D(C  24,C  23,O  20,C   1)     68.7270         0.022355   
    338. D(O  36,C  24,C  23,H  58)    173.6833         0.010000   
    339. D(O  36,C  24,C  23,C  26)    -64.1979         0.010000   
    340. D(O  36,C  24,C  23,O  20)     51.4731         0.010000   
    341. D(C  25,C  24,C  23,H  58)     48.3317         0.010000   
    342. D(C  25,C  24,C  23,C  26)    170.4505         0.010000   
    343. D(C  25,C  24,C  23,O  20)    -73.8785         0.010000   
    344. D(C  32,C  25,C  24,O  36)      0.5288         0.011375   
    345. D(C  32,C  25,C  24,C  23)    123.9969         0.011375   
    346. D(C  28,C  25,C  24,H  59)     62.4204         0.011375   
    347. D(C  28,C  25,C  24,O  36)   -179.8057         0.011375   
    348. D(C  28,C  25,C  24,C  23)    -56.3376         0.011375   
    349. D(H  60,C  26,C  23,H  58)     61.4122         0.010916   
    350. D(H  60,C  26,C  23,C  24)    -61.6082         0.010916   
    351. D(H  60,C  26,C  23,O  20)    179.5545         0.010916   
    352. D(O  27,C  26,C  23,H  58)    -56.8166         0.010916   
    353. D(O  27,C  26,C  23,C  24)   -179.8370         0.010916   
    354. D(O  27,C  26,C  23,O  20)     61.3257         0.010916   
    355. D(H  62,O  27,C  26,H  61)     71.4397         0.022854   
    356. D(H  62,O  27,C  26,H  60)   -169.7669         0.022854   
    357. D(H  62,O  27,C  26,C  23)    -49.6229         0.022854   
    358. D(H  63,C  28,C  25,C  32)    176.2425         0.026520   
    359. D(H  63,C  28,C  25,C  24)     -3.4291         0.026520   
    360. D(C  29,C  28,C  25,C  32)     -4.0016         0.026520   
    361. D(C  29,C  28,C  25,C  24)    176.3268         0.026520   
    362. D(C  30,C  29,C  28,H  63)   -177.8756         0.028936   
    363. D(C  30,C  29,C  28,C  25)      2.3712         0.028936   
    364. D(O  39,C  29,C  28,H  63)      2.0631         0.028936   
    365. D(O  39,C  29,C  28,C  25)   -177.6902         0.028936   
    366. D(O  40,C  30,C  29,O  39)      0.1531         0.024382   
    367. D(O  40,C  30,C  29,C  28)   -179.9020         0.024382   
    368. D(C  31,C  30,C  29,O  39)   -178.8999         0.024382   
    369. D(C  31,C  30,C  29,C  28)      1.0451         0.024382   
    370. D(H  64,C  31,C  30,O  40)     -2.4196         0.028920   
    371. D(H  64,C  31,C  30,C  29)    176.6293         0.028920   
    372. D(C  32,C  31,C  30,O  40)    178.1397         0.028920   
    373. D(C  32,C  31,C  30,C  29)     -2.8115         0.028920   
    374. D(H  65,C  32,C  31,H  64)      0.6292         0.028140   
    375. D(H  65,C  32,C  31,C  30)   -179.9408         0.028140   
    376. D(C  25,C  32,C  31,H  64)   -178.2575         0.028140   
    377. D(C  25,C  32,C  31,C  30)      1.1725         0.028140   
    378. D(H  65,C  32,C  25,C  28)   -176.6665         0.028460   
    379. D(H  65,C  32,C  25,C  24)      2.9990         0.028460   
    380. D(C  31,C  32,C  25,C  28)      2.2260         0.028460   
    381. D(C  31,C  32,C  25,C  24)   -178.1084         0.028460   
    382. D(H  68,C  33,O  19,C   0)     63.2794         0.023731   
    383. D(H  67,C  33,O  19,C   0)    -59.4313         0.023731   
    384. D(H  66,C  33,O  19,C   0)   -178.1255         0.023731   
    385. D(H  71,C  34,O  18,C   2)     64.0684         0.021653   
    386. D(H  70,C  34,O  18,C   2)    -58.5036         0.021653   
    387. D(H  69,C  34,O  18,C   2)   -176.8831         0.021653   
    388. D(H  74,C  35,O  22,C  12)   -179.4771         0.023891   
    389. D(H  73,C  35,O  22,C  12)     61.8316         0.023891   
    390. D(H  72,C  35,O  22,C  12)    -60.8348         0.023891   
    391. D(H  75,O  36,C  24,H  59)   -164.7766         0.023141   
    392. D(H  75,O  36,C  24,C  25)     75.8386         0.023141   
    393. D(H  75,O  36,C  24,C  23)    -48.0878         0.023141   
    394. D(H  76,O  37,C  16,H  54)     55.5254         0.023593   
    395. D(H  76,O  37,C  16,H  53)    172.0981         0.023593   
    396. D(H  76,O  37,C  16,C   7)    -65.8182         0.023593   
    397. D(H  77,O  38,C  17,H  56)     80.4632         0.022771   
    398. D(H  77,O  38,C  17,H  55)   -163.7185         0.022771   
    399. D(H  77,O  38,C  17,C   8)    -43.7457         0.022771   
    400. D(C  41,O  39,C  29,C  30)    174.1786         0.028144   
    401. D(C  41,O  39,C  29,C  28)     -5.7625         0.028144   
    402. D(H  78,O  40,C  30,C  31)   -178.8006         0.029486   
    403. D(H  78,O  40,C  30,C  29)      2.1518         0.029486   
    404. D(H  81,C  41,O  39,C  29)     57.4592         0.023462   
    405. D(H  80,C  41,O  39,C  29)    -64.8143         0.023462   
    406. D(H  79,C  41,O  39,C  29)    175.9633         0.023462   
    -----------------------------------------------------------------

Number of atoms                         .... 82
Number of degrees of freedom            .... 406


         *************************************************************
         *                GEOMETRY OPTIMIZATION CYCLE   1            *
         *************************************************************
---------------------------------
CARTESIAN COORDINATES (ANGSTROEM)
---------------------------------
  C     23.374510  -31.042059   -2.106719
  C     23.338479  -30.148203   -1.027577
  C     22.103091  -29.752261   -0.501552
  C     20.935831  -30.253159   -1.062385
  C     20.973248  -31.107123   -2.153455
  C     22.195853  -31.500079   -2.675805
  C     19.679908  -31.611915   -2.727660
  C     19.118922  -32.782664   -1.896617
  C     17.607819  -32.983035   -2.155488
  C     16.881043  -33.608584   -0.953837
  C     17.106330  -32.931844    0.369142
  C     17.304732  -33.724895    1.498248
  C     17.458344  -33.156942    2.750151
  C     17.421270  -31.760827    2.889985
  C     17.244253  -30.972018    1.768331
  C     17.081173  -31.553941    0.521310
  C     19.986639  -34.021136   -2.161195
  C     17.294497  -33.813157   -3.415600
  O     22.128760  -28.881675    0.551052
  O     24.629783  -31.400765   -2.511109
  O     24.546806  -29.635692   -0.612355
  O     17.559926  -31.194505    4.122197
  O     17.654887  -33.847486    3.926582
  C     24.931829  -29.807953    0.748237
  C     25.231521  -31.302439    1.030501
  C     23.942976  -32.101254    1.097319
  C     26.193342  -28.952324    0.911178
  O     25.930016  -27.598531    0.661174
  C     22.951786  -31.725604    2.000331
  C     21.740815  -32.389596    2.027673
  C     21.530179  -33.481681    1.171947
  C     22.541353  -33.895879    0.326817
  C     23.737922  -33.200070    0.282157
  C     24.755862  -32.317123   -3.571880
  C     20.907093  -28.344200    1.001616
  C     17.694910  -35.252413    3.872058
  O     26.131033  -31.792690    0.076252
  O     19.598670  -35.158717   -1.427460
  O     17.347957  -35.202889   -3.237532
  O     20.677430  -32.078112    2.841588
  O     20.331859  -34.143231    1.192149
  C     20.861212  -31.074399    3.813079
  H     19.975435  -29.968828   -0.664292
  H     22.216928  -32.162913   -3.525300
  H     19.825242  -31.931576   -3.760632
  H     18.954483  -30.796318   -2.726338
  H     19.232109  -32.519778   -0.838556
  H     17.182136  -31.989497   -2.331091
  H     17.172220  -34.655589   -0.868631
  H     15.808792  -33.592860   -1.175028
  H     17.325592  -34.797065    1.380797
  H     17.218228  -29.900728    1.891303
  H     16.922319  -30.918011   -0.335457
  H     19.939607  -34.306018   -3.216073
  H     21.026586  -33.757187   -1.930816
  H     16.268751  -33.603068   -3.735225
  H     17.965905  -33.499065   -4.230932
  H     17.600801  -31.915296    4.766181
  H     24.147531  -29.432187    1.411935
  H     25.744566  -31.371925    1.998463
  H     26.558947  -29.017955    1.937708
  H     26.965052  -29.335325    0.229602
  H     25.456880  -27.555587   -0.179532
  H     23.138301  -30.907151    2.676337
  H     22.385757  -34.769825   -0.285841
  H     24.525715  -33.524417   -0.378934
  H     25.825832  -32.476888   -3.694887
  H     24.270599  -33.269793   -3.337697
  H     24.341305  -31.914611   -4.500760
  H     21.170658  -27.646029    1.795085
  H     20.392075  -27.803511    0.202037
  H     20.243889  -29.118591    1.400317
  H     16.753961  -35.663987    3.495099
  H     18.523529  -35.606298    3.250811
  H     17.847392  -35.581942    4.898566
  H     25.801537  -31.518172   -0.797349
  H     19.753027  -34.971177   -0.488094
  H     18.135216  -35.421767   -2.716194
  H     19.757059  -33.691801    1.829389
  H     19.890800  -30.939392    4.286719
  H     21.600929  -31.380335    4.559294
  H     21.172563  -30.129513    3.361064

----------------------------
CARTESIAN COORDINATES (A.U.)
----------------------------
  NO LB      ZA    FRAG     MASS         X           Y           Z
   0 C     6.0000    0    12.011   44.171423  -58.660990   -3.981122
   1 C     6.0000    0    12.011   44.103333  -56.971847   -1.941838
   2 C     6.0000    0    12.011   41.768790  -56.223625   -0.947796
   3 C     6.0000    0    12.011   39.562987  -57.170186   -2.007617
   4 C     6.0000    0    12.011   39.633695  -58.783943   -4.069439
   5 C     6.0000    0    12.011   41.944083  -59.526523   -5.056539
   6 C     6.0000    0    12.011   37.189637  -59.737861   -5.154530
   7 C     6.0000    0    12.011   36.129526  -61.950256   -3.584087
   8 C     6.0000    0    12.011   33.273955  -62.328903   -4.073281
   9 C     6.0000    0    12.011   31.900548  -63.511020   -1.802491
  10 C     6.0000    0    12.011   32.326279  -62.232166    0.697577
  11 C     6.0000    0    12.011   32.701204  -63.730816    2.831278
  12 C     6.0000    0    12.011   32.991490  -62.657539    5.197032
  13 C     6.0000    0    12.011   32.921430  -60.019265    5.461281
  14 C     6.0000    0    12.011   32.586916  -58.528632    3.341662
  15 C     6.0000    0    12.011   32.278738  -59.628308    0.985133
  16 C     6.0000    0    12.011   37.769273  -64.290630   -4.084067
  17 C     6.0000    0    12.011   32.681863  -63.897606   -6.454548
  18 O     8.0000    0    15.999   41.817296  -54.578455    1.041338
  19 O     8.0000    0    15.999   46.543545  -59.338846   -4.745308
  20 O     8.0000    0    15.999   46.386741  -56.003342   -1.157183
  21 O     8.0000    0    15.999   33.183451  -58.949070    7.789824
  22 O     8.0000    0    15.999   33.362900  -63.962479    7.420165
  23 C     6.0000    0    12.011   47.114330  -56.328868    1.413962
  24 C     6.0000    0    12.011   47.680664  -59.153037    1.947366
  25 C     6.0000    0    12.011   45.245668  -60.662579    2.073632
  26 C     6.0000    0    12.011   49.498243  -54.711962    1.721876
  27 O     8.0000    0    15.999   49.000630  -52.153666    1.249438
  28 C     6.0000    0    12.011   43.372591  -59.952703    3.780078
  29 C     6.0000    0    12.011   41.084185  -61.207466    3.831746
  30 C     6.0000    0    12.011   40.686141  -63.271207    2.214660
  31 C     6.0000    0    12.011   42.596985  -64.053929    0.617595
  32 C     6.0000    0    12.011   44.858171  -62.739040    0.533200
  33 C     6.0000    0    12.011   46.781799  -61.070512   -6.749875
  34 C     6.0000    0    12.011   39.508680  -53.562775    1.892779
  35 C     6.0000    0    12.011   33.438534  -66.617407    7.317129
  36 O     8.0000    0    15.999   49.380495  -60.079477    0.144095
  37 O     8.0000    0    15.999   37.036120  -66.440347   -2.697508
  38 O     8.0000    0    15.999   32.782887  -66.523820   -6.118049
  39 O     8.0000    0    15.999   39.074679  -60.618847    5.369822
  40 O     8.0000    0    15.999   38.421645  -64.521355    2.252835
  41 C     6.0000    0    12.011   39.421977  -58.722105    7.205675
  42 H     1.0000    0     1.008   37.748102  -56.632877   -1.255330
  43 H     1.0000    0     1.008   41.983910  -60.779097   -6.661852
  44 H     1.0000    0     1.008   37.464278  -60.341934   -7.106565
  45 H     1.0000    0     1.008   35.818782  -58.196607   -5.152033
  46 H     1.0000    0     1.008   36.343420  -61.453475   -1.584642
  47 H     1.0000    0     1.008   32.469531  -60.451389   -4.405123
  48 H     1.0000    0     1.008   32.450793  -65.489572   -1.641475
  49 H     1.0000    0     1.008   29.874288  -63.481306   -2.220481
  50 H     1.0000    0     1.008   32.740623  -65.756923    2.609327
  51 H     1.0000    0     1.008   32.537735  -56.504187    3.574045
  52 H     1.0000    0     1.008   31.978549  -58.426574   -0.633922
  53 H     1.0000    0     1.008   37.680396  -64.828979   -6.077497
  54 H     1.0000    0     1.008   39.734488  -63.791839   -3.648714
  55 H     1.0000    0     1.008   30.743485  -63.500596   -7.058551
  56 H     1.0000    0     1.008   33.950639  -63.304059   -7.995303
  57 H     1.0000    0     1.008   33.260693  -60.311169    9.006777
  58 H     1.0000    0     1.008   45.632220  -55.618773    2.668170
  59 H     1.0000    0     1.008   48.650179  -59.284347    3.776547
  60 H     1.0000    0     1.008   50.189136  -54.835988    3.661737
  61 H     1.0000    0     1.008   50.956564  -55.435730    0.433884
  62 H     1.0000    0     1.008   48.106531  -52.072513   -0.339266
  63 H     1.0000    0     1.008   43.725053  -58.406051    5.057544
  64 H     1.0000    0     1.008   42.302950  -65.705448   -0.540162
  65 H     1.0000    0     1.008   46.346884  -63.351966   -0.716081
  66 H     1.0000    0     1.008   48.803750  -61.372425   -6.982325
  67 H     1.0000    0     1.008   45.864786  -62.870798   -6.307333
  68 H     1.0000    0     1.008   45.998401  -60.309874   -8.505204
  69 H     1.0000    0     1.008   40.006745  -52.243423    3.392220
  70 H     1.0000    0     1.008   38.535437  -52.541022    0.381794
  71 H     1.0000    0     1.008   38.255406  -55.026163    2.646216
  72 H     1.0000    0     1.008   31.660397  -67.395167    6.604781
  73 H     1.0000    0     1.008   35.004397  -67.286152    6.143143
  74 H     1.0000    0     1.008   33.726684  -67.240126    9.256947
  75 H     1.0000    0     1.008   48.757838  -59.560713   -1.506772
  76 H     1.0000    0     1.008   37.327811  -66.085947   -0.922363
  77 H     1.0000    0     1.008   34.270591  -66.937439   -5.132862
  78 H     1.0000    0     1.008   37.335431  -63.668277    3.457045
  79 H     1.0000    0     1.008   37.588165  -58.466978    8.100725
  80 H     1.0000    0     1.008   40.819841  -59.300239    8.615817
  81 H     1.0000    0     1.008   40.010345  -56.936527    6.351491

--------------------------------
INTERNAL COORDINATES (ANGSTROEM)
--------------------------------
 C      0   0   0     0.000000000000     0.00000000     0.00000000
 C      1   0   0     1.401722382983     0.00000000     0.00000000
 C      2   1   0     1.399875934664   119.49434782     0.00000000
 C      3   2   1     1.388498789549   119.21399510   359.91388450
 C      4   3   2     1.386032729695   121.16645568   358.23817909
 C      5   4   3     1.386372152598   119.67204009     1.75820578
 C      5   4   3     1.502416144549   118.98782788   180.45169466
 C      7   5   4     1.541425047514   111.24959573   280.02475294
 C      8   7   5     1.546154911222   111.33691265   160.23497060
 C      9   8   7     1.537361276968   112.57478007   207.51136419
 C     10   9   8     1.502998856927   115.71803602    51.41818001
 C     11  10   9     1.393977637224   118.56451855   221.80534886
 C     12  11  10     1.383267415037   121.01638180   182.85378729
 C     13  12  11     1.403589707069   119.71154207   359.68021575
 C     14  13  12     1.382629013969   119.34291889   359.36875711
 C     15  14  13     1.385745946764   120.36606573     1.14032265
 C      8   7   5     1.535170564583   108.30692334   287.32456279
 C      9   8   7     1.541153962745   113.91586129    82.90108009
 O      3   2   1     1.366219374131   116.94663417   179.88146934
 O      1   2   3     1.366715593034   114.75676449   182.28455842
 O      2   1   3     1.376637883726   116.55454534   184.61175105
 O     14  13  12     1.363192071688   120.03927016   179.41186330
 O     13  12  11     1.378213014276   125.63665924   179.80017340
 C     21   2   1     1.424473978692   118.70614743   236.19102416
 C     24  21   2     1.550153967255   110.04539072    68.72700331
 C     25  24  21     1.517536302487   110.56968391   286.12145426
 C     24  21   2     1.532992553120   104.85965266   188.25837889
 O     27  24  21     1.401640182909   111.44031629    61.32573188
 C     26  25  24     1.392480354177   119.40331611   303.66243041
 C     29  26  25     1.381334760236   120.47662521   176.32676402
 C     30  29  26     1.403311293113   119.57738550     2.37116068
 C     31  30  29     1.381404876070   119.77088474     1.04506480
 C     26  25  24     1.383449631331   121.19812891   123.99692497
 C     20   1   2     1.407424618656   118.43536460   178.71667575
 C     19   3   2     1.408672371489   118.24644736   172.74111459
 C     23  13  12     1.406554594971   118.12732399   359.44604580
 O     25  24  21     1.400021252823   109.73694293    51.47305794
 O     17   8   7     1.408182395739   113.96527642   178.33087224
 O     18   9   8     1.402113450004   114.97917096    82.98005448
 O     30  29  26     1.374869871041   125.51167022   182.30979125
 O     31  30  29     1.368951117891   119.89873505   180.09800575
 C     40  30  29     1.408903996723   117.95063878   354.23748481
 H      4   3   2     1.077814063920   120.31331261   179.31178180
 H      6   5   4     1.077698576687   119.24657022   180.10358780
 H      7   5   4     1.091025627845   110.21975603   158.16308934
 H      7   5   4     1.091531535193   108.69893696    40.00827635
 H      8   7   5     1.096089952776   107.49891955    43.25469508
 H      9   8   7     1.095061299402   106.80928525   326.01061252
 H     10   9   8     1.090074832899   109.00433525   288.33829151
 H     10   9   8     1.094940408919   107.40977905   172.82426277
 H     12  11  10     1.078785323728   118.68471140     2.16818268
 H     15  14  13     1.078638570356   118.50455361   180.02310690
 H     16  15  14     1.078745356574   118.97915266   178.62552391
 H     17   8   7     1.093680086518   110.61343171   297.99489590
 H     17   8   7     1.097375845343   107.78357275    55.63165700
 H     18   9   8     1.094738000462   109.01676279   200.85031873
 H     18   9   8     1.101911598213   109.12223338   317.95039767
 H     22  14  13     0.967432710766   107.24606764   355.57759997
 H     24  21   2     1.093992672253   110.13024412   305.97043381
 H     25  24  21     1.097721427199   108.17668505   166.89641457
 H     27  24  21     1.091667685411   109.99802543   179.55453701
 H     27  24  21     1.098531828157   108.51448070   298.83364342
 H     28  27  24     0.965654817304   106.87527328   310.37710200
 H     29  26  25     1.077792992764   119.23670955   356.57090482
 H     32  31  30     1.078583700016   119.00355194   176.62927647
 H     33  26  25     1.078359816621   119.46151134     2.99901647
 H     34  20   1     1.088803139562   105.58796431   181.87454744
 H     34  20   1     1.094487393217   111.45321399   300.56872111
 H     34  20   1     1.093933826620   111.49765548    63.27940551
 H     35  19   3     1.089267404216   105.52763834   183.11690094
 H     35  19   3     1.094035579134   111.28826221   301.49643114
 H     35  19   3     1.094753172495   111.83740529    64.06844612
 H     36  23  13     1.094018486436   111.38610530   299.16523767
 H     36  23  13     1.094436555808   111.50133508    61.83164774
 H     36  23  13     1.088833142291   105.64842136   180.52293997
 H     37  25  24     0.973194271302   107.18966449   311.91217273
 H     38  17   8     0.970260847381   107.72715779   294.18176243
 H     39  18   9     0.969266829305   108.85056861   316.25434606
 H     41  31  30     0.969669014171   107.67471655     2.15177039
 H     42  40  30     1.088236976306   105.79361763   175.96326186
 H     42  40  30     1.094356049106   111.05055475   295.18572196
 H     42  40  30     1.092734292514   111.58951781    57.45922990

---------------------------
INTERNAL COORDINATES (A.U.)
---------------------------
 C      0   0   0     0.000000000000     0.00000000     0.00000000
 C      1   0   0     2.648871419626     0.00000000     0.00000000
 C      2   1   0     2.645382137982   119.49434782     0.00000000
 C      3   2   1     2.623882449529   119.21399510   359.91388450
 C      4   3   2     2.619222271775   121.16645568   358.23817909
 C      5   4   3     2.619863688106   119.67204009     1.75820578
 C      5   4   3     2.839155052379   118.98782788   180.45169466
 C      7   5   4     2.912871195768   111.24959573   280.02475294
 C      8   7   5     2.921809342827   111.33691265   160.23497060
 C      9   8   7     2.905191782365   112.57478007   207.51136419
 C     10   9   8     2.840256219189   115.71803602    51.41818001
 C     11  10   9     2.634235971163   118.56451855   221.80534886
 C     12  11  10     2.613996584397   121.01638180   182.85378729
 C     13  12  11     2.652400150751   119.71154207   359.68021575
 C     14  13  12     2.612790181216   119.34291889   359.36875711
 C     15  14  13     2.618680330575   120.36606573     1.14032265
 C      8   7   5     2.901051935919   108.30692334   287.32456279
 C      9   8   7     2.912358919795   113.91586129    82.90108009
 O      3   2   1     2.581780455966   116.94663417   179.88146934
 O      1   2   3     2.582718173794   114.75676449   182.28455842
 O      2   1   3     2.601468585823   116.55454534   184.61175105
 O     14  13  12     2.576059683423   120.03927016   179.41186330
 O     13  12  11     2.604445151188   125.63665924   179.80017340
 C     21   2   1     2.691865704624   118.70614743   236.19102416
 C     24  21   2     2.929366463523   110.04539072    68.72700331
 C     25  24  21     2.867728009983   110.56968391   286.12145426
 C     24  21   2     2.896936090737   104.85965266   188.25837889
 O     27  24  21     2.648716083998   111.44031629    61.32573188
 C     26  25  24     2.631406516259   119.40331611   303.66243041
 C     29  26  25     2.610344396111   120.47662521   176.32676402
 C     30  29  26     2.651874024623   119.57738550     2.37116068
 C     31  30  29     2.610476895835   119.77088474     1.04506480
 C     26  25  24     2.614340923291   121.19812891   123.99692497
 C     20   1   2     2.659647083399   118.43536460   178.71667575
 C     19   3   2     2.662004994535   118.24644736   172.74111459
 C     23  13  12     2.658002976903   118.12732399   359.44604580
 O     25  24  21     2.645656749505   109.73694293    51.47305794
 O     17   8   7     2.661079074556   113.96527642   178.33087224
 O     18   9   8     2.649610429196   114.97917096    82.98005448
 O     30  29  26     2.598127526047   125.51167022   182.30979125
 O     31  30  29     2.586942703540   119.89873505   180.09800575
 C     40  30  29     2.662442702793   117.95063878   354.23748481
 H      4   3   2     2.036773404097   120.31331261   179.31178180
 H      6   5   4     2.036555164855   119.24657022   180.10358780
 H      7   5   4     2.061739641717   110.21975603   158.16308934
 H      7   5   4     2.062695668053   108.69893696    40.00827635
 H      8   7   5     2.071309828889   107.49891955    43.25469508
 H      9   8   7     2.069365955727   106.80928525   326.01061252
 H     10   9   8     2.059942899659   109.00433525   288.33829151
 H     10   9   8     2.069137505820   107.40977905   172.82426277
 H     12  11  10     2.038608819140   118.68471140     2.16818268
 H     15  14  13     2.038331495458   118.50455361   180.02310690
 H     16  15  14     2.038533292163   118.97915266   178.62552391
 H     17   8   7     2.066755841642   110.61343171   297.99489590
 H     17   8   7     2.073739813679   107.78357275    55.63165700
 H     18   9   8     2.068755009269   109.01676279   200.85031873
 H     18   9   8     2.082311144414   109.12223338   317.95039767
 H     22  14  13     1.828182876346   107.24606764   355.57759997
 H     24  21   2     2.067346543074   110.13024412   305.97043381
 H     25  24  21     2.074392868744   108.17668505   166.89641457
 H     27  24  21     2.062952954678   109.99802543   179.55453701
 H     27  24  21     2.075924304613   108.51448070   298.83364342
 H     28  27  24     1.824823144607   106.87527328   310.37710200
 H     29  26  25     2.036733585383   119.23670955   356.57090482
 H     32  31  30     2.038227805542   119.00355194   176.62927647
 H     33  26  25     2.037804727238   119.46151134     2.99901647
 H     34  20   1     2.057539747527   105.58796431   181.87454744
 H     34  20   1     2.068281430210   111.45321399   300.56872111
 H     34  20   1     2.067235340945   111.49765548    63.27940551
 H     35  19   3     2.058417080576   105.52763834   183.11690094
 H     35  19   3     2.067427625329   111.28826221   301.49643114
 H     35  19   3     2.068783680257   111.83740529    64.06844612
 H     36  23  13     2.067395324811   111.38610530   299.16523767
 H     36  23  13     2.068185361430   111.50133508    61.83164774
 H     36  23  13     2.057596444467   105.64842136   180.52293997
 H     37  25  24     1.839070647863   107.18966449   311.91217273
 H     38  17   8     1.833527280017   107.72715779   294.18176243
 H     39  18   9     1.831648858080   108.85056861   316.25434606
 H     41  31  30     1.832408877333   107.67471655     2.15177039
 H     42  40  30     2.056469854025   105.79361763   175.96326186
 H     42  40  30     2.068033225811   111.05055475   295.18572196
 H     42  40  30     2.064968549995   111.58951781    57.45922990

---------------------
BASIS SET INFORMATION
---------------------
There are 3 groups of distinct atoms

 Group   1 Type C   : 11s6p2d1f contracted to 5s3p2d1f pattern {62111/411/11/1}
 Group   2 Type O   : 11s6p2d1f contracted to 5s3p2d1f pattern {62111/411/11/1}
 Group   3 Type H   : 5s1p contracted to 3s1p pattern {311/1}

Atom   0C    basis set group =>   1
Atom   1C    basis set group =>   1
Atom   2C    basis set group =>   1
Atom   3C    basis set group =>   1
Atom   4C    basis set group =>   1
Atom   5C    basis set group =>   1
Atom   6C    basis set group =>   1
Atom   7C    basis set group =>   1
Atom   8C    basis set group =>   1
Atom   9C    basis set group =>   1
Atom  10C    basis set group =>   1
Atom  11C    basis set group =>   1
Atom  12C    basis set group =>   1
Atom  13C    basis set group =>   1
Atom  14C    basis set group =>   1
Atom  15C    basis set group =>   1
Atom  16C    basis set group =>   1
Atom  17C    basis set group =>   1
Atom  18O    basis set group =>   2
Atom  19O    basis set group =>   2
Atom  20O    basis set group =>   2
Atom  21O    basis set group =>   2
Atom  22O    basis set group =>   2
Atom  23C    basis set group =>   1
Atom  24C    basis set group =>   1
Atom  25C    basis set group =>   1
Atom  26C    basis set group =>   1
Atom  27O    basis set group =>   2
Atom  28C    basis set group =>   1
Atom  29C    basis set group =>   1
Atom  30C    basis set group =>   1
Atom  31C    basis set group =>   1
Atom  32C    basis set group =>   1
Atom  33C    basis set group =>   1
Atom  34C    basis set group =>   1
Atom  35C    basis set group =>   1
Atom  36O    basis set group =>   2
Atom  37O    basis set group =>   2
Atom  38O    basis set group =>   2
Atom  39O    basis set group =>   2
Atom  40O    basis set group =>   2
Atom  41C    basis set group =>   1
Atom  42H    basis set group =>   3
Atom  43H    basis set group =>   3
Atom  44H    basis set group =>   3
Atom  45H    basis set group =>   3
Atom  46H    basis set group =>   3
Atom  47H    basis set group =>   3
Atom  48H    basis set group =>   3
Atom  49H    basis set group =>   3
Atom  50H    basis set group =>   3
Atom  51H    basis set group =>   3
Atom  52H    basis set group =>   3
Atom  53H    basis set group =>   3
Atom  54H    basis set group =>   3
Atom  55H    basis set group =>   3
Atom  56H    basis set group =>   3
Atom  57H    basis set group =>   3
Atom  58H    basis set group =>   3
Atom  59H    basis set group =>   3
Atom  60H    basis set group =>   3
Atom  61H    basis set group =>   3
Atom  62H    basis set group =>   3
Atom  63H    basis set group =>   3
Atom  64H    basis set group =>   3
Atom  65H    basis set group =>   3
Atom  66H    basis set group =>   3
Atom  67H    basis set group =>   3
Atom  68H    basis set group =>   3
Atom  69H    basis set group =>   3
Atom  70H    basis set group =>   3
Atom  71H    basis set group =>   3
Atom  72H    basis set group =>   3
Atom  73H    basis set group =>   3
Atom  74H    basis set group =>   3
Atom  75H    basis set group =>   3
Atom  76H    basis set group =>   3
Atom  77H    basis set group =>   3
Atom  78H    basis set group =>   3
Atom  79H    basis set group =>   3
Atom  80H    basis set group =>   3
Atom  81H    basis set group =>   3
---------------------------------
AUXILIARY/J BASIS SET INFORMATION
---------------------------------
There are 3 groups of distinct atoms

 Group   1 Type C   : 12s5p4d2f1g contracted to 6s4p3d1f1g pattern {711111/2111/211/2/1}
 Group   2 Type O   : 12s5p4d2f1g contracted to 6s4p3d1f1g pattern {711111/2111/211/2/1}
 Group   3 Type H   : 5s2p1d contracted to 3s1p1d pattern {311/2/1}

Atom   0C    basis set group =>   1
Atom   1C    basis set group =>   1
Atom   2C    basis set group =>   1
Atom   3C    basis set group =>   1
Atom   4C    basis set group =>   1
Atom   5C    basis set group =>   1
Atom   6C    basis set group =>   1
Atom   7C    basis set group =>   1
Atom   8C    basis set group =>   1
Atom   9C    basis set group =>   1
Atom  10C    basis set group =>   1
Atom  11C    basis set group =>   1
Atom  12C    basis set group =>   1
Atom  13C    basis set group =>   1
Atom  14C    basis set group =>   1
Atom  15C    basis set group =>   1
Atom  16C    basis set group =>   1
Atom  17C    basis set group =>   1
Atom  18O    basis set group =>   2
Atom  19O    basis set group =>   2
Atom  20O    basis set group =>   2
Atom  21O    basis set group =>   2
Atom  22O    basis set group =>   2
Atom  23C    basis set group =>   1
Atom  24C    basis set group =>   1
Atom  25C    basis set group =>   1
Atom  26C    basis set group =>   1
Atom  27O    basis set group =>   2
Atom  28C    basis set group =>   1
Atom  29C    basis set group =>   1
Atom  30C    basis set group =>   1
Atom  31C    basis set group =>   1
Atom  32C    basis set group =>   1
Atom  33C    basis set group =>   1
Atom  34C    basis set group =>   1
Atom  35C    basis set group =>   1
Atom  36O    basis set group =>   2
Atom  37O    basis set group =>   2
Atom  38O    basis set group =>   2
Atom  39O    basis set group =>   2
Atom  40O    basis set group =>   2
Atom  41C    basis set group =>   1
Atom  42H    basis set group =>   3
Atom  43H    basis set group =>   3
Atom  44H    basis set group =>   3
Atom  45H    basis set group =>   3
Atom  46H    basis set group =>   3
Atom  47H    basis set group =>   3
Atom  48H    basis set group =>   3
Atom  49H    basis set group =>   3
Atom  50H    basis set group =>   3
Atom  51H    basis set group =>   3
Atom  52H    basis set group =>   3
Atom  53H    basis set group =>   3
Atom  54H    basis set group =>   3
Atom  55H    basis set group =>   3
Atom  56H    basis set group =>   3
Atom  57H    basis set group =>   3
Atom  58H    basis set group =>   3
Atom  59H    basis set group =>   3
Atom  60H    basis set group =>   3
Atom  61H    basis set group =>   3
Atom  62H    basis set group =>   3
Atom  63H    basis set group =>   3
Atom  64H    basis set group =>   3
Atom  65H    basis set group =>   3
Atom  66H    basis set group =>   3
Atom  67H    basis set group =>   3
Atom  68H    basis set group =>   3
Atom  69H    basis set group =>   3
Atom  70H    basis set group =>   3
Atom  71H    basis set group =>   3
Atom  72H    basis set group =>   3
Atom  73H    basis set group =>   3
Atom  74H    basis set group =>   3
Atom  75H    basis set group =>   3
Atom  76H    basis set group =>   3
Atom  77H    basis set group =>   3
Atom  78H    basis set group =>   3
Atom  79H    basis set group =>   3
Atom  80H    basis set group =>   3
Atom  81H    basis set group =>   3
--------------------------------------------------------------------------
WARNING: There was an error initializing an OpenFabrics device.

  Local host:   c07b01n02
  Local device: mlx5_0
--------------------------------------------------------------------------
--------------------------------------------------------------------------
WARNING: There is at least one non-excluded one OpenFabrics device found,
but there are no active ports detected (or Open MPI was unable to use
them).  This is most certainly not what you wanted.  Check your
cables, subnet manager configuration, etc.  The openib BTL will be
ignored for this job.

  Local host: c07b01n02
--------------------------------------------------------------------------
[c07b01n02:1534831] 28 more processes have sent help message help-mpi-btl-openib.txt / error in device init
[c07b01n02:1534831] Set MCA parameter "orte_base_help_aggregate" to 0 to see all help / error messages
[c07b01n02:1534831] 4 more processes have sent help message help-mpi-btl-openib.txt / no active ports found
[c07b01n02:1534831] 27 more processes have sent help message help-mpi-btl-openib.txt / error in device init
[c07b01n02:1534831] 3 more processes have sent help message help-mpi-btl-openib.txt / no active ports found


           ************************************************************
           *        Program running with 64 parallel MPI-processes    *
           *              working on a common directory               *
           ************************************************************
------------------------------------------------------------------------------
                             ORCA STARTUP CALCULATIONS
                           -- RI-GTO INTEGRALS CHOSEN --
------------------------------------------------------------------------------
------------------------------------------------------------------------------
                   ___                                                        
                  /   \      - P O W E R E D   B Y -                         
                 /     \                                                     
                 |  |  |   _    _      __       _____    __    __             
                 |  |  |  | |  | |    /  \     |  _  \  |  |  /  |          
                  \  \/   | |  | |   /    \    | | | |  |  | /  /          
                 / \  \   | |__| |  /  /\  \   | |_| |  |  |/  /          
                |  |  |   |  __  | /  /__\  \  |    /   |      \           
                |  |  |   | |  | | |   __   |  |    \   |  |\   \          
                \     /   | |  | | |  |  |  |  | |\  \  |  | \   \       
                 \___/    |_|  |_| |__|  |__|  |_| \__\ |__|  \__/        
                                                                              
                      - O R C A' S   B I G   F R I E N D -                    
                                      &                                       
                       - I N T E G R A L  F E E D E R -                       
                                                                              
 v1 FN, 2020, v2 2021, v3 2022-2024                                           
------------------------------------------------------------------------------


----------------------
SHARK INTEGRAL PACKAGE
----------------------

Number of atoms                             ...     82
Number of basis functions                   ...   1542
Number of shells                            ...    622
Maximum angular momentum                    ...      3
Integral batch strategy                     ... SHARK/LIBINT Hybrid
RI-J (if used) integral strategy            ... SPLIT-RIJ (Revised 2003 algorithm where possible)
Printlevel                                  ...      1
Contraction scheme used                     ... SEGMENTED contraction
Prescreening option                         ... SCHWARTZ
   Thresh                                   ... 2.500e-11
   Tcut                                     ... 2.500e-12
   Tpresel                                  ... 2.500e-12 
Coulomb Range Separation                    ... NOT USED
Exchange Range Separation                   ... NOT USED
Multipole approximations                    ... NOT USED
Finite Nucleus Model                        ... NOT USED
CABS basis                                  ... NOT available
Auxiliary Coulomb fitting basis             ... AVAILABLE
   # of basis functions in Aux-J            ...   2498
   # of shells in Aux-J                     ...    830
   Maximum angular momentum in Aux-J        ...      4
Auxiliary J/K fitting basis                 ... NOT available
Auxiliary Correlation fitting basis         ... NOT available
Auxiliary 'external' fitting basis          ... NOT available

Checking pre-screening integrals            ... done (  2.0 sec) Dimension = 622
   => SHARK Basis and OBASIS are compatible. Storing Pre-screening
Shell pair information
Shell pair cut-off parameter TPreSel        ...   2.5e-12
Total number of shell pairs                 ...    193753
Shell pairs after pre-screening             ...    116244
Total number of primitive shell pairs       ...    584784
Primitive shell pairs kept                  ...    219249
          la=0 lb=0:  32338 shell pairs
          la=1 lb=0:  34722 shell pairs
          la=1 lb=1:   9405 shell pairs
          la=2 lb=0:  15737 shell pairs
          la=2 lb=1:   8662 shell pairs
          la=2 lb=2:   1969 shell pairs
          la=3 lb=0:   7201 shell pairs
          la=3 lb=1:   4032 shell pairs
          la=3 lb=2:   1755 shell pairs
          la=3 lb=3:    423 shell pairs

Checking whether 4 symmetric matrices of dimension 1542 fit in memory
:Max Core in MB      =   6000.00
 MB in use           =    139.31
 MB left             =   5860.69
 MB needed           =     36.31
 Data fit in memory  = YES
Calculating RI/J V-Matrix + Cholesky decomp.... done ( 17.4 sec)
Calculating Nuclear repulsion               ... done (  0.1 sec) ENN=   5764.624991559038 Eh

Diagonalization of the overlap matrix:
Smallest eigenvalue                        ... 3.216e-06
Time for diagonalization                   ...  107.244 sec
Threshold for overlap eigenvalues          ... 1.000e-07
Number of eigenvalues below threshold      ... 0
Time for construction of square roots      ...    2.284 sec
Total time needed                          ...  111.626 sec

-------------------
DFT GRID GENERATION
-------------------

General Integration Accuracy     IntAcc      ... 4.388
Radial Grid Type                 RadialGrid  ... OptM3 with GC (2021)
Angular Grid (max. ang.)         AngularGrid ... 4 (Lebedev-302)
Angular grid pruning method      GridPruning ... 4 (adaptive)
Weight generation scheme         WeightScheme... mBecke (2022)
Basis function cutoff            BFCut       ... 1.0000e-11
Integration weight cutoff        WCut        ... 1.0000e-14
Partially contracted basis set               ... off
Rotationally invariant grid construction     ... off
Angular grids for H and He will be reduced by one unit

Total number of grid points                  ...   373520
Total number of batches                      ...     5880
Average number of points per batch           ...       63
Average number of grid points per atom       ...     4555

--------------------
COSX GRID GENERATION
--------------------

GRIDX 1
-------
General Integration Accuracy     IntAcc      ... 3.816
Radial Grid Type                 RadialGrid  ... OptM3 with GC (2021)
Angular Grid (max. ang.)         AngularGrid ... 1 (Lebedev-50)
Angular grid pruning method      GridPruning ... 4 (adaptive)
Weight generation scheme         WeightScheme... mBecke (2022)
Basis function cutoff            BFCut       ... 1.0000e-11
Integration weight cutoff        WCut        ... 1.0000e-14
Partially contracted basis set               ... on
Rotationally invariant grid construction     ... off
Angular grids for H and He will be reduced by one unit

Total number of grid points                  ...    47290
Total number of batches                      ...      415
Average number of points per batch           ...      113
Average number of grid points per atom       ...      577
UseSFitting                                  ... on

GRIDX 2
-------
General Integration Accuracy     IntAcc      ... 4.020
Radial Grid Type                 RadialGrid  ... OptM3 with GC (2021)
Angular Grid (max. ang.)         AngularGrid ... 2 (Lebedev-110)
Angular grid pruning method      GridPruning ... 4 (adaptive)
[...]
 H     34  20   1     1.092532690522   111.22617354   300.62341383
 H     34  20   1     1.092437418780   111.16783451    62.83046080
 H     35  19   3     1.087535358130   105.92296597   183.24020696
 H     35  19   3     1.092755138478   111.21434555   302.11511325
 H     35  19   3     1.091815362852   111.47453090    64.35785480
 H     36  23  13     1.092910096244   111.15349016   299.43215859
 H     36  23  13     1.092960368813   111.09868655    61.49935347
 H     36  23  13     1.087407475788   106.16422692   180.43028634
 H     37  25  24     0.971070279583   107.39271385   309.92331115
 H     38  17   8     0.969665556199   108.48863134   292.77422199
 H     39  18   9     0.969056757042   109.35135223   317.96750338
 H     41  31  30     0.970833954252   108.54990472     1.92064423
 H     42  40  30     1.085114324891   106.09634752   177.02992886
 H     42  40  30     1.093015095739   110.89015810   296.63865814
 H     42  40  30     1.091077009309   111.06044691    58.51745469

---------------------------
INTERNAL COORDINATES (A.U.)
---------------------------
 C      0   0   0     0.000000000000     0.00000000     0.00000000
 C      1   0   0     2.640992681716     0.00000000     0.00000000
 C      2   1   0     2.640740131892   119.34416330     0.00000000
 C      3   2   1     2.630483952277   119.73489733     1.46348739
 C      4   3   2     2.632916136120   120.74118415   357.97402133
 C      1   2   3     2.628468550440   120.65586813     0.51254116
 C      5   4   3     2.851056248276   118.87629495   178.64247313
 C      7   5   4     2.929259831968   112.81464683   280.10221064
 C      8   7   5     2.936219635421   111.46035154   158.25903612
 C      9   8   7     2.911574740232   113.57168331   213.56166727
 C     10   9   8     2.857377001875   115.62862977    52.42282680
 C     11  10   9     2.645789162305   119.26389807   221.12027310
 C     12  11  10     2.621930534996   120.89671290   182.03662336
 C     13  12  11     2.647669199656   120.09328134   359.69743613
 C     14  13  12     2.613351325607   119.39167698   359.72158858
 C     11  10   9     2.631014810108   122.44162649    42.76560331
 C      8   7   5     2.893536699748   108.17414180   286.06302520
 C      9   8   7     2.909589324013   114.26652225    85.59572976
 O      3   2   1     2.568214835988   116.35553807   180.78561920
 O      1   2   3     2.577420642088   115.25421475   182.00862545
 O      2   1   3     2.601368382236   117.42248481   182.94796379
 O     14  13  12     2.583564996326   120.20983733   180.48864971
 O     13  12  11     2.581947260466   125.65595278   180.40548959
 C     21   2   1     2.722540046646   119.84003577   239.65864520
 C     24  21   2     2.913449683270   110.66668592    69.69032342
 C     25  24  21     2.880794411165   111.76242396   284.36218185
 C     24  21   2     2.872936187238   104.53099717   190.78982885
 O     27  24  21     2.689591189937   111.61477788    60.55677177
 C     26  25  24     2.643101128960   119.15754097   305.85010556
 C     29  26  25     2.614558275780   120.42921807   176.30750453
 C     30  29  26     2.647127625785   119.96740962     1.81511136
 C     31  30  29     2.610305701369   119.80771441     0.78654688
 C     26  25  24     2.623351765325   121.75889273   125.37395264
 C     20   1   2     2.692551402926   118.19372860   176.97922231
 C     19   3   2     2.690721211475   118.21480114   175.36338454
 C     23  13  12     2.690459727863   118.31296766   359.33415393
 O     25  24  21     2.680748126255   110.18812434    50.88695531
 O     17   8   7     2.700793587695   114.72100577   179.72525787
 O     18   9   8     2.697587872510   115.32766871    84.30526361
 O     30  29  26     2.576249530885   125.65194465   182.36567589
 O     31  30  29     2.589304905369   119.76285369   180.45474871
 C     40  30  29     2.691200414892   118.23896013   356.15884973
 H      4   3   2     2.042306945954   120.18597314   178.42644033
 H      6   1   2     2.041070007634   120.51010513   179.45844222
 H      7   5   4     2.066071188964   110.27496992   157.30351668
 H      7   5   4     2.062399338176   108.34924722    40.08334283
 H      8   7   5     2.064393149793   106.79049005    41.63793798
 H      9   8   7     2.065848946505   106.12016682   330.86358428
 H     10   9   8     2.056877486246   109.71950770   288.81155663
 H     10   9   8     2.072341435314   107.26834704   174.15367819
 H     12  11  10     2.043897538061   118.99942680     2.00639380
 H     15  14  13     2.047345717449   118.75378791   180.33230716
 H     16  11  10     2.045646215373   120.09714482   358.30946004
 H     17   8   7     2.063868997253   109.93634963   298.90212776
 H     17   8   7     2.063682217754   108.75992415    56.07224151
 H     18   9   8     2.064060865639   108.98986462   202.77823976
 H     18   9   8     2.072719511564   109.13213287   319.33973653
 H     22  14  13     1.832694491802   108.08912087   355.16024096
 H     24  21   2     2.056596572109   109.98747684   307.64402534
 H     25  24  21     2.067713825648   106.78204098   165.78260447
 H     27  24  21     2.060576110665   109.17685930   178.76946580
 H     27  24  21     2.068294016203   109.24926055   297.40760095
 H     28  27  24     1.827217651756   107.22193215   309.08428811
 H     29  26  25     2.042850155137   119.75475810   357.18897462
 H     32  31  30     2.046719476441   119.05871641   178.14817049
 H     33  26  25     2.041034281130   119.68770171     2.14149121
 H     34  20   1     2.054889469363   106.01945574   181.68051490
 H     34  20   1     2.064587577443   111.22617354   300.62341383
 H     34  20   1     2.064407539942   111.16783451    62.83046080
 H     35  19   3     2.055143987822   105.92296597   183.24020696
 H     35  19   3     2.065007943160   111.21434555   302.11511325
 H     35  19   3     2.063232024599   111.47453090    64.35785480
 H     36  23  13     2.065300770898   111.15349016   299.43215859
 H     36  23  13     2.065395772286   111.09868655    61.49935347
 H     36  23  13     2.054902325218   106.16422692   180.43028634
 H     37  25  24     1.835056885202   107.39271385   309.92331115
 H     38  17   8     1.832402342713   108.48863134   292.77422199
 H     39  18   9     1.831251879035   109.35135223   317.96750338
 H     41  31  30     1.834610295047   108.54990472     1.92064423
 H     42  40  30     2.050568898039   106.09634752   177.02992886
 H     42  40  30     2.065499191188   110.89015810   296.63865814
 H     42  40  30     2.061836738612   111.06044691    58.51745469

--------------------------------------------------------------------------
WARNING: There was an error initializing an OpenFabrics device.

  Local host:   c07b01n02
  Local device: mlx5_0
--------------------------------------------------------------------------
--------------------------------------------------------------------------
WARNING: There is at least one non-excluded one OpenFabrics device found,
but there are no active ports detected (or Open MPI was unable to use
them).  This is most certainly not what you wanted.  Check your
cables, subnet manager configuration, etc.  The openib BTL will be
ignored for this job.

  Local host: c07b01n02
--------------------------------------------------------------------------


           ************************************************************
           *        Program running with 64 parallel MPI-processes    *
           *              working on a common directory               *
           ************************************************************
------------------------------------------------------------------------------
                   ___                                                        
                  /   \      - P O W E R E D   B Y -                         
                 /     \                                                     
                 |  |  |   _    _      __       _____    __    __             
                 |  |  |  | |  | |    /  \     |  _  \  |  |  /  |          
                  \  \/   | |  | |   /    \    | | | |  |  | /  /          
                 / \  \   | |__| |  /  /\  \   | |_| |  |  |/  /          
                |  |  |   |  __  | /  /__\  \  |    /   |      \           
                |  |  |   | |  | | |   __   |  |    \   |  |\   \          
                \     /   | |  | | |  |  |  |  | |\  \  |  | \   \       
                 \___/    |_|  |_| |__|  |__|  |_| \__\ |__|  \__/        
                                                                              
                      - O R C A' S   B I G   F R I E N D -                    
                                      &                                       
                       - I N T E G R A L  F E E D E R -                       
                                                                              
 v1 FN, 2020, v2 2021, v3 2022-2024                                           
------------------------------------------------------------------------------


[c07b01n02:1546760] 56 more processes have sent help message help-mpi-btl-openib.txt / error in device init
[c07b01n02:1546760] Set MCA parameter "orte_base_help_aggregate" to 0 to see all help / error messages
[c07b01n02:1546760] 6 more processes have sent help message help-mpi-btl-openib.txt / no active ports found
----------------------
SHARK INTEGRAL PACKAGE
----------------------

Number of atoms                             ...     82
Number of basis functions                   ...   1542
Number of shells                            ...    622
Maximum angular momentum                    ...      3
Integral batch strategy                     ... SHARK/LIBINT Hybrid
RI-J (if used) integral strategy            ... SPLIT-RIJ (Revised 2003 algorithm where possible)
Printlevel                                  ...      1
Contraction scheme used                     ... SEGMENTED contraction
Prescreening option                         ... SCHWARTZ
   Thresh                                   ... 2.500e-11
   Tcut                                     ... 2.500e-12
   Tpresel                                  ... 2.500e-12 
Coulomb Range Separation                    ... NOT USED
Exchange Range Separation                   ... NOT USED
Multipole approximations                    ... NOT USED
Finite Nucleus Model                        ... NOT USED
CABS basis                                  ... NOT available
Auxiliary Coulomb fitting basis             ... AVAILABLE
   # of basis functions in Aux-J            ...   2498
   # of shells in Aux-J                     ...    830
   Maximum angular momentum in Aux-J        ...      4
Auxiliary J/K fitting basis                 ... NOT available
Auxiliary Correlation fitting basis         ... NOT available
Auxiliary 'external' fitting basis          ... NOT available

Checking pre-screening integrals            ... done (  0.9 sec) Dimension = 622
   => SHARK Basis and OBASIS are compatible. Storing Pre-screening
Shell pair information
Shell pair cut-off parameter TPreSel        ...   2.5e-12
Total number of shell pairs                 ...    193753
Shell pairs after pre-screening             ...    115933
Total number of primitive shell pairs       ...    584784
Primitive shell pairs kept                  ...    218321
          la=0 lb=0:  32288 shell pairs
          la=1 lb=0:  34658 shell pairs
          la=1 lb=1:   9387 shell pairs
          la=2 lb=0:  15696 shell pairs
          la=2 lb=1:   8618 shell pairs
          la=2 lb=2:   1955 shell pairs
          la=3 lb=0:   7155 shell pairs
          la=3 lb=1:   4014 shell pairs
          la=3 lb=2:   1745 shell pairs
          la=3 lb=3:    417 shell pairs

Checking whether 4 symmetric matrices of dimension 1542 fit in memory
:Max Core in MB      =   6000.00
 MB in use           =    157.03
 MB left             =   5842.97
 MB needed           =     36.31
 Data fit in memory  = YES
Calculating RI/J V-Matrix + Cholesky decomp.... done (  9.9 sec)
Calculating Nuclear repulsion               ... done (  0.1 sec) ENN=   5733.700394734495 Eh

Diagonalization of the overlap matrix:
Smallest eigenvalue                        ... 3.434e-06
Time for diagonalization                   ...   76.273 sec
Threshold for overlap eigenvalues          ... 1.000e-07
Number of eigenvalues below threshold      ... 0
Time for construction of square roots      ...    3.515 sec
Total time needed                          ...   80.438 sec

-------------------
DFT GRID GENERATION
-------------------

General Integration Accuracy     IntAcc      ... 4.388
Radial Grid Type                 RadialGrid  ... OptM3 with GC (2021)
Angular Grid (max. ang.)         AngularGrid ... 4 (Lebedev-302)
Angular grid pruning method      GridPruning ... 4 (adaptive)
Weight generation scheme         WeightScheme... mBecke (2022)
Basis function cutoff            BFCut       ... 1.0000e-11
Integration weight cutoff        WCut        ... 1.0000e-14
Partially contracted basis set               ... off
Rotationally invariant grid construction     ... off
Angular grids for H and He will be reduced by one unit

Total number of grid points                  ...   373694
Total number of batches                      ...     5882
Average number of points per batch           ...       63
Average number of grid points per atom       ...     4557

--------------------
COSX GRID GENERATION
--------------------

GRIDX 1
-------
General Integration Accuracy     IntAcc      ... 3.816
Radial Grid Type                 RadialGrid  ... OptM3 with GC (2021)
Angular Grid (max. ang.)         AngularGrid ... 1 (Lebedev-50)
Angular grid pruning method      GridPruning ... 4 (adaptive)
Weight generation scheme         WeightScheme... mBecke (2022)
Basis function cutoff            BFCut       ... 1.0000e-11
Integration weight cutoff        WCut        ... 1.0000e-14
Partially contracted basis set               ... on
Rotationally invariant grid construction     ... off
Angular grids for H and He will be reduced by one unit

Total number of grid points                  ...    47273
Total number of batches                      ...      410
Average number of points per batch           ...      115
Average number of grid points per atom       ...      576
UseSFitting                                  ... on

GRIDX 2
-------
General Integration Accuracy     IntAcc      ... 4.020
Radial Grid Type                 RadialGrid  ... OptM3 with GC (2021)
Angular Grid (max. ang.)         AngularGrid ... 2 (Lebedev-110)
Angular grid pruning method      GridPruning ... 4 (adaptive)
Weight generation scheme         WeightScheme... mBecke (2022)
Basis function cutoff            BFCut       ... 1.0000e-11
Integration weight cutoff        WCut        ... 1.0000e-14
Partially contracted basis set               ... on
Rotationally invariant grid construction     ... off
Angular grids for H and He will be reduced by one unit

Total number of grid points                  ...   100217
Total number of batches                      ...      833
Average number of points per batch           ...      120
Average number of grid points per atom       ...     1222
UseSFitting                                  ... on

GRIDX 3
-------
General Integration Accuracy     IntAcc      ... 4.338
Radial Grid Type                 RadialGrid  ... OptM3 with GC (2021)
Angular Grid (max. ang.)         AngularGrid ... 3 (Lebedev-194)
Angular grid pruning method      GridPruning ... 4 (adaptive)
Weight generation scheme         WeightScheme... mBecke (2022)
Basis function cutoff            BFCut       ... 1.0000e-11
Integration weight cutoff        WCut        ... 1.0000e-14
Partially contracted basis set               ... on
Rotationally invariant grid construction     ... off
Angular grids for H and He will be reduced by one unit

Total number of grid points                  ...   217537
Total number of batches                      ...     1737
Average number of points per batch           ...      125
Average number of grid points per atom       ...     2653
UseSFitting                                  ... on
Grids setup in 135.0 sec
Initializing property integral containers    ... done (  2.8 sec)

SHARK setup successfully completed in 236.2 seconds

Maximum memory used throughout the entire STARTUP-calculation: 220.4 MB
--------------------------------------------------------------------------
WARNING: There was an error initializing an OpenFabrics device.

  Local host:   c07b01n02
  Local device: mlx5_0
--------------------------------------------------------------------------
--------------------------------------------------------------------------
WARNING: There is at least one non-excluded one OpenFabrics device found,
but there are no active ports detected (or Open MPI was unable to use
them).  This is most certainly not what you wanted.  Check your
cables, subnet manager configuration, etc.  The openib BTL will be
ignored for this job.

  Local host: c07b01n02
--------------------------------------------------------------------------
[c07b01n02:1547320] 27 more processes have sent help message help-mpi-btl-openib.txt / error in device init
[c07b01n02:1547320] Set MCA parameter "orte_base_help_aggregate" to 0 to see all help / error messages
[c07b01n02:1547320] 3 more processes have sent help message help-mpi-btl-openib.txt / no active ports found
[c07b01n02:1547320] 15 more processes have sent help message help-mpi-btl-openib.txt / error in device init
[c07b01n02:1547320] 3 more processes have sent help message help-mpi-btl-openib.txt / no active ports found
[c07b01n02:1547320] 13 more processes have sent help message help-mpi-btl-openib.txt / error in device init
[c07b01n02:1547320] 1 more process has sent help message help-mpi-btl-openib.txt / no active ports found


           ************************************************************
           *        Program running with 64 parallel MPI-processes    *
           *              working on a common directory               *
           ************************************************************
Occupation numbers will be reassigned to an Aufbau configuration
             **** ENERGY FILE WAS UPDATED (opt-conf-15.en.tmp) ****
Finished Guess after  48.5 sec
Maximum memory used throughout the entire GUESS-calculation: 240.9 MB
--------------------------------------------------------------------------
mpirun has exited due to process rank 47 with PID 1547365 on
node c07b01n02 exiting improperly. There are three reasons this could occur:

1. this process did not call "init" before exiting, but others in
the job did. This can cause a job to hang indefinitely while it waits
for all processes to call "init". By rule, if one process calls "init",
then ALL processes must call "init" prior to termination.

2. this process called "init", but exited without calling "finalize".
By rule, all processes that call "init" MUST call "finalize" prior to
exiting or it will be considered an "abnormal termination"

3. this process called "MPI_Abort" or "orte_abort" and the mca parameter
orte_create_session_dirs is set to false. In this case, the run-time cannot
detect that the abort call was an abnormal termination. Hence, the only
error message you will receive is this one.

This may have caused other processes in the application to be
terminated by signals sent by mpirun (as reported here).

You can avoid this message by specifying -quiet on the mpirun command line.
--------------------------------------------------------------------------

ORCA finished by error termination in GUESS
Calling Command: mpirun -np 64  /home/jiangy/jiangy_liuxy/lustre1/orca-6.1.0-f.0_linux_x86-64/bin/orca_guess_mpi opt-conf-15.gbw opt-conf-15 
[file orca_tools/qcmsg.cpp, line 394]: 
  .... aborting the run

[file orca_tools/qcmsg.cpp, line 394]: 
  .... aborting the run

