
                                 *****************
                                 * O   R   C   A *
                                 *****************

                                            #,                                       
                                            ###                                      
                                            ####                                     
                                            #####                                    
                                            ######                                   
                                           ########,                                 
                                     ,,################,,,,,                         
                               ,,#################################,,                 
                          ,,##########################################,,             
                       ,#########################################, ''#####,          
                    ,#############################################,,   '####,        
                  ,##################################################,,,,####,       
                ,###########''''           ''''###############################       
              ,#####''   ,,,,##########,,,,          '''####'''          '####       
            ,##' ,,,,###########################,,,                        '##       
           ' ,,###''''                  '''############,,,                           
         ,,##''                                '''############,,,,        ,,,,,,###''
      ,#''                                            '''#######################'''  
     '                                                          ''''####''''         
             ,#######,   #######,   ,#######,      ##                                
            ,#'     '#,  ##    ##  ,#'     '#,    #''#        ,####,    ,#,          
            ##       ##  ##   ,#'  ##            #'  '#       #'       ,# #          
            ##       ##  #######   ##           ,######,      #####,      #          
            '#,     ,#'  ##    ##  '#,     ,#' ,#      #,     #,   #      #          
             '#######'   ##     ##  '#######'  #'      '#     '####' #    #          



                #########################################################
                #                        -***-                          #
                #          Department of theory and spectroscopy        #
                #                                                       #
                #                      Frank Neese                      #
                #                                                       #
                #     Directorship, Architecture, Infrastructure        #
                #                    SHARK, DRIVERS                     #
                #        Core code/Algorithms in most modules           #
                #                                                       #
                #        Max Planck Institute fuer Kohlenforschung      #
                #                Kaiser Wilhelm Platz 1                 #
                #                 D-45470 Muelheim/Ruhr                 #
                #                      Germany                          #
                #                                                       #
                #                  All rights reserved                  #
                #                        -***-                          #
                #########################################################


                         Program Version 6.1.0-f.0  -   RELEASE   -


 With contributions from (in alphabetic order):
[Max-Planck-Institut fuer Kohlenforschung]                               
  Daniel Aravena         : Magnetic Suceptibility                        
  Michael Atanasov       : Ab Initio Ligand Field Theory (pilot matlab implementation)
  Alexander A. Auer      : GIAO ZORA, VPT2 properties, NMR spectrum      
  Ute Becker             : All parallelization in ORCA, NUMFREQ, NUMCALC 
  Giovanni Bistoni       : ED, misc. LED, open-shell LED, HFLD           
  Dmytro Bykov           : pre 5.0 version of the SCF Hessian            
  Marcos Casanova-Páez   : Triplet and SCS-CIS(D). UHF-(DLPNO)-IP/EA/STEOM-CCSD. UHF-CVS-IP/STEOM-CCSD   
  Vijay G. Chilkuri      : MRCI spin determinant printing, contributions to CSF-ICE 
  Pauline Colinet        : FMM embedding                                 
  Dipayan Datta          : RHF DLPNO-CCSD density                        
  Achintya Kumar Dutta   : EOM-CC, STEOM-CC                              
  Nicolas Foglia         : Exact transition moments, OPA infrastructure, MCD improvements    
  Dmitry Ganyushin       : Spin-Orbit,Spin-Spin,Magnetic field MRCI      
  Miquel Garcia-Rates    : C-PCM and meta-GGA Hessian, CCSD/C-PCM, Gaussian charge scheme 
  Tiago L. C. Gouveia    : GS-ROHF, GS-ROCIS                             
  Yang Guo               : DLPNO-NEVPT2, F12-NEVPT2, CIM, IAO-localization        
  Andreas Hansen         : Spin unrestricted coupled pair/coupled cluster methods 
  Ingolf Harden          : AUTO-CI MPn and infrastructure                
  Benjamin Helmich-Paris : MC-RPA, TRAH-(SCF,CASSCF), AVAS, COSX integrals, SCF dyn. polar., MC-PDFT, srDFT 
  Lee Huntington         : MR-EOM, pCC                                   
  Robert Izsak           : Overlap fitted RIJCOSX, COSX-SCS-MP3, EOM     
  Riya Kayal             : Wick's Theorem for AUTO-CI, AUTO-CI UHF-CCSDT 
  Emily Kempfer          : AUTO-CI RHF CISDT and CCSDT, approximate NEVPT4
  Christian Kollmar      : KDIIS, OOCD, Brueckner-CCSD(T), CCSD density, CASPT2, CASPT2-K, improved NEVPT2 
  Axel Koslowski         : Symmetry handling                             
  Simone Kossmann        : meta-GGA functionals, TD-DFT gradient, OOMP2, (MP2 Hessian; deprecated post 5.0) 
  Lucas Lang             : DCDCAS, Hyperfine gauge corrections, ICE-SOC+SSC
  Marvin Lechner         : AUTO-CI (C++ implementation), FIC-MRCC        
  Spencer Leger          : CASSCF response                               
  Dagmar Lenk            : GEPOL surface, SMD, ORCA-2-JSON               
  Dimitrios Liakos       : Extrapolation schemes; Compound Job, Property file
  Dimitrios Manganas     : Further ROCIS development; embedding schemes. LFT, Crystal Embedding 
  Dimitrios Pantazis     : SARC Basis sets                               
  Anastasios Papadopoulos: AUTO-CI, single reference methods and gradients 
  Taras Petrenko         : pre 6.0 DFT Hessian and TD-DFT gradient,  ECA, NRVS 
  Petra Pikulova         : Analytic Raman intensities                    
  Peter Pinski           : DLPNO-MP2, DLPNO-MP2 Gradient                 
  Shashank Vittal Rao    : ES-AILFT, MagRelax                            
  Christoph Reimann      : Effective Core Potentials                     
  Marius Retegan         : Local ZFS, SOC                                
  Christoph Riplinger    : Optimizer, TS searches, QM/MM, DLPNO-CCSD(T), (RO)-DLPNO pert. Triples 
  Michael Roemelt        : Original ROCIS implementation, recursive CI coupling coefficients
  Masaaki Saitow         : Open-shell DLPNO-CCSD energy and density      
  Barbara Sandhoefer     : DKH picture change effects                    
  Yorick L. A. Schmerwitz: GMF and freeze-and-release deltaSCF, NEB S-IDPP initial path                    
  Kantharuban Sivalingam : CASSCF convergence/infrastructure, NEVPT2, NEVPT3, NEVPT4(SD), FIC-MRCI and CEPA variants
  Bernardo de Souza      : ESD, SOC TD-DFT                               
  Georgi L. Stoychev     : AutoAux, RI-MP2 NMR, DLPNO-MP2 response, X2C  
  Van Anh Tran           : RI-MP2 g-tensors                              
  Willem Van den Heuvel  : Paramagnetic NMR                              
  Zikuan Wang            : NOTCH, Electric field optimization            
  Frank Wennmohs         : Technical directorship and infrastructure     
  Hang Xu                : AUTO-CI-Response properties                   
                                                                         
[FACCTs GmbH]                                                            
  Markus Bursch, Nicolas Foglia, Miquel Garcia-Rates, Ingolf Harden, Hagen Neugebauer, Anastasios Papadopoulos, 
  Christoph Riplinger, Bernardo de Souza, Georgi L. Stoychev                                                    
                                                                 
  APM, various basis sets, CI-OPT, improved COSX, DLPNO-Multilevel,           
  DOCKER, DRACO, updates on ESD, Fragmentator, GOAT, IRC, LR-CPCM, L-BFGS, MBIS, meta-GGA TD-DFT gradient, ML-optimized integration grids, 
  MM, NACMEs, nearIR, NEB, NEB-TS, NL-DFT gradient (VV10), 2- and 3-layer-ONIOM, interface openCOSMO-RS, QMMM,   
  Crystal-QMMM, RESP, rigid body optimization, SF, symmetry and pop. for TD-DFT, various functionals, SOLVATOR                                   
                                                                         
[Other institutions]                                                     
  V. Asgeirsson          : NEB                                           
  Christoph Bannwarth    : sTDA-DFT, sTD-DFT, PBEh-3c, B97-3c, D3        
  Giovanni Bistoni       : ETS/NOCV, ADLD/ADEX, COVALED                  
  Martin Brehm           : Molecular dynamics                            
  Ronald Cardenas        : ETS/NOCV                                      
  Martina Colucci        : COVALED                                       
  Sebastian Ehlert       : rSCAN, r2SCAN, r2SCAN-3c, D4, dhf basis sets  
  Marvin Friede          : D4 for Fr, Ra, Ac-Lr                          
  Lars Goerigk           : TD-DFT with DH, B97 family of functionals     
  Stefan Grimme          : VdW corrections, initial TS optimization, DFT functionals, gCP, sTDA/sTD-DF 
  Waldemar Hujo          : DFT-NL                                        
  H. Jonsson             : NEB                                           
  Holger Kruse           : gCP                                           
  Marcel Mueller         : wB97X-3c, vDZP basis set                      
  Hagen Neugebauer       : wr2SCAN, Native XTB                           
  Gianluca Regni         : ADLD/ADEX                                     
  Tobias Risthaus        : pre 6.0 range-separated hybrid DFT and stability analysis
  Lukas Wittmann         : regularized MP2, r2SCAN double-hybrids, wr2SCAN        
                                                                         
We gratefully acknowledge several colleagues who have allowed us to      
interface, adapt or use parts of their codes:                            
  Ed Valeev, F. Pavosevic, A. Kumar             : LibInt (2-el integral package), F12 methods 
  Garnet Chan, S. Sharma, J. Yang, R. Olivares  : DMRG                   
  Ulf Ekstrom                                   : XCFun DFT Library      
  Mihaly Kallay                                 : mrcc  (arbitrary order and MRCC methods)
  Frank Weinhold                                : gennbo (NPA and NBO analysis)           
  Simon Mueller                                 : openCOSMO-RS                            
  Christopher J. Cramer and Donald G. Truhlar   : smd solvation model                     
  S Lehtola, MJT Oliveira, MAL Marques          : LibXC Library                           
  Liviu Ungur et al                             : ANISO software                          


 Your calculation uses the libint2 library for the computation of 2-el integrals
 For citations please refer to: http://libint.valeyev.net

 Your ORCA version has been built with support for libXC version: 7.0.0
 For citations please refer to: https://libxc.gitlab.io

 This ORCA versions uses:
   CBLAS   interface :  Fast vector & matrix operations
   LAPACKE interface :  Fast linear algebra routines
   SCALAPACK package :  Parallel linear algebra routines
   Shared memory     :  Shared parallel matrices
   BLAS/LAPACK       :  OpenBLAS 0.3.29  USE64BITINT DYNAMIC_ARCH NO_AFFINITY Cooperlake SINGLE_THREADED
        Core in use  :  Cooperlake
   Copyright (c) 2011-2014, The OpenBLAS Project


  ***********************************
  * Starting time: Wed Mar  4 13:49:25 2026
  * Host name:     c02b01n07
  * Process ID:    3128569
  * Working dir.:  /lustre1/jiangy/jiangy_liuxy/NMR/B9D7C2-RSSR-NMR/opt_conf
  ***********************************

NOTE: MaxCore=5000 MB was set to SCF,MP2,MDCI,CIPSI,MRCI,RASCI and CIS
      => If you want to overwrite this, your respective input block should be placed after the MaxCore statement


***************************************
The coordinates will be read from file: opt-conf-3.xyz
***************************************



Warning: The global flag for NMR shieldings has been found
         but shieldings for certain elements have also been explicitly requested in the EPRNMR block
         ==>> only the requested shieldings will be calculated

================================================================================

----- Orbital basis set information -----
Your calculation utilizes the basis: pcSseg-2
   F. Jensen, J. Chem. Theory Comput. 11, 132 (2015).

----- AuxJ basis set information -----
Your calculation utilizes the AutoAux generation procedure.
  G. L. Stoychev, A. A. Auer, F. Neese, J. Chem. Theory Comput. 13, 554 (2017)

----- AuxC basis set information -----
Your calculation utilizes the AutoAux generation procedure.
  G. L. Stoychev, A. A. Auer, F. Neese, J. Chem. Theory Comput. 13, 554 (2017)

----- AuxJK basis set information -----
Your calculation utilizes the AutoAux generation procedure.
  G. L. Stoychev, A. A. Auer, F. Neese, J. Chem. Theory Comput. 13, 554 (2017)

----- AuxX basis set information -----
Your calculation utilizes the AutoAux generation procedure.
  G. L. Stoychev, A. A. Auer, F. Neese, J. Chem. Theory Comput. 13, 554 (2017)

================================================================================
                                        WARNINGS
                       Please study these warnings very carefully!
================================================================================


================================================================================
                                       INPUT FILE
================================================================================
NAME = nmr-conf-3.inp
|  1> !TPSS PCSSEG-2 AUTOAUX NMR CPCM(Methanol)
|  2> 
|  3> %pal nprocs 60 end
|  4> %maxcore 5000
|  5> 
|  6> *XYZFILE 0 1 opt-conf-3.xyz
|  7> 
|  8> %EPRNMR
|  9>    NUCLEI = ALL C {SHIFT}
| 10>    NUCLEI = ALL H {SHIFT}
| 11>    TAU DOBSON
| 12> END
| 13> 
| 14> 
| 15>                          ****END OF INPUT****
================================================================================

                       ****************************
                       * Single Point Calculation *
                       ****************************

---------------------------------
CARTESIAN COORDINATES (ANGSTROEM)
---------------------------------
  C     21.402008  -31.957849   -1.652807
  C     20.952582  -32.131636   -2.967363
  C     19.580231  -32.234907   -3.211842
  C     18.676114  -32.241477   -2.149277
  C     19.130614  -32.111671   -0.841538
  C     20.493283  -31.954799   -0.598684
  C     18.172959  -32.152103    0.322677
  C     18.312175  -33.435152    1.167753
  C     17.771189  -33.288108    2.605246
  C     18.765355  -32.536237    3.513704
  C     20.148219  -33.136663    3.573240
  C     20.320727  -34.493951    3.871806
  C     21.588480  -35.048302    3.931345
  C     22.721351  -34.245775    3.721173
  C     22.557948  -32.908616    3.414688
  C     21.276809  -32.362064    3.335323
  C     17.728534  -34.638363    0.425426
  C     16.409690  -32.602201    2.724403
  O     19.216691  -32.333430   -4.520591
  O     22.742069  -31.801455   -1.498518
  O     21.870046  -32.119688   -3.990264
  O     23.972947  -34.781034    3.818512
  O     21.868045  -36.364346    4.173333
  C     21.990823  -33.296646   -4.812426
  C     22.907498  -34.323488   -4.127245
  C     22.361350  -34.886801   -2.841395
  C     22.557968  -32.789203   -6.137505
  O     22.498052  -33.762482   -7.173151
  C     23.180982  -34.929164   -1.712535
  C     22.702811  -35.433306   -0.513113
  C     21.387541  -35.910882   -0.438695
  C     20.581977  -35.903008   -1.562927
  C     21.066025  -35.387328   -2.759676
  C     23.246604  -31.669887   -0.172795
  C     17.833207  -32.482462   -4.829983
  C     20.783928  -37.240745    4.482494
  O     23.228779  -35.386045   -5.060728
  O     18.032861  -35.884442    1.058213
  O     15.347576  -33.256061    2.023509
  O     23.402526  -35.508106    0.652921
  O     20.897575  -36.389751    0.745413
  C     24.799165  -35.210369    0.620559
  H     17.617292  -32.345396   -2.334274
  H     20.839324  -31.844831    0.418397
  H     17.147074  -32.055068   -0.040149
  H     18.363438  -31.286270    0.961279
  H     19.382974  -33.636091    1.262091
  H     17.656241  -34.299577    3.007759
  H     18.341967  -32.502063    4.523391
  H     18.850557  -31.496814    3.185530
  H     19.455137  -35.117298    4.043333
  H     23.435233  -32.298617    3.239081
  H     21.163554  -31.313919    3.086558
  H     16.642203  -34.573889    0.385495
  H     18.102824  -34.639887   -0.602939
  H     16.154331  -32.512365    3.786757
  H     16.450337  -31.591656    2.314591
  H     23.887575  -35.724268    4.023328
  H     21.008950  -33.730739   -5.000483
  H     23.860042  -33.830655   -3.925366
  H     23.586861  -32.438768   -5.983308
  H     21.956402  -31.939122   -6.460394
  H     22.901863  -34.565827   -6.806244
  H     24.186788  -34.539619   -1.774467
  H     19.574291  -36.290538   -1.492796
  H     20.411485  -35.367109   -3.621189
  H     24.326941  -31.595622   -0.271091
  H     22.859171  -30.768707    0.309179
  H     22.992652  -32.539226    0.436447
  H     17.425934  -33.394621   -4.387319
  H     17.256916  -31.621183   -4.483749
  H     17.777638  -32.546656   -5.913977
  H     21.229146  -38.216633    4.657756
  H     20.258959  -36.905212    5.379762
  H     20.081909  -37.299778    3.648031
  H     22.533229  -36.055873   -5.009411
  H     18.995309  -36.010407    1.043962
  H     15.241104  -34.141728    2.392687
  H     21.588864  -36.319954    1.422325
  H     25.312539  -35.860537   -0.091538
  H     24.969552  -34.166304    0.351962
  H     25.162528  -35.389876    1.627059

----------------------------
CARTESIAN COORDINATES (A.U.)
----------------------------
  NO LB      ZA    FRAG     MASS         X           Y           Z
   0 C     6.0000    0    12.011   40.443934  -60.391583   -3.123352
   1 C     6.0000    0    12.011   39.594642  -60.719992   -5.607504
   2 C     6.0000    0    12.011   37.001274  -60.915147   -6.069502
   3 C     6.0000    0    12.011   35.292740  -60.927561   -4.061545
   4 C     6.0000    0    12.011   36.151621  -60.682263   -1.590277
   5 C     6.0000    0    12.011   38.726692  -60.385818   -1.131348
   6 C     6.0000    0    12.011   34.341915  -60.758668    0.609770
   7 C     6.0000    0    12.011   34.604996  -63.183280    2.206734
   8 C     6.0000    0    12.011   33.582681  -62.905407    4.923202
   9 C     6.0000    0    12.011   35.461383  -61.484578    6.639938
  10 C     6.0000    0    12.011   38.074615  -62.619219    6.752445
  11 C     6.0000    0    12.011   38.400609  -65.184121    7.316652
  12 C     6.0000    0    12.011   40.796315  -66.231693    7.429166
  13 C     6.0000    0    12.011   42.937131  -64.715135    7.031998
  14 C     6.0000    0    12.011   42.628345  -62.188271    6.452824
  15 C     6.0000    0    12.011   40.207342  -61.155437    6.302847
  16 C     6.0000    0    12.011   33.502075  -65.457019    0.803938
  17 C     6.0000    0    12.011   31.009820  -61.609232    5.148376
  18 O     8.0000    0    15.999   36.314283  -61.101327   -8.542679
  19 O     8.0000    0    15.999   42.976283  -60.096040   -2.831789
  20 O     8.0000    0    15.999   41.328398  -60.697414   -7.540506
  21 O     8.0000    0    15.999   45.302305  -65.726629    7.215942
  22 O     8.0000    0    15.999   41.324616  -68.718656    7.886456
  23 C     6.0000    0    12.011   41.556634  -62.921542   -9.094167
  24 C     6.0000    0    12.011   43.288897  -64.861993   -7.799362
  25 C     6.0000    0    12.011   42.256828  -65.926500   -5.369458
  26 C     6.0000    0    12.011   42.628382  -61.962613  -11.598204
  27 O     8.0000    0    15.999   42.515157  -63.801845  -13.555291
  28 C     6.0000    0    12.011   43.805707  -66.006554   -3.236222
  29 C     6.0000    0    12.011   42.902095  -66.959244   -0.969644
  30 C     6.0000    0    12.011   40.416596  -67.861733   -0.829014
  31 C     6.0000    0    12.011   38.894299  -67.846853   -2.953505
  32 C     6.0000    0    12.011   39.809018  -66.872359   -5.215033
  33 C     6.0000    0    12.011   43.929716  -59.847412   -0.326535
  34 C     6.0000    0    12.011   33.699878  -61.382958   -9.127346
  35 C     6.0000    0    12.011   39.275932  -70.374809    8.470685
  36 O     8.0000    0    15.999   43.896031  -66.869934   -9.563390
  37 O     8.0000    0    15.999   34.077168  -67.811768    1.999733
  38 O     8.0000    0    15.999   29.002716  -62.844848    3.823877
  39 O     8.0000    0    15.999   44.224365  -67.100596    1.233842
  40 O     8.0000    0    15.999   39.490694  -68.766663    1.408627
  41 C     6.0000    0    12.011   46.863631  -66.537955    1.172686
  42 H     1.0000    0     1.008   33.291858  -61.123940   -4.411138
  43 H     1.0000    0     1.008   39.380616  -60.178010    0.790655
  44 H     1.0000    0     1.008   32.403274  -60.575300   -0.075871
  45 H     1.0000    0     1.008   34.701869  -59.122481    1.816555
  46 H     1.0000    0     1.008   36.628512  -63.563001    2.385006
  47 H     1.0000    0     1.008   33.365460  -64.816807    5.683841
  48 H     1.0000    0     1.008   34.661295  -61.419998    8.547969
  49 H     1.0000    0     1.008   35.622389  -59.520353    6.019778
  50 H     1.0000    0     1.008   36.764881  -66.362076    7.640792
  51 H     1.0000    0     1.008   44.286172  -61.035541    6.120975
  52 H     1.0000    0     1.008   39.993321  -59.174730    5.832749
  53 H     1.0000    0     1.008   31.449205  -65.335181    0.728479
  54 H     1.0000    0     1.008   34.209380  -65.459899   -1.139390
  55 H     1.0000    0     1.008   30.527261  -61.439466    7.155934
  56 H     1.0000    0     1.008   31.086632  -59.699578    4.373943
  57 H     1.0000    0     1.008   45.140975  -67.509083    7.602988
  58 H     1.0000    0     1.008   39.701161  -63.741859   -9.449543
  59 H     1.0000    0     1.008   45.088945  -63.930673   -7.417866
  60 H     1.0000    0     1.008   44.572707  -61.300387  -11.306813
  61 H     1.0000    0     1.008   41.491586  -60.356194  -12.208375
  62 H     1.0000    0     1.008   43.278250  -65.319947  -12.861936
  63 H     1.0000    0     1.008   45.706405  -65.270421   -3.353258
  64 H     1.0000    0     1.008   36.990050  -68.579178   -2.820975
  65 H     1.0000    0     1.008   38.572117  -66.834150   -6.843055
  66 H     1.0000    0     1.008   45.971257  -59.707073   -0.512288
  67 H     1.0000    0     1.008   43.197573  -58.144430    0.584263
  68 H     1.0000    0     1.008   43.449815  -61.490225    0.824766
  69 H     1.0000    0     1.008   32.930242  -63.106687   -8.290832
  70 H     1.0000    0     1.008   32.610845  -59.755376   -8.473058
  71 H     1.0000    0     1.008   33.594867  -61.504267  -11.175798
  72 H     1.0000    0     1.008   40.117272  -72.218970    8.801883
  73 H     1.0000    0     1.008   38.283885  -69.740743   10.166277
  74 H     1.0000    0     1.008   37.949308  -70.486365    6.893780
  75 H     1.0000    0     1.008   42.581632  -68.135726   -9.466414
  76 H     1.0000    0     1.008   35.895932  -68.049807    1.972802
  77 H     1.0000    0     1.008   28.801513  -64.518516    4.521523
  78 H     1.0000    0     1.008   40.797040  -68.634767    2.687805
  79 H     1.0000    0     1.008   47.833766  -67.766594   -0.172983
  80 H     1.0000    0     1.008   47.185616  -64.564958    0.665111
  81 H     1.0000    0     1.008   47.550286  -66.877173    3.074696

--------------------------------
INTERNAL COORDINATES (ANGSTROEM)
--------------------------------
 C      0   0   0     0.000000000000     0.00000000     0.00000000
 C      1   0   0     1.400087512816     0.00000000     0.00000000
 C      2   1   0     1.397777639630   119.24537622     0.00000000
 C      3   2   1     1.395175964840   120.22404618   356.35401292
 C      4   3   2     1.390539747148   120.26497877     1.61563888
 C      1   2   3     1.391749012225   120.12040466     3.13880365
 C      5   4   3     1.508023567839   121.06275704   181.59300333
 C      7   5   4     1.542644473871   112.82434489   109.75776346
 C      8   7   5     1.542942877123   113.54476475   158.17441675
 C      9   8   7     1.542391044805   111.66628059   281.65372503
 C     10   9   8     1.508763333061   114.83611130   304.49104416
 C     11  10   9     1.400403707881   120.46588152   307.89531949
 C     12  11  10     1.384936039410   120.65557358   180.19070665
 C     13  12  11     1.404143828800   120.22069230     1.41322787
 C     14  13  12     1.381530847016   119.40404757   358.04332717
 C     11  10   9     1.389361446553   121.05739348   127.92340828
 C      8   7   5     1.529510485728   110.73067512   286.76043777
 C      9   8   7     1.529165258019   115.31028374    45.43838607
 O      3   2   1     1.361870486625   115.81800308   176.75808720
 O      1   2   3     1.357950007899   115.95997494   183.03365382
 O      2   1   3     1.374121081449   118.91598749   176.33884246
 O     14  13  12     1.364723441819   120.33700017   178.04674663
 O     13  12  11     1.366999003466   125.46236636   182.08818630
 C     21   2   1     1.440752481899   118.27214554   119.63975095
 C     24  21   2     1.537585980515   109.95218699   277.01517972
 C     25  24  21     1.506322346710   114.45551969    65.61318825
 C     24  21   2     1.528066458659   104.75446677   155.59725233
 O     27  24  21     1.422471756514   112.86094287   191.89437429
 C     26  25  24     1.395677135065   119.26626229   228.28305276
 C     29  26  25     1.386152454433   120.55219180   179.54424063
 C     30  29  26     1.401267754349   119.58405453     0.37626828
 C     31  30  29     1.383073995785   120.10528529     1.28621834
 C     32  31  30     1.390121175121   119.93917262   358.26858391
 C     20   1   2     1.424572774999   117.76664747   182.21049033
 C     19   3   2     1.425468788980   118.37385829   178.11898239
 C     23  13  12     1.427923034251   118.29017600   355.46983344
 O     25  24  21     1.450393195424   109.54249041   190.79229562
 O     17   8   7     1.430296737239   112.91920304   169.99105563
 O     18   9   8     1.430689132710   114.69629491    59.38250448
 O     30  29  26     1.361922213234   125.70246303   180.89770721
 O     31  30  29     1.368025914828   120.09555751   181.10709955
 C     40  30  29     1.428389637426   118.13197944   351.29095188
 H      4   3   2     1.079873030690   120.35649162   181.49676728
 H      6   1   2     1.079949173429   120.28641774   178.52133270
 H      7   5   4     1.092473222224   109.72797467   346.83916905
 H      7   5   4     1.092594495225   108.61884737   230.54109419
 H      8   7   5     1.093565654855   106.76517492    41.38065135
 H      9   8   7     1.094668792112   106.93776834   164.25693774
 H     10   9   8     1.095396297121   107.99789855   182.27878147
 H     10   9   8     1.093324135649   109.68658739    67.08241358
 H     12  11  10     1.080383922675   119.62747248     1.07229551
 H     15  14  13     1.082849912472   119.03787822   180.91429824
 H     16  11  10     1.083198342712   119.59562616   358.95920384
 H     17   8   7     1.088975809927   110.60243704   288.92377940
 H     17   8   7     1.094362835388   109.06584040    47.39532153
 H     18   9   8     1.096300782802   108.64206156   182.69669726
 H     18   9   8     1.091237517786   110.66804585   300.20902957
 H     22  14  13     0.968983227566   108.42500715     0.94757399
 H     24  21   2     1.089898297057   110.38366709    39.00929509
 H     25  24  21     1.091320405974   107.53046394   304.22149375
 H     27  24  21     1.097816329961   109.39351770    67.64609335
 H     27  24  21     1.090310196211   108.11582797   310.21046700
 H     28  27  24     0.971106228601   105.86804490   308.70505615
 H     29  26  25     1.080382889512   119.30225610     1.18987552
 H     32  31  30     1.081909320377   119.19325092   178.98289282
 H     33  32  31     1.082143421236   118.79587453   181.54593466
 H     34  20   1     1.087338532607   105.90631265   177.87621556
 H     34  20   1     1.092944347045   111.16111029   296.86751332
 H     34  20   1     1.091521121814   111.31358534    58.78309075
 H     35  19   3     1.092637282472   111.16855175   299.26075727
 H     35  19   3     1.092607868843   111.14423938    61.45173459
 H     35  19   3     1.087313958624   105.79269715   180.34765667
 H     36  23  13     1.086873230964   105.96162666   181.25559040
 H     36  23  13     1.092366937334   110.74364315   300.37952472
 H     36  23  13     1.092081731491   110.84195201    62.23928514
 H     37  25  24     0.967002253669   108.29889031   273.04987093
 H     38  17   8     0.970761229889   108.51185520   296.72414658
 H     39  18   9     0.965419462153   108.28869417    61.27325516
 H     41  31  30     0.970031729731   108.87985498     0.29428866
 H     42  40  30     1.092406711558   110.50024986   302.93509488
 H     42  40  30     1.091443117786   110.95357845    64.72336517
 H     42  40  30     1.085033278860   105.77979169   183.41918572

---------------------------
INTERNAL COORDINATES (A.U.)
---------------------------
 C      0   0   0     0.000000000000     0.00000000     0.00000000
 C      1   0   0     2.645781962745     0.00000000     0.00000000
 C      2   1   0     2.641416935020   119.24537622     0.00000000
 C      3   2   1     2.636500482177   120.22404618   356.35401292
 C      4   3   2     2.627739300442   120.26497877     1.61563888
 C      1   2   3     2.630024480261   120.12040466     3.13880365
 C      5   4   3     2.849751546715   121.06275704   181.59300333
 C      7   5   4     2.915175577623   112.82434489   109.75776346
 C      8   7   5     2.915739478047   113.54476475   158.17441675
 C      9   8   7     2.914696666094   111.66628059   281.65372503
 C     10   9   8     2.851149500388   114.83611130   304.49104416
 C     11  10   9     2.646379484823   120.46588152   307.89531949
 C     12  11  10     2.617149827482   120.65557358   180.19070665
 C     13  12  11     2.653447289068   120.22069230     1.41322787
 C     14  13  12     2.610714946425   119.40404757   358.04332717
 C     11  10   9     2.625512635015   121.05739348   127.92340828
 C      8   7   5     2.890355936986   110.73067512   286.76043777
 C      9   8   7     2.889703551162   115.31028374    45.43838607
 O      3   2   1     2.573562249591   115.81800308   176.75808720
 O      1   2   3     2.566153618486   115.95997494   183.03365382
 O      2   1   3     2.596712518786   118.91598749   176.33884246
 O     14  13  12     2.578953553581   120.33700017   178.04674663
 O     13  12  11     2.583253741894   125.46236636   182.08818630
 C     21   2   1     2.722627617557   118.27214554   119.63975095
 C     24  21   2     2.905616410530   109.95218699   277.01517972
 C     25  24  21     2.846536704687   114.45551969    65.61318825
 C     24  21   2     2.887627121296   104.75446677   155.59725233
 O     27  24  21     2.688082053049   112.86094287   191.89437429
 C     26  25  24     2.637447556649   119.26626229   228.28305276
 C     29  26  25     2.619448518741   120.55219180   179.54424063
 C     30  29  26     2.648012296015   119.58405453     0.37626828
 C     31  30  29     2.613631074981   120.10528529     1.28621834
 C     32  31  30     2.626948313944   119.93917262   358.26858391
 C     20   1   2     2.692052402588   117.76664747   182.21049033
 C     19   3   2     2.693745623624   118.37385829   178.11898239
 C     23  13  12     2.698383475053   118.29017600   355.46983344
 O     25  24  21     2.740845925854   109.54249041   190.79229562
 O     17   8   7     2.702869123624   112.91920304   169.99105563
 O     18   9   8     2.703610643600   114.69629491    59.38250448
 O     30  29  26     2.573659998716   125.70246303   180.89770721
 O     31  30  29     2.585194323132   120.09555751   181.10709955
 C     40  30  29     2.699265227266   118.13197944   351.29095188
 H      4   3   2     2.040664287412   120.35649162   181.49676728
 H      6   1   2     2.040808176335   120.28641774   178.52133270
 H      7   5   4     2.064475198645   109.72797467   346.83916905
 H      7   5   4     2.064704371405   108.61884737   230.54109419
 H      8   7   5     2.066539597138   106.76517492    41.38065135
 H      9   8   7     2.068624224442   106.93776834   164.25693774
 H     10   9   8     2.069999009670   107.99789855   182.27878147
 H     10   9   8     2.066083191983   109.68658739    67.08241358
 H     12  11  10     2.041629733347   119.62747248     1.07229551
 H     15  14  13     2.046289778713   119.03787822   180.91429824
 H     16  11  10     2.046948216444   119.59562616   358.95920384
 H     17   8   7     2.057866047227   110.60243704   288.92377940
 H     17   8   7     2.068046050025   109.06584040    47.39532153
 H     18   9   8     2.071708239900   108.64206156   182.69669726
 H     18   9   8     2.062140055675   110.66804585   300.20902957
 H     22  14  13     1.831112928462   108.42500715     0.94757399
 H     24  21   2     2.059609295265   110.38366709    39.00929509
 H     25  24  21     2.062296691650   107.53046394   304.22149375
 H     27  24  21     2.074572208973   109.39351770    67.64609335
 H     27  24  21     2.060387671860   108.11582797   310.21046700
 H     28  27  24     1.835124819001   105.86804490   308.70505615
 H     29  26  25     2.041627780953   119.30225610     1.18987552
 H     32  31  30     2.044512317249   119.19325092   178.98289282
 H     33  32  31     2.044954703762   118.79587453   181.54593466
 H     34  20   1     2.054772041487   105.90631265   177.87621556
 H     34  20   1     2.065365495533   111.16111029   296.86751332
 H     34  20   1     2.062675989618   111.31358534    58.78309075
 H     35  19   3     2.064785227583   111.16855175   299.26075727
 H     35  19   3     2.064729643880   111.14423938    61.45173459
 H     35  19   3     2.054725603390   105.79269715   180.34765667
 H     36  23  13     2.053892748813   105.96162666   181.25559040
 H     36  23  13     2.064274349312   110.74364315   300.37952472
 H     36  23  13     2.063735388377   110.84195201    62.23928514
 H     37  25  24     1.827369430319   108.29889031   273.04987093
 H     38  17   8     1.834472865918   108.51185520   296.72414658
 H     39  18   9     1.824378387826   108.28869417    61.27325516
 H     41  31  30     1.833094310406   108.87985498     0.29428866
 H     42  40  30     2.064349511703   110.50024986   302.93509488
 H     42  40  30     2.062528583368   110.95357845    64.72336517
 H     42  40  30     2.050415743236   105.77979169   183.41918572

---------------------
BASIS SET INFORMATION
---------------------
There are 3 groups of distinct atoms

 Group   1 Type C   : 11s7p2d1f contracted to 4s5p2d1f pattern {7211/31111/11/1}
 Group   2 Type O   : 11s7p2d1f contracted to 4s5p2d1f pattern {7211/31111/11/1}
 Group   3 Type H   : 6s3p1d contracted to 3s2p1d pattern {411/21/1}

Atom   0C    basis set group =>   1
Atom   1C    basis set group =>   1
Atom   2C    basis set group =>   1
Atom   3C    basis set group =>   1
Atom   4C    basis set group =>   1
Atom   5C    basis set group =>   1
Atom   6C    basis set group =>   1
Atom   7C    basis set group =>   1
Atom   8C    basis set group =>   1
Atom   9C    basis set group =>   1
Atom  10C    basis set group =>   1
Atom  11C    basis set group =>   1
Atom  12C    basis set group =>   1
Atom  13C    basis set group =>   1
Atom  14C    basis set group =>   1
Atom  15C    basis set group =>   1
Atom  16C    basis set group =>   1
Atom  17C    basis set group =>   1
Atom  18O    basis set group =>   2
Atom  19O    basis set group =>   2
Atom  20O    basis set group =>   2
Atom  21O    basis set group =>   2
Atom  22O    basis set group =>   2
Atom  23C    basis set group =>   1
Atom  24C    basis set group =>   1
Atom  25C    basis set group =>   1
Atom  26C    basis set group =>   1
Atom  27O    basis set group =>   2
Atom  28C    basis set group =>   1
Atom  29C    basis set group =>   1
Atom  30C    basis set group =>   1
Atom  31C    basis set group =>   1
Atom  32C    basis set group =>   1
Atom  33C    basis set group =>   1
Atom  34C    basis set group =>   1
Atom  35C    basis set group =>   1
Atom  36O    basis set group =>   2
Atom  37O    basis set group =>   2
Atom  38O    basis set group =>   2
Atom  39O    basis set group =>   2
Atom  40O    basis set group =>   2
Atom  41C    basis set group =>   1
Atom  42H    basis set group =>   3
Atom  43H    basis set group =>   3
Atom  44H    basis set group =>   3
Atom  45H    basis set group =>   3
Atom  46H    basis set group =>   3
Atom  47H    basis set group =>   3
Atom  48H    basis set group =>   3
Atom  49H    basis set group =>   3
Atom  50H    basis set group =>   3
Atom  51H    basis set group =>   3
Atom  52H    basis set group =>   3
Atom  53H    basis set group =>   3
Atom  54H    basis set group =>   3
Atom  55H    basis set group =>   3
Atom  56H    basis set group =>   3
Atom  57H    basis set group =>   3
Atom  58H    basis set group =>   3
Atom  59H    basis set group =>   3
Atom  60H    basis set group =>   3
Atom  61H    basis set group =>   3
Atom  62H    basis set group =>   3
Atom  63H    basis set group =>   3
Atom  64H    basis set group =>   3
Atom  65H    basis set group =>   3
Atom  66H    basis set group =>   3
Atom  67H    basis set group =>   3
Atom  68H    basis set group =>   3
Atom  69H    basis set group =>   3
Atom  70H    basis set group =>   3
Atom  71H    basis set group =>   3
Atom  72H    basis set group =>   3
Atom  73H    basis set group =>   3
Atom  74H    basis set group =>   3
Atom  75H    basis set group =>   3
Atom  76H    basis set group =>   3
Atom  77H    basis set group =>   3
Atom  78H    basis set group =>   3
Atom  79H    basis set group =>   3
Atom  80H    basis set group =>   3
Atom  81H    basis set group =>   3
---------------------------------
AUXILIARY/J BASIS SET INFORMATION
---------------------------------
There are 3 groups of distinct atoms

 Group   1 Type C   : 15s13p12d5f5g contracted to 15s13p12d5f5g pattern {111111111111111/1111111111111/111111111111/11111/11111}
 Group   2 Type O   : 15s13p12d5f5g contracted to 15s13p12d5f5g pattern {111111111111111/1111111111111/111111111111/11111/11111}
 Group   3 Type H   : 12s4p3d2f contracted to 12s4p3d2f pattern {111111111111/1111/111/11}

Atom   0C    basis set group =>   1
Atom   1C    basis set group =>   1
Atom   2C    basis set group =>   1
Atom   3C    basis set group =>   1
Atom   4C    basis set group =>   1
Atom   5C    basis set group =>   1
Atom   6C    basis set group =>   1
Atom   7C    basis set group =>   1
Atom   8C    basis set group =>   1
Atom   9C    basis set group =>   1
Atom  10C    basis set group =>   1
Atom  11C    basis set group =>   1
Atom  12C    basis set group =>   1
Atom  13C    basis set group =>   1
Atom  14C    basis set group =>   1
Atom  15C    basis set group =>   1
Atom  16C    basis set group =>   1
Atom  17C    basis set group =>   1
Atom  18O    basis set group =>   2
Atom  19O    basis set group =>   2
Atom  20O    basis set group =>   2
Atom  21O    basis set group =>   2
Atom  22O    basis set group =>   2
Atom  23C    basis set group =>   1
Atom  24C    basis set group =>   1
Atom  25C    basis set group =>   1
Atom  26C    basis set group =>   1
Atom  27O    basis set group =>   2
Atom  28C    basis set group =>   1
Atom  29C    basis set group =>   1
Atom  30C    basis set group =>   1
Atom  31C    basis set group =>   1
Atom  32C    basis set group =>   1
Atom  33C    basis set group =>   1
Atom  34C    basis set group =>   1
Atom  35C    basis set group =>   1
Atom  36O    basis set group =>   2
Atom  37O    basis set group =>   2
Atom  38O    basis set group =>   2
Atom  39O    basis set group =>   2
Atom  40O    basis set group =>   2
Atom  41C    basis set group =>   1
Atom  42H    basis set group =>   3
Atom  43H    basis set group =>   3
Atom  44H    basis set group =>   3
Atom  45H    basis set group =>   3
Atom  46H    basis set group =>   3
Atom  47H    basis set group =>   3
Atom  48H    basis set group =>   3
Atom  49H    basis set group =>   3
Atom  50H    basis set group =>   3
Atom  51H    basis set group =>   3
Atom  52H    basis set group =>   3
Atom  53H    basis set group =>   3
Atom  54H    basis set group =>   3
Atom  55H    basis set group =>   3
Atom  56H    basis set group =>   3
Atom  57H    basis set group =>   3
Atom  58H    basis set group =>   3
Atom  59H    basis set group =>   3
Atom  60H    basis set group =>   3
Atom  61H    basis set group =>   3
Atom  62H    basis set group =>   3
Atom  63H    basis set group =>   3
Atom  64H    basis set group =>   3
Atom  65H    basis set group =>   3
Atom  66H    basis set group =>   3
Atom  67H    basis set group =>   3
Atom  68H    basis set group =>   3
Atom  69H    basis set group =>   3
Atom  70H    basis set group =>   3
Atom  71H    basis set group =>   3
Atom  72H    basis set group =>   3
Atom  73H    basis set group =>   3
Atom  74H    basis set group =>   3
Atom  75H    basis set group =>   3
Atom  76H    basis set group =>   3
Atom  77H    basis set group =>   3
Atom  78H    basis set group =>   3
Atom  79H    basis set group =>   3
Atom  80H    basis set group =>   3
Atom  81H    basis set group =>   3
---------------------------------
AUXILIARY/C BASIS SET INFORMATION
---------------------------------
There are 3 groups of distinct atoms

 Group   1 Type C   : 15s13p12d5f5g contracted to 15s13p12d5f5g pattern {111111111111111/1111111111111/111111111111/11111/11111}
 Group   2 Type O   : 15s13p12d5f5g contracted to 15s13p12d5f5g pattern {111111111111111/1111111111111/111111111111/11111/11111}
 Group   3 Type H   : 12s4p3d2f contracted to 12s4p3d2f pattern {111111111111/1111/111/11}

Atom   0C    basis set group =>   1
Atom   1C    basis set group =>   1
Atom   2C    basis set group =>   1
Atom   3C    basis set group =>   1
Atom   4C    basis set group =>   1
Atom   5C    basis set group =>   1
Atom   6C    basis set group =>   1
Atom   7C    basis set group =>   1
Atom   8C    basis set group =>   1
Atom   9C    basis set group =>   1
Atom  10C    basis set group =>   1
Atom  11C    basis set group =>   1
Atom  12C    basis set group =>   1
Atom  13C    basis set group =>   1
Atom  14C    basis set group =>   1
Atom  15C    basis set group =>   1
Atom  16C    basis set group =>   1
Atom  17C    basis set group =>   1
Atom  18O    basis set group =>   2
Atom  19O    basis set group =>   2
Atom  20O    basis set group =>   2
Atom  21O    basis set group =>   2
Atom  22O    basis set group =>   2
Atom  23C    basis set group =>   1
Atom  24C    basis set group =>   1
Atom  25C    basis set group =>   1
Atom  26C    basis set group =>   1
Atom  27O    basis set group =>   2
Atom  28C    basis set group =>   1
Atom  29C    basis set group =>   1
Atom  30C    basis set group =>   1
Atom  31C    basis set group =>   1
Atom  32C    basis set group =>   1
Atom  33C    basis set group =>   1
Atom  34C    basis set group =>   1
Atom  35C    basis set group =>   1
Atom  36O    basis set group =>   2
Atom  37O    basis set group =>   2
Atom  38O    basis set group =>   2
Atom  39O    basis set group =>   2
Atom  40O    basis set group =>   2
Atom  41C    basis set group =>   1
Atom  42H    basis set group =>   3
Atom  43H    basis set group =>   3
Atom  44H    basis set group =>   3
Atom  45H    basis set group =>   3
Atom  46H    basis set group =>   3
Atom  47H    basis set group =>   3
Atom  48H    basis set group =>   3
Atom  49H    basis set group =>   3
Atom  50H    basis set group =>   3
Atom  51H    basis set group =>   3
Atom  52H    basis set group =>   3
Atom  53H    basis set group =>   3
Atom  54H    basis set group =>   3
Atom  55H    basis set group =>   3
Atom  56H    basis set group =>   3
Atom  57H    basis set group =>   3
Atom  58H    basis set group =>   3
Atom  59H    basis set group =>   3
Atom  60H    basis set group =>   3
Atom  61H    basis set group =>   3
Atom  62H    basis set group =>   3
Atom  63H    basis set group =>   3
Atom  64H    basis set group =>   3
Atom  65H    basis set group =>   3
Atom  66H    basis set group =>   3
Atom  67H    basis set group =>   3
Atom  68H    basis set group =>   3
Atom  69H    basis set group =>   3
Atom  70H    basis set group =>   3
Atom  71H    basis set group =>   3
Atom  72H    basis set group =>   3
Atom  73H    basis set group =>   3
Atom  74H    basis set group =>   3
Atom  75H    basis set group =>   3
Atom  76H    basis set group =>   3
Atom  77H    basis set group =>   3
Atom  78H    basis set group =>   3
Atom  79H    basis set group =>   3
Atom  80H    basis set group =>   3
Atom  81H    basis set group =>   3
----------------------------------
AUXILIARY/JK BASIS SET INFORMATION
----------------------------------
There are 3 groups of distinct atoms

 Group   1 Type C   : 15s13p12d5f5g contracted to 15s13p12d5f5g pattern {111111111111111/1111111111111/111111111111/11111/11111}
 Group   2 Type O   : 15s13p12d5f5g contracted to 15s13p12d5f5g pattern {111111111111111/1111111111111/111111111111/11111/11111}
 Group   3 Type H   : 12s4p3d2f contracted to 12s4p3d2f pattern {111111111111/1111/111/11}

Atom   0C    basis set group =>   1
Atom   1C    basis set group =>   1
Atom   2C    basis set group =>   1
Atom   3C    basis set group =>   1
Atom   4C    basis set group =>   1
Atom   5C    basis set group =>   1
Atom   6C    basis set group =>   1
Atom   7C    basis set group =>   1
Atom   8C    basis set group =>   1
Atom   9C    basis set group =>   1
Atom  10C    basis set group =>   1
Atom  11C    basis set group =>   1
Atom  12C    basis set group =>   1
Atom  13C    basis set group =>   1
Atom  14C    basis set group =>   1
Atom  15C    basis set group =>   1
Atom  16C    basis set group =>   1
Atom  17C    basis set group =>   1
Atom  18O    basis set group =>   2
Atom  19O    basis set group =>   2
Atom  20O    basis set group =>   2
Atom  21O    basis set group =>   2
Atom  22O    basis set group =>   2
Atom  23C    basis set group =>   1
Atom  24C    basis set group =>   1
Atom  25C    basis set group =>   1
Atom  26C    basis set group =>   1
Atom  27O    basis set group =>   2
Atom  28C    basis set group =>   1
Atom  29C    basis set group =>   1
Atom  30C    basis set group =>   1
Atom  31C    basis set group =>   1
Atom  32C    basis set group =>   1
Atom  33C    basis set group =>   1
Atom  34C    basis set group =>   1
Atom  35C    basis set group =>   1
Atom  36O    basis set group =>   2
Atom  37O    basis set group =>   2
Atom  38O    basis set group =>   2
Atom  39O    basis set group =>   2
Atom  40O    basis set group =>   2
Atom  41C    basis set group =>   1
Atom  42H    basis set group =>   3
Atom  43H    basis set group =>   3
Atom  44H    basis set group =>   3
Atom  45H    basis set group =>   3
Atom  46H    basis set group =>   3
Atom  47H    basis set group =>   3
Atom  48H    basis set group =>   3
Atom  49H    basis set group =>   3
Atom  50H    basis set group =>   3
Atom  51H    basis set group =>   3
Atom  52H    basis set group =>   3
Atom  53H    basis set group =>   3
Atom  54H    basis set group =>   3
Atom  55H    basis set group =>   3
Atom  56H    basis set group =>   3
Atom  57H    basis set group =>   3
Atom  58H    basis set group =>   3
Atom  59H    basis set group =>   3
Atom  60H    basis set group =>   3
Atom  61H    basis set group =>   3
Atom  62H    basis set group =>   3
Atom  63H    basis set group =>   3
Atom  64H    basis set group =>   3
Atom  65H    basis set group =>   3
Atom  66H    basis set group =>   3
Atom  67H    basis set group =>   3
Atom  68H    basis set group =>   3
Atom  69H    basis set group =>   3
Atom  70H    basis set group =>   3
Atom  71H    basis set group =>   3
Atom  72H    basis set group =>   3
Atom  73H    basis set group =>   3
Atom  74H    basis set group =>   3
Atom  75H    basis set group =>   3
Atom  76H    basis set group =>   3
Atom  77H    basis set group =>   3
Atom  78H    basis set group =>   3
Atom  79H    basis set group =>   3
Atom  80H    basis set group =>   3
Atom  81H    basis set group =>   3
---------------------------------
AUXILIARY/X BASIS SET INFORMATION
---------------------------------
There are 3 groups of distinct atoms

 Group   1 Type C   : 15s13p12d5f5g contracted to 15s13p12d5f5g pattern {111111111111111/1111111111111/111111111111/11111/11111}
 Group   2 Type O   : 15s13p12d5f5g contracted to 15s13p12d5f5g pattern {111111111111111/1111111111111/111111111111/11111/11111}
 Group   3 Type H   : 12s4p3d2f contracted to 12s4p3d2f pattern {111111111111/1111/111/11}

Atom   0C    basis set group =>   1
Atom   1C    basis set group =>   1
Atom   2C    basis set group =>   1
Atom   3C    basis set group =>   1
Atom   4C    basis set group =>   1
Atom   5C    basis set group =>   1
Atom   6C    basis set group =>   1
Atom   7C    basis set group =>   1
Atom   8C    basis set group =>   1
Atom   9C    basis set group =>   1
Atom  10C    basis set group =>   1
Atom  11C    basis set group =>   1
Atom  12C    basis set group =>   1
Atom  13C    basis set group =>   1
Atom  14C    basis set group =>   1
Atom  15C    basis set group =>   1
Atom  16C    basis set group =>   1
Atom  17C    basis set group =>   1
Atom  18O    basis set group =>   2
Atom  19O    basis set group =>   2
Atom  20O    basis set group =>   2
Atom  21O    basis set group =>   2
Atom  22O    basis set group =>   2
Atom  23C    basis set group =>   1
Atom  24C    basis set group =>   1
Atom  25C    basis set group =>   1
Atom  26C    basis set group =>   1
Atom  27O    basis set group =>   2
Atom  28C    basis set group =>   1
Atom  29C    basis set group =>   1
Atom  30C    basis set group =>   1
Atom  31C    basis set group =>   1
Atom  32C    basis set group =>   1
Atom  33C    basis set group =>   1
Atom  34C    basis set group =>   1
Atom  35C    basis set group =>   1
Atom  36O    basis set group =>   2
Atom  37O    basis set group =>   2
Atom  38O    basis set group =>   2
Atom  39O    basis set group =>   2
Atom  40O    basis set group =>   2
Atom  41C    basis set group =>   1
Atom  42H    basis set group =>   3
Atom  43H    basis set group =>   3
Atom  44H    basis set group =>   3
Atom  45H    basis set group =>   3
Atom  46H    basis set group =>   3
Atom  47H    basis set group =>   3
Atom  48H    basis set group =>   3
Atom  49H    basis set group =>   3
Atom  50H    basis set group =>   3
Atom  51H    basis set group =>   3
Atom  52H    basis set group =>   3
Atom  53H    basis set group =>   3
Atom  54H    basis set group =>   3
Atom  55H    basis set group =>   3
Atom  56H    basis set group =>   3
Atom  57H    basis set group =>   3
Atom  58H    basis set group =>   3
Atom  59H    basis set group =>   3
Atom  60H    basis set group =>   3
Atom  61H    basis set group =>   3
Atom  62H    basis set group =>   3
Atom  63H    basis set group =>   3
Atom  64H    basis set group =>   3
Atom  65H    basis set group =>   3
Atom  66H    basis set group =>   3
Atom  67H    basis set group =>   3
Atom  68H    basis set group =>   3
Atom  69H    basis set group =>   3
Atom  70H    basis set group =>   3
Atom  71H    basis set group =>   3
Atom  72H    basis set group =>   3
Atom  73H    basis set group =>   3
Atom  74H    basis set group =>   3
Atom  75H    basis set group =>   3
Atom  76H    basis set group =>   3
Atom  77H    basis set group =>   3
Atom  78H    basis set group =>   3
Atom  79H    basis set group =>   3
Atom  80H    basis set group =>   3
Atom  81H    basis set group =>   3
--------------------------------------------------------------------------
WARNING: There was an error initializing an OpenFabrics device.

  Local host:   c02b01n07
  Local device: mlx5_0
--------------------------------------------------------------------------
--------------------------------------------------------------------------
WARNING: There is at least one non-excluded one OpenFabrics device found,
but there are no active ports detected (or Open MPI was unable to use
them).  This is most certainly not what you wanted.  Check your
cables, subnet manager configuration, etc.  The openib BTL will be
ignored for this job.

  Local host: c02b01n07
--------------------------------------------------------------------------


           ************************************************************
           *        Program running with 60 parallel MPI-processes    *
           *              working on a common directory               *
           ************************************************************
------------------------------------------------------------------------------
                             ORCA STARTUP CALCULATIONS
                           -- RI-GTO INTEGRALS CHOSEN --
------------------------------------------------------------------------------
[c02b01n07:3128571] 51 more processes have sent help message help-mpi-btl-openib.txt / error in device init
[c02b01n07:3128571] Set MCA parameter "orte_base_help_aggregate" to 0 to see all help / error messages
[c02b01n07:3128571] 7 more processes have sent help message help-mpi-btl-openib.txt / no active ports found
------------------------------------------------------------------------------
                   ___                                                        
                  /   \      - P O W E R E D   B Y -                         
                 /     \                                                     
                 |  |  |   _    _      __       _____    __    __             
                 |  |  |  | |  | |    /  \     |  _  \  |  |  /  |          
                  \  \/   | |  | |   /    \    | | | |  |  | /  /          
                 / \  \   | |__| |  /  /\  \   | |_| |  |  |/  /          
                |  |  |   |  __  | /  /__\  \  |    /   |      \           
                |  |  |   | |  | | |   __   |  |    \   |  |\   \          
                \     /   | |  | | |  |  |  |  | |\  \  |  | \   \       
                 \___/    |_|  |_| |__|  |__|  |_| \__\ |__|  \__/        
                                                                              
                      - O R C A' S   B I G   F R I E N D -                    
                                      &                                       
                       - I N T E G R A L  F E E D E R -                       
                                                                              
 v1 FN, 2020, v2 2021, v3 2022-2024                                           
------------------------------------------------------------------------------


----------------------
SHARK INTEGRAL PACKAGE
----------------------

Number of atoms                             ...     82
Number of basis functions                   ...   2072
Number of shells                            ...    744
Maximum angular momentum                    ...      3
Integral batch strategy                     ... SHARK/LIBINT Hybrid
RI-J (if used) integral strategy            ... SPLIT-RIJ (Revised 2003 algorithm where possible)
Printlevel                                  ...      1
Contraction scheme used                     ... SEGMENTED contraction
Prescreening option                         ... SCHWARTZ
   Thresh                                   ... 1.000e-10
   Tcut                                     ... 1.000e-11
   Tpresel                                  ... 1.000e-11 
Coulomb Range Separation                    ... NOT USED
Exchange Range Separation                   ... NOT USED
Multipole approximations                    ... NOT USED
Finite Nucleus Model                        ... NOT USED
CABS basis                                  ... NOT available
Auxiliary Coulomb fitting basis             ... AVAILABLE
   # of basis functions in Aux-J            ...  10268
   # of shells in Aux-J                     ...   2940
   Maximum angular momentum in Aux-J        ...      4
Auxiliary J/K fitting basis                 ... AVAILABLE
   # of basis functions in Aux-JK           ...  10268
   # of shells in Aux-JK                    ...   2940
   Maximum angular momentum in Aux-JK       ...      4
Auxiliary Correlation fitting basis         ... AVAILABLE
   # of basis functions in Aux-C            ...  10268
   # of shells in Aux-C                     ...   2940
   Maximum angular momentum in Aux-C        ...      4
Auxiliary 'external' fitting basis          ... NOT available

Checking pre-screening integrals            ... done (  0.0 sec) Dimension = 744
   => SHARK Basis and OBASIS are compatible. Storing Pre-screening
Shell pair information
Shell pair cut-off parameter TPreSel        ...   1.0e-11
Total number of shell pairs                 ...    277140
Shell pairs after pre-screening             ...    149654
Total number of primitive shell pairs       ...    823733
Primitive shell pairs kept                  ...    274067
          la=0 lb=0:  28483 shell pairs
          la=1 lb=0:  49736 shell pairs
          la=1 lb=1:  20353 shell pairs
          la=2 lb=0:  19587 shell pairs
          la=2 lb=1:  14859 shell pairs
          la=2 lb=2:   2632 shell pairs
          la=3 lb=0:   6781 shell pairs
          la=3 lb=1:   5093 shell pairs
          la=3 lb=2:   1796 shell pairs
          la=3 lb=3:    334 shell pairs

Checking whether 4 symmetric matrices of dimension 2072 fit in memory
:Max Core in MB      =   5000.00
 MB in use           =    184.91
 MB left             =   4815.09
 MB needed           =     65.54
 Data fit in memory  = YES
Calculating RI/J V-Matrix + Cholesky decomp.... done (  6.4 sec)
Calculating RI/JK V-Matrix + Cholesky decomp.... done (  4.0 sec)
Calculating RI/C V-Matrix + Cholesky decomp.... done (  3.9 sec)
Calculating Nuclear repulsion               ... done (  0.0 sec) ENN=   5684.591804275066 Eh

Diagonalization of the overlap matrix:
Smallest eigenvalue                        ... 7.268e-06
Time for diagonalization                   ...    2.115 sec
Threshold for overlap eigenvalues          ... 1.000e-07
Number of eigenvalues below threshold      ... 0
Time for construction of square roots      ...    0.344 sec
Total time needed                          ...    2.504 sec

-------------------
DFT GRID GENERATION
-------------------

General Integration Accuracy     IntAcc      ... 4.388
Radial Grid Type                 RadialGrid  ... OptM3 with GC (2021)
Angular Grid (max. ang.)         AngularGrid ... 4 (Lebedev-302)
Angular grid pruning method      GridPruning ... 4 (adaptive)
Weight generation scheme         WeightScheme... mBecke (2022)
Basis function cutoff            BFCut       ... 1.0000e-10
Integration weight cutoff        WCut        ... 1.0000e-14
Partially contracted basis set               ... off
Rotationally invariant grid construction     ... off
Angular grids for H and He will be reduced by one unit
Diffuse basis detected: some atoms will have their outermost
                        angular grid increased by 1.

Total number of grid points                  ...   376757
Total number of batches                      ...     5926
Average number of points per batch           ...       63
Average number of grid points per atom       ...     4595
Grids setup in   3.8 sec
Initializing property integral containers    ... done (  0.2 sec)

SHARK setup successfully completed in  25.0 seconds

Maximum memory used throughout the entire STARTUP-calculation: 256.9 MB
--------------------------------------------------------------------------
WARNING: There was an error initializing an OpenFabrics device.

  Local host:   c02b01n07
  Local device: mlx5_0
--------------------------------------------------------------------------
--------------------------------------------------------------------------
WARNING: There is at least one non-excluded one OpenFabrics device found,
but there are no active ports detected (or Open MPI was unable to use
them).  This is most certainly not what you wanted.  Check your
cables, subnet manager configuration, etc.  The openib BTL will be
ignored for this job.

  Local host: c02b01n07
--------------------------------------------------------------------------


           ************************************************************
           *        Program running with 60 parallel MPI-processes    *
           *              working on a common directory               *
           ************************************************************
-------------------------------------------------------------------------------
                                 ORCA GUESS
                   Start orbitals & Density for SCF / CASSCF
-------------------------------------------------------------------------------

------------
SCF SETTINGS
------------
Hamiltonian:
 Density Functional     Method          .... DFT(GTOs)
 Exchange Functional    Exchange        .... TPSS
 Correlation Functional Correlation     .... TPSS
 LDA part of GGA corr.  LDAOpt          .... PW91-LDA
 Gradients option       PostSCFGGA      .... off
   NL short-range parameter             ....  5.000000
 RI-approximation to the Coulomb term is turned on
   Number of AuxJ basis functions       .... 10268


General Settings:
 Integral files         IntName         .... nmr-conf-3
 Hartree-Fock type      HFTyp           .... RHF
 Total Charge           Charge          ....    0
 Multiplicity           Mult            ....    1
 Number of Electrons    NEL             ....  314
 Basis Dimension        Dim             .... 2072
 Nuclear Repulsion      ENuc            ....   5684.5918042751 Eh

Convergence Acceleration:
 AO-DIIS                CNVDIIS         .... on
   Start iteration      DIISMaxIt       ....    12
   Startup error        DIISStart       ....  0.200000
   # of expansion vecs  DIISMaxEq       ....     5
   Bias factor          DIISBfac        ....   1.050
   Max. coefficient     DIISMaxC        ....  10.000
 MO-DIIS                CNVKDIIS        .... off
 Trust-Rad. Augm. Hess. CNVTRAH         .... auto
   Auto Start mean grad. ratio tolernc. ....  1.125000
   Auto Start start iteration           ....    50
   Auto Start num. interpolation iter.  ....    10
   Max. Number of Micro iterations      ....    24
   Max. Number of Macro iterations      .... Maxiter - #DIIS iter
   Number of Davidson start vectors     ....     2
   Converg. threshold    (grad. norm)   ....   5.000e-05
   Grad. Scal. Fac. for Micro threshold ....   0.100
   Minimum threshold for Micro iter.    ....   1.000e-02
   NR start threshold (gradient norm)   ....   1.000e-04
   Initial trust radius                 ....   0.400
   Minimum AH scaling param. (alpha)    ....   1.000
   Maximum AH scaling param. (alpha)    .... 1000.000
   Quad. conv. algorithm                .... NR
   White noise on init. David. guess    .... on
   Maximum white noise                  ....   0.010
   Pseudo random numbers                .... off
   Inactive MOs                         .... canonical
   Orbital update algorithm             .... Taylor
   Preconditioner                       .... Diag
   Full preconditioner red. dimension   ....   250
 SOSCF                 CNVSOSCF           .... on
   Start iteration     SOSCFMaxIt         ....   150
   Startup grad/error  SOSCFStart         ....  0.003300
   Hessian update      SOSCFHessUp        .... L-BFGS
   Autom. constraints  SOSCFAutoConstrain .... off
 Level Shifting         CNVShift        .... on
   Level shift para.    LevelShift      ....    0.2500
   Turn off err/grad.   ShiftErr        ....    0.0010
 Zerner damping         CNVZerner       .... off
 Static damping         CNVDamp         .... on
   Fraction old density DampFac         ....    0.7000
   Max. Damping (<1)    DampMax         ....    0.9800
   Min. Damping (>=0)   DampMin         ....    0.0000
   Turn off err/grad.   DampErr         ....    0.1000

SCF Procedure:
 Maximum # iterations   MaxIter         ....   125
 SCF integral mode      SCFMode         .... Direct
   Integral package                     .... SHARK and LIBINT hybrid scheme
 Reset frequency        DirectResetFreq ....    20
 Integral Threshold     Thresh          ....  1.000e-10 Eh
 Primitive CutOff       TCut            ....  1.000e-11 Eh

Convergence Tolerance:
 Convergence Check Mode ConvCheckMode   .... Total+1el-Energy
 Convergence forced     ConvForced      .... 0
 Energy Change          TolE            ....  1.000e-06 Eh
 1-El. energy change                    ....  1.000e-03 Eh
 Orbital Gradient       TolG            ....  5.000e-05
 Orbital Rotation angle TolX            ....  5.000e-05
 DIIS Error             TolErr          ....  1.000e-06

------------------------------
INITIAL GUESS: MODEL POTENTIAL
------------------------------
Loading Hartree-Fock densities                     ... done
Calculating cut-offs                               ... done
Initializing the effective Hamiltonian             ... done
Setting up the integral package (SHARK)            ... done
Starting the Coulomb interaction                   ... done (   1.8 sec)
Making the grid                                    ... done (   0.6 sec)
Mapping shells                                     ... done
Starting the XC term evaluation                    ... [c02b01n07:3128972] 54 more processes have sent help message help-mpi-btl-openib.txt / error in device init
[c02b01n07:3128972] Set MCA parameter "orte_base_help_aggregate" to 0 to see all help / error messages
[c02b01n07:3128972] 4 more processes have sent help message help-mpi-btl-openib.txt / no active ports found
done (   0.1 sec)
  promolecular density results
     # of electrons  =    313.968575211
     EX              =   -260.287494892
     EC              =    -10.635634364
     EX+EC           =   -270.923129256
Transforming the Hamiltonian                       ... done (   0.3 sec)
Diagonalizing the Hamiltonian                      ... done (   0.6 sec)
Back transforming the eigenvectors                 ... done (   0.2 sec)
Now organizing SCF variables                       ... done
                      ------------------
                      INITIAL GUESS DONE (   4.2 sec)
                      ------------------
             **** ENERGY FILE WAS UPDATED (nmr-conf-3.en.tmp) ****
Finished Guess after   8.0 sec
Maximum memory used throughout the entire GUESS-calculation: 288.0 MB
--------------------------------------------------------------------------
WARNING: There was an error initializing an OpenFabrics device.

  Local host:   c02b01n07
  Local device: mlx5_0
--------------------------------------------------------------------------
--------------------------------------------------------------------------
WARNING: There is at least one non-excluded one OpenFabrics device found,
but there are no active ports detected (or Open MPI was unable to use
them).  This is most certainly not what you wanted.  Check your
cables, subnet manager configuration, etc.  The openib BTL will be
ignored for this job.

  Local host: c02b01n07
--------------------------------------------------------------------------


           ************************************************************
           *        Program running with 60 parallel MPI-processes    *
           *              working on a common directory               *
           ************************************************************

-------------------------------------------------------------------------------------------
                                      ORCA LEAN-SCF
                              memory conserving SCF solver
-------------------------------------------------------------------------------------------

--------------------
CPCM SOLVATION MODEL
--------------------
CPCM parameters:
  Epsilon                                         ...      33.4280
  Refrac                                          ...       1.3288
  Rsolv                                           ...       1.3000
  Surface type                                    ... GAUSSIAN VDW
  Discretization scheme                           ... Constant charge density
    Threshold for H atoms                         ...       5.0000 (charges/Ang^2)
    Threshold for non-H atoms                     ...       5.0000 (charges/Ang^2)
  Epsilon function type                           ...         CPCM
Solvent:                                          ... METHANOL
Radii:
  Scheme                                          ... Element-dependent radii
  Radius for C  used is    3.8550 Bohr (=   2.0400 Ang.)
  Radius for O  used is    3.4469 Bohr (=   1.8240 Ang.)
  Radius for H  used is    2.4944 Bohr (=   1.3200 Ang.)
Calculating surface                               ...        done! (  0.1s)
Cavity surface points                             ...         6255
Cavity Volume                                     ...    4496.1982
Cavity Surface-area                               ...    2081.0428
Calculating surface distance matrix               ...        done! (  0.2s)
Performing Cholesky decomposition & store         ...        done! (  0.7s)
Overall time for CPCM initialization              ...                 1.0s

----------------------------------------D-I-I-S--------------------------------------------
Iteration    Energy (Eh)           Delta-E    RMSDP     MaxDP     DIISErr   Damp  Time(sec)
-------------------------------------------------------------------------------------------
               ***  Starting incremental Fock matrix formation  ***
[c02b01n07:3129403] 51 more processes have sent help message help-mpi-btl-openib.txt / error in device init
[c02b01n07:3129403] Set MCA parameter "orte_base_help_aggregate" to 0 to see all help / error messages
[c02b01n07:3129403] 7 more processes have sent help message help-mpi-btl-openib.txt / no active ports found
    1    -2033.0199652916826381     0.00e+00  7.95e-03  2.87e-01  2.39e-01  0.700  14.8
    2    -2033.4271704830180170    -4.07e-01  6.48e-03  2.31e-01  8.39e-02  0.700   8.4
                               ***Turning on AO-DIIS***
    3    -2033.5796536922662199    -1.52e-01  2.80e-03  7.52e-02  2.53e-02  0.700   7.5
    4    -2033.6715983034300734    -9.19e-02  4.72e-03  7.40e-02  1.21e-02  0.000   6.9
    5    -2033.8751622288746148    -2.04e-01  1.23e-03  2.92e-02  4.83e-03  0.000   6.8
                              *** Initializing SOSCF ***
---------------------------------------S-O-S-C-F--------------------------------------
Iteration    Energy (Eh)           Delta-E    RMSDP     MaxDP     MaxGrad    Time(sec)
--------------------------------------------------------------------------------------
    6    -2033.8765332622488131    -1.37e-03  3.93e-04  6.46e-03  1.51e-03     7.7
               *** Restarting incremental Fock matrix formation ***
    7    -2033.8766418106351921    -1.09e-04  3.02e-04  4.84e-03  1.33e-04     6.9
    8    -2033.8766196214319280     2.22e-05  7.90e-05  2.18e-03  6.67e-04     6.2
    9    -2033.8766571873547946    -3.76e-05  6.90e-05  1.15e-03  1.32e-04     5.9
   10    -2033.8766567585407756     4.29e-07  1.80e-05  3.82e-04  1.22e-04     6.3
                 **** Energy Check signals convergence ****

               *****************************************************
               *                     SUCCESS                       *
               *           SCF CONVERGED AFTER  10 CYCLES          *
               *****************************************************

             **** ENERGY FILE WAS UPDATED (nmr-conf-3.en.tmp) ****

----------------
TOTAL SCF ENERGY
----------------

Total Energy       :      -2033.87665745539653 Eh          -55344.59751 eV

Components:
Nuclear Repulsion  :       5684.59180427506635 Eh          154685.60706 eV
Electronic Energy  :      -7718.42180781066872 Eh         -210028.93506 eV
One Electron Energy:     -14097.28102384222257 Eh         -383606.51884 eV
Two Electron Energy:       6378.85921603155384 Eh          173577.58378 eV
CPCM Dielectric    :         -0.04665391979411 Eh              -1.26952 eV

Virial components:
Potential Energy   :      -4061.11499767337591 Eh         -110508.55723 eV
Kinetic Energy     :       2027.23834021797916 Eh           55163.95972 eV
Virial Ratio       :          2.00327456180446

DFT components:
N(Alpha)           :      156.999999337795 electrons
N(Beta)            :      156.999999337795 electrons
N(Total)           :      313.999998675591 electrons
E(X)               :     -268.087668933521 Eh       
E(C)               :      -10.601259734563 Eh       
E(XC)              :     -278.688928668084 Eh       

CPCM Solvation Model Properties:
Surface-charge          :         -0.04315021265698
Corrected charge        :         -0.00000000000000
Outlying charge corr.   :          0.00007998675862 Eh               0.00218 eV
Free-energy (cav+disp)  :  This term is not implemented in the current solvation scheme

---------------
SCF CONVERGENCE
---------------

  Last Energy change         ...   -4.2881e-07  Tolerance :   1.0000e-06
  Last MAX-Density change    ...    3.8236e-04  Tolerance :   1.0000e-05
  Last RMS-Density change    ...    1.7982e-05  Tolerance :   1.0000e-06
  Last DIIS Error            ...    1.5130e-03  Tolerance :   1.0000e-06
  Last Orbital Gradient      ...    1.2237e-04  Tolerance :   5.0000e-05
  Last Orbital Rotation      ...    2.5328e-04  Tolerance :   5.0000e-05


----------------
ORBITAL ENERGIES
----------------

  NO   OCC          E(Eh)            E(eV) 
   0   2.0000     -18.921619      -514.8834 
   1   2.0000     -18.919763      -514.8329 
   2   2.0000     -18.919365      -514.8221 
   3   2.0000     -18.911600      -514.6108 
   4   2.0000     -18.909263      -514.5472 
   5   2.0000     -18.908927      -514.5381 
   6   2.0000     -18.900590      -514.3112 
   7   2.0000     -18.894405      -514.1429 
   8   2.0000     -18.877646      -513.6869 
   9   2.0000     -18.873751      -513.5809 
  10   2.0000     -18.868388      -513.4349 
  11   2.0000     -10.049286      -273.4550 
  12   2.0000     -10.047881      -273.4168 
  13   2.0000     -10.045160      -273.3427 
  14   2.0000     -10.044616      -273.3279 
  15   2.0000     -10.042634      -273.2740 
  16   2.0000     -10.042023      -273.2573 
  17   2.0000     -10.041758      -273.2501 
  18   2.0000     -10.039922      -273.2002 
  19   2.0000     -10.037061      -273.1223 
  20   2.0000     -10.034562      -273.0543 
  21   2.0000     -10.033381      -273.0222 
  22   2.0000     -10.032053      -272.9860 
  23   2.0000     -10.030934      -272.9556 
  24   2.0000     -10.028951      -272.9016 
  25   2.0000     -10.024837      -272.7897 
  26   2.0000     -10.016813      -272.5713 
  27   2.0000      -9.992363      -271.9060 
  28   2.0000      -9.990044      -271.8429 
  29   2.0000      -9.989623      -271.8315 
  30   2.0000      -9.988283      -271.7950 
  31   2.0000      -9.987849      -271.7832 
  32   2.0000      -9.987106      -271.7630 
  33   2.0000      -9.983708      -271.6705 
  34   2.0000      -9.983565      -271.6666 
  35   2.0000      -9.983429      -271.6629 
  36   2.0000      -9.982910      -271.6488 
  37   2.0000      -9.982372      -271.6342 
  38   2.0000      -9.981037      -271.5978 
  39   2.0000      -9.979370      -271.5525 
  40   2.0000      -9.975680      -271.4520 
  41   2.0000      -9.973545      -271.3940 
  42   2.0000      -1.016663       -27.6648 
  43   2.0000      -1.011727       -27.5305 
  44   2.0000      -1.006927       -27.3999 
  45   2.0000      -0.996609       -27.1191 
  46   2.0000      -0.990974       -26.9658 
  47   2.0000      -0.983771       -26.7698 
  48   2.0000      -0.979566       -26.6553 
  49   2.0000      -0.965520       -26.2731 
  50   2.0000      -0.949539       -25.8383 
  51   2.0000      -0.945801       -25.7366 
  52   2.0000      -0.940452       -25.5910 
  53   2.0000      -0.800322       -21.7779 
  54   2.0000      -0.797546       -21.7023 
  55   2.0000      -0.793876       -21.6025 
  56   2.0000      -0.758911       -20.6510 
  57   2.0000      -0.734076       -19.9752 
  58   2.0000      -0.718658       -19.5557 
  59   2.0000      -0.703254       -19.1365 
  60   2.0000      -0.701938       -19.1007 
  61   2.0000      -0.697564       -18.9817 
  62   2.0000      -0.696351       -18.9487 
  63   2.0000      -0.686127       -18.6705 
  64   2.0000      -0.670197       -18.2370 
  65   2.0000      -0.651287       -17.7224 
  66   2.0000      -0.649427       -17.6718 
  67   2.0000      -0.648303       -17.6412 
  68   2.0000      -0.638341       -17.3701 
  69   2.0000      -0.625363       -17.0170 
  70   2.0000      -0.614900       -16.7323 
  71   2.0000      -0.609911       -16.5965 
  72   2.0000      -0.576807       -15.6957 
  73   2.0000      -0.571188       -15.5428 
  74   2.0000      -0.564078       -15.3493 
  75   2.0000      -0.559331       -15.2202 
  76   2.0000      -0.551223       -14.9995 
  77   2.0000      -0.542869       -14.7722 
  78   2.0000      -0.540418       -14.7055 
  79   2.0000      -0.534019       -14.5314 
  80   2.0000      -0.514576       -14.0023 
  81   2.0000      -0.512010       -13.9325 
  82   2.0000      -0.504744       -13.7348 
  83   2.0000      -0.496139       -13.5006 
  84   2.0000      -0.486669       -13.2429 
  85   2.0000      -0.476305       -12.9609 
  86   2.0000      -0.473644       -12.8885 
  87   2.0000      -0.469394       -12.7728 
  88   2.0000      -0.463478       -12.6119 
  89   2.0000      -0.456283       -12.4161 
  90   2.0000      -0.452668       -12.3177 
  91   2.0000      -0.448474       -12.2036 
  92   2.0000      -0.445541       -12.1238 
  93   2.0000      -0.443086       -12.0570 
  94   2.0000      -0.435451       -11.8492 
  95   2.0000      -0.433358       -11.7923 
  96   2.0000      -0.429369       -11.6837 
  97   2.0000      -0.426434       -11.6039 
  98   2.0000      -0.424398       -11.5485 
  99   2.0000      -0.420583       -11.4447 
 100   2.0000      -0.416172       -11.3246 
 101   2.0000      -0.414594       -11.2817 
 102   2.0000      -0.408369       -11.1123 
 103   2.0000      -0.404472       -11.0062 
 104   2.0000      -0.401159       -10.9161 
 105   2.0000      -0.399528       -10.8717 
 106   2.0000      -0.395273       -10.7559 
 107   2.0000      -0.393373       -10.7042 
 108   2.0000      -0.386975       -10.5301 
 109   2.0000      -0.385132       -10.4800 
 110   2.0000      -0.383270       -10.4293 
 111   2.0000      -0.378823       -10.3083 
 112   2.0000      -0.378487       -10.2991 
 113   2.0000      -0.374694       -10.1960 
 114   2.0000      -0.372862       -10.1461 
 115   2.0000      -0.370677       -10.0866 
 116   2.0000      -0.369274       -10.0485 
 117   2.0000      -0.367629       -10.0037 
[...]
  X          -0.0566522   -0.9937471   -0.0962145
  Y           0.3570808    0.0698271   -0.9314599
  Z           0.9323539   -0.0871256    0.3508921

 --------------
 Nucleus  73H :
 --------------

Diamagnetic contribution to the shielding tensor (ppm) : 
             8.115         49.789        -7.719
            -9.090         48.934        -4.664
            52.164       -196.624       -42.315

Paramagnetic contribution to the shielding tensor (ppm): 
            19.940        -49.166         3.979
            11.311        -23.161         0.968
           -55.746        193.210        72.167

Total shielding tensor (ppm): 
            28.055          0.623        -3.740
             2.221         25.773        -3.696
            -3.582         -3.414        29.853


 Diagonalized sT*s matrix:
 
 sDSO           -60.588           39.734           35.589  iso=       4.911
 sPSO            84.167          -13.957           -1.263  iso=      22.982
        ---------------  ---------------  ---------------
 Total           23.578           25.777           34.325  iso=      27.894

 Orientation: 
  X           0.2333871    0.8134408   -0.5327707
  Y           0.7850652   -0.4809212   -0.3903684
  Z           0.5737623    0.3271527    0.7508448

 --------------
 Nucleus  74H :
 --------------

Diamagnetic contribution to the shielding tensor (ppm) : 
           -26.192         88.181        16.682
           -35.681         87.952         0.148
             6.533       -101.160      -108.179

Paramagnetic contribution to the shielding tensor (ppm): 
            55.027        -86.289       -13.862
            39.430        -60.409        -1.013
            -4.622        100.850       134.722

Total shielding tensor (ppm): 
            28.835          1.892         2.821
             3.749         27.544        -0.865
             1.912         -0.310        26.543


 Diagonalized sT*s matrix:
 
 sDSO           -80.365           28.660            5.287  iso=     -15.473
 sPSO           104.145           -1.095           26.291  iso=      43.113
        ---------------  ---------------  ---------------
 Total           23.779           27.565           31.578  iso=      27.641

 Orientation: 
  X          -0.5788383   -0.1303354   -0.8049589
  Y           0.5460480    0.6711898   -0.5013340
  Z           0.6056218   -0.7297376   -0.3173410

 --------------
 Nucleus  75H :
 --------------

Diamagnetic contribution to the shielding tensor (ppm) : 
           -47.617         -8.324       -21.440
           -38.712         21.530        12.094
           -86.676        223.356      -187.634

Paramagnetic contribution to the shielding tensor (ppm): 
            77.416         14.824        19.105
            44.545         12.953        -7.426
            84.572       -221.815       214.489

Total shielding tensor (ppm): 
            29.799          6.500        -2.334
             5.833         34.484         4.669
            -2.104          1.541        26.855


 Diagonalized sT*s matrix:
 
 sDSO          -185.930          -23.655           -4.136  iso=     -71.240
 sPSO           208.442           53.395           43.021  iso=     101.619
        ---------------  ---------------  ---------------
 Total           22.512           29.740           38.885  iso=      30.379

 Orientation: 
  X           0.6052721   -0.5908189   -0.5334591
  Y          -0.4885230    0.2534085   -0.8349428
  Z           0.6284831    0.7659746   -0.1352475

 --------------
 Nucleus  76H :
 --------------

Diamagnetic contribution to the shielding tensor (ppm) : 
           -54.342         66.885        59.880
           -73.241         90.228        31.764
           -39.308        -91.064      -134.529

Paramagnetic contribution to the shielding tensor (ppm): 
            98.488        -72.430       -61.145
            66.817        -67.624       -33.429
            40.035         90.667       154.682

Total shielding tensor (ppm): 
            44.146         -5.545        -1.265
            -6.424         22.604        -1.665
             0.727         -0.397        20.153


 Diagonalized sT*s matrix:
 
 sDSO           -89.100           35.093          -44.637  iso=     -32.881
 sPSO           108.548          -13.332           90.329  iso=      61.849
        ---------------  ---------------  ---------------
 Total           19.449           21.762           45.692  iso=      28.968

 Orientation: 
  X           0.1492317    0.1937349   -0.9696374
  Y           0.5520838    0.7972104    0.2442520
  Z           0.8203252   -0.5717712    0.0120112

 --------------
 Nucleus  77H :
 --------------

Diamagnetic contribution to the shielding tensor (ppm) : 
           -20.211        136.751       -14.172
           -23.633        118.341        -8.712
             3.058        -89.338        56.839

Paramagnetic contribution to the shielding tensor (ppm): 
            49.934       -131.323        13.618
            27.709        -81.518         3.143
            -3.091         84.931       -31.801

Total shielding tensor (ppm): 
            29.722          5.428        -0.553
             4.076         36.823        -5.568
            -0.033         -4.408        25.038


 Diagonalized sT*s matrix:
 
 sDSO            18.842          -21.183          157.310  iso=      51.656
 sPSO             4.035           49.307         -116.727  iso=     -21.128
        ---------------  ---------------  ---------------
 Total           22.877           28.124           40.584  iso=      30.528

 Orientation: 
  X          -0.2404066   -0.8929661   -0.3805473
  Y           0.4038403    0.2644922   -0.8757608
  Z           0.8826764   -0.3642190    0.2970300

 --------------
 Nucleus  78H :
 --------------

Diamagnetic contribution to the shielding tensor (ppm) : 
           -25.293        -11.629        27.984
           -49.811         41.059        10.912
            -0.099        -99.829      -103.813

Paramagnetic contribution to the shielding tensor (ppm): 
            54.287         14.876       -23.920
            51.920        -24.442       -13.084
             5.110        101.073       136.339

Total shielding tensor (ppm): 
            28.994          3.247         4.064
             2.109         16.617        -2.173
             5.011          1.244        32.525


 Diagonalized sT*s matrix:
 
 sDSO            45.444          -60.272          -73.219  iso=     -29.349
 sPSO           -29.487           86.773          108.897  iso=      55.394
        ---------------  ---------------  ---------------
 Total           15.957           26.501           35.678  iso=      26.045

 Orientation: 
  X           0.2404913    0.7791200    0.5789094
  Y          -0.9687951    0.2295345    0.0935411
  Z          -0.0600000   -0.5833404    0.8100087

 --------------
 Nucleus  79H :
 --------------

Diamagnetic contribution to the shielding tensor (ppm) : 
           -40.488       -198.001       -26.240
           -63.090        -82.711        -7.768
           -42.272        -23.116      -195.853

Paramagnetic contribution to the shielding tensor (ppm): 
            73.306        194.793        23.314
            58.974        108.096         7.395
            40.494         23.990       222.086

Total shielding tensor (ppm): 
            32.818         -3.208        -2.926
            -4.116         25.385        -0.373
            -1.778          0.874        26.234


 Diagonalized sT*s matrix:
 
 sDSO          -194.275         -163.874           39.098  iso=    -106.351
 sPSO           217.950          189.721           -4.182  iso=     134.496
        ---------------  ---------------  ---------------
 Total           23.675           25.847           34.916  iso=      28.146

 Orientation: 
  X           0.4158730   -0.1231366   -0.9010477
  Y           0.8628635    0.3663844    0.3481795
  Z           0.2872562   -0.9222797    0.2586195

 --------------
 Nucleus  80H :
 --------------

Diamagnetic contribution to the shielding tensor (ppm) : 
           105.229       -170.231       -46.730
            42.359        -60.245       -35.896
           -19.439        -77.109       -71.389

Paramagnetic contribution to the shielding tensor (ppm): 
           -75.831        173.935        46.221
           -40.534         87.983        34.958
            19.583         76.197        97.382

Total shielding tensor (ppm): 
            29.398          3.704        -0.509
             1.825         27.737        -0.938
             0.144         -0.912        25.992


 Diagonalized sT*s matrix:
 
 sDSO           -34.224           13.665           -5.848  iso=      -8.802
 sPSO            59.378           12.766           37.389  iso=      36.511
        ---------------  ---------------  ---------------
 Total           25.155           26.432           31.541  iso=      27.709

 Orientation: 
  X           0.4046796    0.4820815   -0.7770662
  Y          -0.6480303   -0.4483728   -0.6156449
  Z          -0.6452063    0.7527013    0.1309561

 --------------
 Nucleus  81H :
 --------------

Diamagnetic contribution to the shielding tensor (ppm) : 
            13.054       -116.323       -17.358
           -22.439        -40.624       -22.198
            13.506       -128.540      -157.462

Paramagnetic contribution to the shielding tensor (ppm): 
            17.363        115.802        20.088
            21.665         62.682        21.904
           -13.883        128.112       186.664

Total shielding tensor (ppm): 
            30.417         -0.521         2.730
            -0.774         22.058        -0.293
            -0.377         -0.428        29.202


 Diagonalized sT*s matrix:
 
 sDSO           -56.062         -105.863          -23.108  iso=     -61.677
 sPSO            78.060          134.350           54.300  iso=      88.903
        ---------------  ---------------  ---------------
 Total           21.998           28.487           31.192  iso=      27.226

 Orientation: 
  X           0.0671623   -0.5411651    0.8382300
  Y           0.9968940    0.0017653   -0.0787354
  Z           0.0411291    0.8409145    0.5396028



--------------------------------
CHEMICAL SHIELDING SUMMARY (ppm)
--------------------------------


  Nucleus  Element    Isotropic     Anisotropy
  -------  -------  ------------   ------------
      0       C           25.163        125.216 
      1       C           44.450         92.210 
      2       C           26.279        117.719 
      3       C           76.245        123.608 
      4       C           39.187        192.527 
      5       C           77.015        136.068 
      6       C          147.265         32.116 
      7       C          132.372         19.704 
      8       C          138.998         23.575 
      9       C          143.822         36.986 
     10       C           44.717        182.308 
     11       C           70.353        155.996 
     12       C           30.189        118.588 
     13       C           31.874        123.863 
     14       C           67.409        144.497 
     15       C           56.365        147.213 
     16       C          112.425         64.016 
     17       C          107.575         71.245 
     23       C           99.394         55.215 
     24       C           94.113         29.385 
     25       C           44.972        180.014 
     26       C          108.050         61.866 
     28       C           66.376        143.344 
     29       C           31.910        118.367 
     30       C           32.492        121.686 
     31       C           67.871        147.921 
     32       C           62.175        174.955 
     33       C          123.374         74.006 
     34       C          124.750         79.351 
     35       C          124.010         79.850 
     41       C          124.667         78.254 
     42       H           25.464         10.114 
     43       H           26.090          8.390 
     44       H           29.716          6.937 
     45       H           28.940          4.832 
     46       H           30.710          5.374 
     47       H           28.727          3.972 
     48       H           28.907          8.629 
     49       H           29.319          4.369 
     50       H           24.542         10.023 
     51       H           24.848          2.796 
     52       H           24.747          5.607 
     53       H           27.843          5.164 
     54       H           28.040          6.837 
     55       H           27.480          6.650 
     56       H           27.912          4.121 
     57       H           25.301         12.167 
     58       H           26.657          4.947 
     59       H           27.236          4.891 
     60       H           27.431          4.081 
     61       H           27.485          3.443 
     62       H           27.773         19.767 
     63       H           24.833          8.721 
     64       H           25.297          5.166 
     65       H           25.117          5.414 
     66       H           27.685          6.852 
     67       H           28.277          7.865 
     68       H           28.938          8.616 
     69       H           27.849          7.397 
     70       H           27.937          9.610 
     71       H           27.455          9.517 
     72       H           27.355          9.215 
     73       H           27.894          9.648 
     74       H           27.641          5.906 
     75       H           30.379         12.759 
     76       H           28.968         25.087 
     77       H           30.528         15.083 
     78       H           26.045         14.448 
     79       H           28.146         10.155 
     80       H           27.709          5.748 
     81       H           27.226          5.950 


NMR shielding tensor and spin rotation calculation done in   2.3 sec 

Maximum memory used throughout the entire PROP-calculation: 365.8 MB
[c02b01n07:3130804] 7 more processes have sent help message help-mpi-btl-openib.txt / no active ports found
[c02b01n07:3130804] Set MCA parameter "orte_base_help_aggregate" to 0 to see all help / error messages
[c02b01n07:3130804] 51 more processes have sent help message help-mpi-btl-openib.txt / error in device init
--------------------------------------------------------------------------
WARNING: There was an error initializing an OpenFabrics device.

  Local host:   c02b01n07
  Local device: mlx5_0
--------------------------------------------------------------------------
--------------------------------------------------------------------------
WARNING: There is at least one non-excluded one OpenFabrics device found,
but there are no active ports detected (or Open MPI was unable to use
them).  This is most certainly not what you wanted.  Check your
cables, subnet manager configuration, etc.  The openib BTL will be
ignored for this job.

  Local host: c02b01n07
--------------------------------------------------------------------------
[c02b01n07:3131256] 51 more processes have sent help message help-mpi-btl-openib.txt / error in device init
[c02b01n07:3131256] Set MCA parameter "orte_base_help_aggregate" to 0 to see all help / error messages
[c02b01n07:3131256] 7 more processes have sent help message help-mpi-btl-openib.txt / no active ports found

--------------------------------
SUGGESTED CITATIONS FOR THIS RUN
--------------------------------

Below you find a list of papers that are relevant to this ORCA run
We neither can nor want to force you to cite these papers, but we appreciate if you do
You receive ORCA, which is the product of decades of hard work by many enthusiastic individuals, for free
The only thing we kindly ask in return is that you cite our papers,
We deeply appreciate it, if you show your appreciation for ORCA by not just citing the generic ORCA reference.

Please note that relegating all ORCA citations to the supporting information does *not* help us.
SI sections are not indexed - citations you put there will not count into any citation statistics
But we need these citations in order to attract the funding resources that allow us to do what we are doing

Therefore, if you are a happy ORCA user, please consider citing a few of the papers listed below in the main body of your paper

In addition to the list printed below, the program has created the file nmr-conf-3.bibtex that contains the list in bibtex format
You can import this file easily into all common literature databanks and citation aid programs


List of essential papers. We consider these as the minimum necessary citations

  1. Neese, F.
     Software update: the ORCA program system, version 6.0
     WIRES Comput. Molec. Sci. 2025 15(1), e70019
     doi.org/10.1002/wcms.7019

List of papers to cite with high priority. The work reported in these papers was absolutely
necessary for this run to complete.
Our perspective: the developers of density functionals and basis sets usually get cited in chemistry papers
Good! But without the algorithms to do something with them, the functionals or basis sets would not do anything.
Hence, in our opinion, the algorithm design and method developments papers are equally worthy of getting cited

  1. Neese, F.
     An improvement of the resolution of the identity approximation for the formation of the Coulomb matrix
     J. Comp. Chem. 2003 24(14), 1740-1747
     doi.org/10.1002/jcc.10318
  2. Stoychev, G.L.; Auer, A.A.; Neese, F.
     Automatic Generation of Auxiliary Basis Sets
     J. Theo. Comp. Chem. 2017 13 , 554-562
     doi.org/10.1021/acs.jctc.6b01041
  3. Stoychev, G.L.; Auer, A.A.; Izsak, R.; Neese, F.
     Self-Consistent Field Calculation of Nuclear Magnetic Resonance Chemical Shielding Constants Using Gauge-Including Atomic Orbitals and Approximate Two-Electron Integrals
     J. Chem. Theory Comput. 2018 14(2), 619-637
     doi.org/10.1021/acs.jctc.7b01006
  4. Garcia-Rates, M.; Neese, F.
     Effect of the Solute Cavity on the Solvation Energy and its Derivatives within the Framework of the Gaussian Charge Scheme
     J. Comput. Chem. 2020 41 , 922-939
     doi.org/10.1002/jcc.26139
  5. Neese, F.
     The SHARK Integral Generation and Digestion System
     J. Comp. Chem. 2022 44(3), 381
     doi.org/10.1002/jcc.26942

List of suggested additional citations. These are papers that are important in the 'surrounding' of 
of this run, or papers that preceded the highly important papers. If you like your results we are grateful for a citation.

  1. Neese, F.
     The ORCA program system
     WIRES Comput. Molec. Sci. 2012 2(1), 73-78
     doi.org/10.1002/wcms.81
  2. Neese, F.
     Software update: the ORCA program system, version 4.0
     WIRES Comput. Molec. Sci. 2018 8(1), 1-6
     doi.org/10.1002/wcms.1327
  3. Neese, F.; Wennmohs, F.; Becker, U.; Riplinger, C.
     The ORCA quantum chemistry program package
     J. Chem. Phys. 2020 152(22), 224108
     doi.org/10.1063/5.0004608
  4. Neese, F.
     Software update: The ORCA program system—Version 5.0
     WIRES Comput. Molec. Sci. 2022 12(1), e1606
     doi.org/10.1002/wcms.1606

List of optional additional citations

  1. Neese, F.
     Approximate second-order SCF convergence for spin unrestricted wavefunctions
     Chem. Phys. Lett. 2000 325(1-3), 93-98
     doi.org/10.1016/s0009-2614(00)00662-x

Timings for individual modules:

Sum of individual times          ...      267.226 sec (=   4.454 min)
Startup calculation              ...       49.000 sec (=   0.817 min)  18.3 %
SCF iterations                   ...      101.219 sec (=   1.687 min)  37.9 %
Property integrals               ...       99.734 sec (=   1.662 min)  37.3 %
SCF Response                     ...       11.140 sec (=   0.186 min)   4.2 %
Property calculations            ...        6.134 sec (=   0.102 min)   2.3 %
                             ****ORCA TERMINATED NORMALLY****
TOTAL RUN TIME: 0 days 0 hours 4 minutes 37 seconds 590 msec
