
                                 *****************
                                 * O   R   C   A *
                                 *****************

                                            #,                                       
                                            ###                                      
                                            ####                                     
                                            #####                                    
                                            ######                                   
                                           ########,                                 
                                     ,,################,,,,,                         
                               ,,#################################,,                 
                          ,,##########################################,,             
                       ,#########################################, ''#####,          
                    ,#############################################,,   '####,        
                  ,##################################################,,,,####,       
                ,###########''''           ''''###############################       
              ,#####''   ,,,,##########,,,,          '''####'''          '####       
            ,##' ,,,,###########################,,,                        '##       
           ' ,,###''''                  '''############,,,                           
         ,,##''                                '''############,,,,        ,,,,,,###''
      ,#''                                            '''#######################'''  
     '                                                          ''''####''''         
             ,#######,   #######,   ,#######,      ##                                
            ,#'     '#,  ##    ##  ,#'     '#,    #''#        ,####,    ,#,          
            ##       ##  ##   ,#'  ##            #'  '#       #'       ,# #          
            ##       ##  #######   ##           ,######,      #####,      #          
            '#,     ,#'  ##    ##  '#,     ,#' ,#      #,     #,   #      #          
             '#######'   ##     ##  '#######'  #'      '#     '####' #    #          



                #########################################################
                #                        -***-                          #
                #          Department of theory and spectroscopy        #
                #                                                       #
                #                      Frank Neese                      #
                #                                                       #
                #     Directorship, Architecture, Infrastructure        #
                #                    SHARK, DRIVERS                     #
                #        Core code/Algorithms in most modules           #
                #                                                       #
                #        Max Planck Institute fuer Kohlenforschung      #
                #                Kaiser Wilhelm Platz 1                 #
                #                 D-45470 Muelheim/Ruhr                 #
                #                      Germany                          #
                #                                                       #
                #                  All rights reserved                  #
                #                        -***-                          #
                #########################################################


                         Program Version 6.1.0-f.0  -   RELEASE   -


 With contributions from (in alphabetic order):
[Max-Planck-Institut fuer Kohlenforschung]                               
  Daniel Aravena         : Magnetic Suceptibility                        
  Michael Atanasov       : Ab Initio Ligand Field Theory (pilot matlab implementation)
  Alexander A. Auer      : GIAO ZORA, VPT2 properties, NMR spectrum      
  Ute Becker             : All parallelization in ORCA, NUMFREQ, NUMCALC 
  Giovanni Bistoni       : ED, misc. LED, open-shell LED, HFLD           
  Dmytro Bykov           : pre 5.0 version of the SCF Hessian            
  Marcos Casanova-Páez   : Triplet and SCS-CIS(D). UHF-(DLPNO)-IP/EA/STEOM-CCSD. UHF-CVS-IP/STEOM-CCSD   
  Vijay G. Chilkuri      : MRCI spin determinant printing, contributions to CSF-ICE 
  Pauline Colinet        : FMM embedding                                 
  Dipayan Datta          : RHF DLPNO-CCSD density                        
  Achintya Kumar Dutta   : EOM-CC, STEOM-CC                              
  Nicolas Foglia         : Exact transition moments, OPA infrastructure, MCD improvements    
  Dmitry Ganyushin       : Spin-Orbit,Spin-Spin,Magnetic field MRCI      
  Miquel Garcia-Rates    : C-PCM and meta-GGA Hessian, CCSD/C-PCM, Gaussian charge scheme 
  Tiago L. C. Gouveia    : GS-ROHF, GS-ROCIS                             
  Yang Guo               : DLPNO-NEVPT2, F12-NEVPT2, CIM, IAO-localization        
  Andreas Hansen         : Spin unrestricted coupled pair/coupled cluster methods 
  Ingolf Harden          : AUTO-CI MPn and infrastructure                
  Benjamin Helmich-Paris : MC-RPA, TRAH-(SCF,CASSCF), AVAS, COSX integrals, SCF dyn. polar., MC-PDFT, srDFT 
  Lee Huntington         : MR-EOM, pCC                                   
  Robert Izsak           : Overlap fitted RIJCOSX, COSX-SCS-MP3, EOM     
  Riya Kayal             : Wick's Theorem for AUTO-CI, AUTO-CI UHF-CCSDT 
  Emily Kempfer          : AUTO-CI RHF CISDT and CCSDT, approximate NEVPT4
  Christian Kollmar      : KDIIS, OOCD, Brueckner-CCSD(T), CCSD density, CASPT2, CASPT2-K, improved NEVPT2 
  Axel Koslowski         : Symmetry handling                             
  Simone Kossmann        : meta-GGA functionals, TD-DFT gradient, OOMP2, (MP2 Hessian; deprecated post 5.0) 
  Lucas Lang             : DCDCAS, Hyperfine gauge corrections, ICE-SOC+SSC
  Marvin Lechner         : AUTO-CI (C++ implementation), FIC-MRCC        
  Spencer Leger          : CASSCF response                               
  Dagmar Lenk            : GEPOL surface, SMD, ORCA-2-JSON               
  Dimitrios Liakos       : Extrapolation schemes; Compound Job, Property file
  Dimitrios Manganas     : Further ROCIS development; embedding schemes. LFT, Crystal Embedding 
  Dimitrios Pantazis     : SARC Basis sets                               
  Anastasios Papadopoulos: AUTO-CI, single reference methods and gradients 
  Taras Petrenko         : pre 6.0 DFT Hessian and TD-DFT gradient,  ECA, NRVS 
  Petra Pikulova         : Analytic Raman intensities                    
  Peter Pinski           : DLPNO-MP2, DLPNO-MP2 Gradient                 
  Shashank Vittal Rao    : ES-AILFT, MagRelax                            
  Christoph Reimann      : Effective Core Potentials                     
  Marius Retegan         : Local ZFS, SOC                                
  Christoph Riplinger    : Optimizer, TS searches, QM/MM, DLPNO-CCSD(T), (RO)-DLPNO pert. Triples 
  Michael Roemelt        : Original ROCIS implementation, recursive CI coupling coefficients
  Masaaki Saitow         : Open-shell DLPNO-CCSD energy and density      
  Barbara Sandhoefer     : DKH picture change effects                    
  Yorick L. A. Schmerwitz: GMF and freeze-and-release deltaSCF, NEB S-IDPP initial path                    
  Kantharuban Sivalingam : CASSCF convergence/infrastructure, NEVPT2, NEVPT3, NEVPT4(SD), FIC-MRCI and CEPA variants
  Bernardo de Souza      : ESD, SOC TD-DFT                               
  Georgi L. Stoychev     : AutoAux, RI-MP2 NMR, DLPNO-MP2 response, X2C  
  Van Anh Tran           : RI-MP2 g-tensors                              
  Willem Van den Heuvel  : Paramagnetic NMR                              
  Zikuan Wang            : NOTCH, Electric field optimization            
  Frank Wennmohs         : Technical directorship and infrastructure     
  Hang Xu                : AUTO-CI-Response properties                   
                                                                         
[FACCTs GmbH]                                                            
  Markus Bursch, Nicolas Foglia, Miquel Garcia-Rates, Ingolf Harden, Hagen Neugebauer, Anastasios Papadopoulos, 
  Christoph Riplinger, Bernardo de Souza, Georgi L. Stoychev                                                    
                                                                 
  APM, various basis sets, CI-OPT, improved COSX, DLPNO-Multilevel,           
  DOCKER, DRACO, updates on ESD, Fragmentator, GOAT, IRC, LR-CPCM, L-BFGS, MBIS, meta-GGA TD-DFT gradient, ML-optimized integration grids, 
  MM, NACMEs, nearIR, NEB, NEB-TS, NL-DFT gradient (VV10), 2- and 3-layer-ONIOM, interface openCOSMO-RS, QMMM,   
  Crystal-QMMM, RESP, rigid body optimization, SF, symmetry and pop. for TD-DFT, various functionals, SOLVATOR                                   
                                                                         
[Other institutions]                                                     
  V. Asgeirsson          : NEB                                           
  Christoph Bannwarth    : sTDA-DFT, sTD-DFT, PBEh-3c, B97-3c, D3        
  Giovanni Bistoni       : ETS/NOCV, ADLD/ADEX, COVALED                  
  Martin Brehm           : Molecular dynamics                            
  Ronald Cardenas        : ETS/NOCV                                      
  Martina Colucci        : COVALED                                       
  Sebastian Ehlert       : rSCAN, r2SCAN, r2SCAN-3c, D4, dhf basis sets  
  Marvin Friede          : D4 for Fr, Ra, Ac-Lr                          
  Lars Goerigk           : TD-DFT with DH, B97 family of functionals     
  Stefan Grimme          : VdW corrections, initial TS optimization, DFT functionals, gCP, sTDA/sTD-DF 
  Waldemar Hujo          : DFT-NL                                        
  H. Jonsson             : NEB                                           
  Holger Kruse           : gCP                                           
  Marcel Mueller         : wB97X-3c, vDZP basis set                      
  Hagen Neugebauer       : wr2SCAN, Native XTB                           
  Gianluca Regni         : ADLD/ADEX                                     
  Tobias Risthaus        : pre 6.0 range-separated hybrid DFT and stability analysis
  Lukas Wittmann         : regularized MP2, r2SCAN double-hybrids, wr2SCAN        
                                                                         
We gratefully acknowledge several colleagues who have allowed us to      
interface, adapt or use parts of their codes:                            
  Ed Valeev, F. Pavosevic, A. Kumar             : LibInt (2-el integral package), F12 methods 
  Garnet Chan, S. Sharma, J. Yang, R. Olivares  : DMRG                   
  Ulf Ekstrom                                   : XCFun DFT Library      
  Mihaly Kallay                                 : mrcc  (arbitrary order and MRCC methods)
  Frank Weinhold                                : gennbo (NPA and NBO analysis)           
  Simon Mueller                                 : openCOSMO-RS                            
  Christopher J. Cramer and Donald G. Truhlar   : smd solvation model                     
  S Lehtola, MJT Oliveira, MAL Marques          : LibXC Library                           
  Liviu Ungur et al                             : ANISO software                          


 Your calculation uses the libint2 library for the computation of 2-el integrals
 For citations please refer to: http://libint.valeyev.net

 Your ORCA version has been built with support for libXC version: 7.0.0
 For citations please refer to: https://libxc.gitlab.io

 This ORCA versions uses:
   CBLAS   interface :  Fast vector & matrix operations
   LAPACKE interface :  Fast linear algebra routines
   SCALAPACK package :  Parallel linear algebra routines
   Shared memory     :  Shared parallel matrices
   BLAS/LAPACK       :  OpenBLAS 0.3.29  USE64BITINT DYNAMIC_ARCH NO_AFFINITY Cooperlake SINGLE_THREADED
        Core in use  :  Cooperlake
   Copyright (c) 2011-2014, The OpenBLAS Project


  ***********************************
  * Starting time: Wed Mar  4 13:49:25 2026
  * Host name:     c07b01n02
  * Process ID:    1983099
  * Working dir.:  /lustre1/jiangy/jiangy_liuxy/NMR/B9D7C2-RSSR-NMR/opt_conf
  ***********************************

NOTE: MaxCore=5000 MB was set to SCF,MP2,MDCI,CIPSI,MRCI,RASCI and CIS
      => If you want to overwrite this, your respective input block should be placed after the MaxCore statement


***************************************
The coordinates will be read from file: opt-conf-10.xyz
***************************************



Warning: The global flag for NMR shieldings has been found
         but shieldings for certain elements have also been explicitly requested in the EPRNMR block
         ==>> only the requested shieldings will be calculated

================================================================================

----- Orbital basis set information -----
Your calculation utilizes the basis: pcSseg-2
   F. Jensen, J. Chem. Theory Comput. 11, 132 (2015).

----- AuxJ basis set information -----
Your calculation utilizes the AutoAux generation procedure.
  G. L. Stoychev, A. A. Auer, F. Neese, J. Chem. Theory Comput. 13, 554 (2017)

----- AuxC basis set information -----
Your calculation utilizes the AutoAux generation procedure.
  G. L. Stoychev, A. A. Auer, F. Neese, J. Chem. Theory Comput. 13, 554 (2017)

----- AuxJK basis set information -----
Your calculation utilizes the AutoAux generation procedure.
  G. L. Stoychev, A. A. Auer, F. Neese, J. Chem. Theory Comput. 13, 554 (2017)

----- AuxX basis set information -----
Your calculation utilizes the AutoAux generation procedure.
  G. L. Stoychev, A. A. Auer, F. Neese, J. Chem. Theory Comput. 13, 554 (2017)

================================================================================
                                        WARNINGS
                       Please study these warnings very carefully!
================================================================================


================================================================================
                                       INPUT FILE
================================================================================
NAME = nmr-conf-10.inp
|  1> !TPSS PCSSEG-2 AUTOAUX NMR CPCM(Methanol)
|  2> 
|  3> %pal nprocs 60 end
|  4> %maxcore 5000
|  5> 
|  6> *XYZFILE 0 1 opt-conf-10.xyz
|  7> 
|  8> %EPRNMR
|  9>    NUCLEI = ALL C {SHIFT}
| 10>    NUCLEI = ALL H {SHIFT}
| 11>    TAU DOBSON
| 12> END
| 13> 
| 14> 
| 15>                          ****END OF INPUT****
================================================================================

                       ****************************
                       * Single Point Calculation *
                       ****************************

---------------------------------
CARTESIAN COORDINATES (ANGSTROEM)
---------------------------------
  C     21.444438  -31.986813   -1.719600
  C     20.975674  -32.168720   -3.026002
  C     19.599693  -32.266138   -3.250737
  C     18.709911  -32.251247   -2.176462
  C     19.183443  -32.111641   -0.876282
  C     20.550432  -31.964916   -0.653217
  C     18.244486  -32.141459    0.303106
  C     18.322525  -33.464395    1.096922
  C     17.807391  -33.344711    2.544759
  C     18.793569  -32.595076    3.457754
  C     20.172655  -33.201333    3.534414
  C     20.340740  -34.540208    3.911826
  C     21.606820  -35.096132    4.001496
  C     22.741536  -34.313364    3.734364
  C     22.582979  -32.997235    3.346427
  C     21.304067  -32.449112    3.242945
  C     17.633996  -34.593200    0.329183
  C     16.415977  -32.717221    2.632519
  O     19.218316  -32.382722   -4.552997
  O     22.788333  -31.844249   -1.586097
  O     21.879701  -32.164338   -4.058660
  O     23.991729  -34.849153    3.856197
  O     21.884168  -36.389488    4.342593
  C     22.011133  -33.339194   -4.888652
  C     22.865761  -34.413224   -4.194510
  C     22.268753  -34.948892   -2.915779
  C     22.632049  -32.833719   -6.179916
  O     23.911824  -32.235943   -5.980477
  C     23.058772  -35.011188   -1.767318
  C     22.539255  -35.501644   -0.578794
  C     21.211328  -35.944449   -0.535651
  C     20.432536  -35.915291   -1.678466
  C     20.958901  -35.414615   -2.863528
  C     23.311681  -31.689044   -0.270249
  C     17.830674  -32.537229   -4.840456
  C     20.790872  -37.272783    4.587971
  O     23.136146  -35.478345   -5.124101
  O     17.852142  -35.879870    0.909718
  O     15.828356  -32.857647    3.931570
  O     23.210312  -35.595511    0.603519
  O     20.681815  -36.413189    0.636884
  C     24.616132  -35.342356    0.601016
  H     17.647914  -32.348341   -2.346260
  H     20.910922  -31.848102    0.357921
  H     17.219311  -31.973050   -0.036441
  H     18.494612  -31.314407    0.970745
  H     19.379822  -33.736557    1.163398
  H     17.711840  -34.368739    2.921108
  H     18.356198  -32.556604    4.459335
  H     18.884080  -31.558165    3.123809
  H     19.473107  -35.144511    4.135318
  H     23.462103  -32.404600    3.126268
  H     21.195160  -31.416248    2.935304
  H     16.551803  -34.448383    0.312687
  H     17.978699  -34.584199   -0.709155
  H     16.465728  -31.642054    2.451284
  H     15.752267  -33.151246    1.878387
  H     23.901942  -35.778025    4.117171
  H     21.025362  -33.743579   -5.123696
  H     23.839741  -33.977133   -3.974444
  H     21.940440  -32.118584   -6.637370
  H     22.777463  -33.665820   -6.865476
  H     23.798031  -31.502138   -5.362244
  H     24.076449  -34.650429   -1.805895
  H     19.413358  -36.275658   -1.631667
  H     20.325997  -35.377850   -3.740831
  H     23.056106  -32.541771    0.361182
  H     24.391355  -31.628786   -0.383969
  H     22.939730  -30.773241    0.196252
  H     17.258974  -31.669472   -4.502855
  H     17.759937  -32.622029   -5.922158
  H     17.430040  -33.440748   -4.374677
  H     20.198635  -36.932446    5.440538
  H     20.151102  -37.351193    3.705941
  H     21.232090  -38.240963    4.810337
  H     22.335403  -36.010950   -5.218928
  H     18.806338  -36.061922    0.894850
  H     15.739476  -33.801223    4.117019
  H     21.350482  -36.341129    1.335422
  H     24.826032  -34.305669    0.332198
  H     24.951225  -35.528078    1.616195
  H     25.124156  -36.011658   -0.097094

----------------------------
CARTESIAN COORDINATES (A.U.)
----------------------------
  NO LB      ZA    FRAG     MASS         X           Y           Z
   0 C     6.0000    0    12.011   40.524115  -60.446317   -3.249573
   1 C     6.0000    0    12.011   39.638279  -60.790071   -5.718316
   2 C     6.0000    0    12.011   37.038052  -60.974164   -6.143004
   3 C     6.0000    0    12.011   35.356607  -60.946024   -4.112918
   4 C     6.0000    0    12.011   36.251453  -60.682208   -1.655933
   5 C     6.0000    0    12.011   38.834689  -60.404937   -1.234400
   6 C     6.0000    0    12.011   34.477082  -60.738555    0.572787
   7 C     6.0000    0    12.011   34.624555  -63.238542    2.072882
   8 C     6.0000    0    12.011   33.651092  -63.012372    4.808898
   9 C     6.0000    0    12.011   35.514699  -61.595767    6.534208
  10 C     6.0000    0    12.011   38.120794  -62.741427    6.679074
  11 C     6.0000    0    12.011   38.438429  -65.271534    7.392280
  12 C     6.0000    0    12.011   40.830972  -66.322078    7.561731
  13 C     6.0000    0    12.011   42.975275  -64.842860    7.056926
  14 C     6.0000    0    12.011   42.675645  -62.355738    6.323831
  15 C     6.0000    0    12.011   40.258852  -61.319935    6.128278
  16 C     6.0000    0    12.011   33.323424  -65.371674    0.622066
  17 C     6.0000    0    12.011   31.021701  -61.826587    4.974740
  18 O     8.0000    0    15.999   36.317354  -61.194476   -8.603917
  19 O     8.0000    0    15.999   43.063709  -60.176910   -2.997289
  20 O     8.0000    0    15.999   41.346642  -60.781791   -7.669756
  21 O     8.0000    0    15.999   45.337796  -65.855355    7.287156
  22 O     8.0000    0    15.999   41.355084  -68.766166    8.206312
  23 C     6.0000    0    12.011   41.595012  -63.001946   -9.238213
  24 C     6.0000    0    12.011   43.210026  -65.031569   -7.926475
  25 C     6.0000    0    12.011   42.081845  -66.043835   -5.510023
  26 C     6.0000    0    12.011   42.768374  -62.046737  -11.678348
  27 O     8.0000    0    15.999   45.186799  -60.917105  -11.301464
  28 C     6.0000    0    12.011   43.574765  -66.161557   -3.339747
  29 C     6.0000    0    12.011   42.593020  -67.088384   -1.093763
  30 C     6.0000    0    12.011   40.083600  -67.925166   -1.012233
  31 C     6.0000    0    12.011   38.611897  -67.870064   -3.171841
  32 C     6.0000    0    12.011   39.606582  -66.923924   -5.411284
  33 C     6.0000    0    12.011   44.052693  -59.883615   -0.510696
  34 C     6.0000    0    12.011   33.695090  -61.486453   -9.147136
  35 C     6.0000    0    12.011   39.289054  -70.435352    8.670008
  36 O     8.0000    0    15.999   43.720980  -67.044356   -9.683147
  37 O     8.0000    0    15.999   33.735660  -67.803128    1.719118
  38 O     8.0000    0    15.999   29.911258  -62.091954    7.429591
  39 O     8.0000    0    15.999   43.861133  -67.265768    1.140486
  40 O     8.0000    0    15.999   39.082966  -68.810955    1.203537
  41 C     6.0000    0    12.011   46.517747  -66.787373    1.135756
  42 H     1.0000    0     1.008   33.349725  -61.129506   -4.433788
  43 H     1.0000    0     1.008   39.515916  -60.184191    0.676372
  44 H     1.0000    0     1.008   32.539782  -60.420309   -0.068864
  45 H     1.0000    0     1.008   34.949752  -59.175654    1.834442
  46 H     1.0000    0     1.008   36.622557  -63.752853    2.198504
  47 H     1.0000    0     1.008   33.470527  -64.947504    5.520094
  48 H     1.0000    0     1.008   34.688188  -61.523066    8.426922
  49 H     1.0000    0     1.008   35.685740  -59.636290    5.903143
  50 H     1.0000    0     1.008   36.798840  -66.413502    7.814618
  51 H     1.0000    0     1.008   44.336950  -61.235820    5.907790
  52 H     1.0000    0     1.008   40.053048  -59.368105    5.546920
  53 H     1.0000    0     1.008   31.278375  -65.098009    0.590893
  54 H     1.0000    0     1.008   33.974817  -65.354666   -1.340109
  55 H     1.0000    0     1.008   31.115717  -59.794817    4.632255
  56 H     1.0000    0     1.008   29.767470  -62.646776    3.549637
  57 H     1.0000    0     1.008   45.168125  -67.610669    7.780326
  58 H     1.0000    0     1.008   39.732176  -63.766123   -9.682381
  59 H     1.0000    0     1.008   45.050581  -64.207477   -7.510612
  60 H     1.0000    0     1.008   41.461422  -60.695327  -12.542811
  61 H     1.0000    0     1.008   43.043166  -63.619179  -12.973870
  62 H     1.0000    0     1.008   44.971760  -59.530413  -10.133173
  63 H     1.0000    0     1.008   45.497895  -65.479820   -3.412646
  64 H     1.0000    0     1.008   36.685930  -68.551059   -3.083404
  65 H     1.0000    0     1.008   38.410568  -66.854448   -7.069145
  66 H     1.0000    0     1.008   43.569727  -61.495034    0.682535
  67 H     1.0000    0     1.008   46.092981  -59.769743   -0.725595
  68 H     1.0000    0     1.008   43.349808  -58.152998    0.370863
  69 H     1.0000    0     1.008   32.614734  -59.846629   -8.509163
  70 H     1.0000    0     1.008   33.561417  -61.646702  -11.191257
  71 H     1.0000    0     1.008   32.938002  -63.193856   -8.266941
  72 H     1.0000    0     1.008   38.169888  -69.792208   10.281127
  73 H     1.0000    0     1.008   38.080065  -70.583526    7.003214
  74 H     1.0000    0     1.008   40.122835  -72.264948    9.090219
  75 H     1.0000    0     1.008   42.207794  -68.050833   -9.862344
  76 H     1.0000    0     1.008   35.538829  -68.147156    1.691022
  77 H     1.0000    0     1.008   29.743299  -63.875055    7.780038
  78 H     1.0000    0     1.008   40.346565  -68.674781    2.523582
  79 H     1.0000    0     1.008   46.914402  -64.828318    0.627763
  80 H     1.0000    0     1.008   47.150982  -67.138338    3.054166
  81 H     1.0000    0     1.008   47.477774  -68.052171   -0.183481

--------------------------------
INTERNAL COORDINATES (ANGSTROEM)
--------------------------------
 C      0   0   0     0.000000000000     0.00000000     0.00000000
 C      1   0   0     1.399827385652     0.00000000     0.00000000
 C      2   1   0     1.397611616644   119.26275193     0.00000000
 C      3   2   1     1.394991565739   120.22479702   356.71820244
 C      4   3   2     1.390751972086   120.25424221     1.32978685
 C      1   2   3     1.391725388361   120.13401667     2.90002409
 C      5   4   3     1.507807761468   121.14673922   182.16882065
 C      7   5   4     1.544795777280   112.79375019   105.53005145
 C      8   7   5     1.541402197185   113.53410130   158.53397615
 C      9   8   7     1.538850042994   112.39160569   285.88597455
 C     10   9   8     1.508410671474   114.85178121   302.36472828
 C     11  10   9     1.401170161427   120.49169835   304.42635598
 C     12  11  10     1.385658429402   120.69050247   180.89732613
 C     13  12  11     1.404160687164   120.15938815     1.02397038
 C     14  13  12     1.381242090451   119.46227745   358.22816982
 C     11  10   9     1.389562570084   121.07638732   124.85206354
 C      8   7   5     1.528952188132   110.57771287   285.72392331
 C      9   8   7     1.528881386162   112.95042660    51.66454712
 O      3   2   1     1.361954235361   115.81113988   177.20216694
 O      1   2   3     1.358014331427   115.89861842   182.68959072
 O      2   1   3     1.372467411767   118.76394251   176.07277904
 O     14  13  12     1.365611505454   120.27295705   178.27346200
 O     13  12  11     1.366029669074   125.55781453   180.84285952
 C     21   2   1     1.444453727586   119.31934327   119.45514084
 C     24  21   2     1.538103981052   111.05057567   280.74343162
 C     25  24  21     1.509474353001   114.22691880    63.36669112
 C     24  21   2     1.519343119584   104.76974009   158.58263907
 O     27  24  21     1.426512307638   112.78220733    60.55524694
 C     26  25  24     1.395339481006   119.28576950   229.50637632
 C     29  26  25     1.386734648780   120.60413416   180.16604603
 C     30  29  26     1.400475115242   119.56799401     0.34457478
 C     31  30  29     1.383255053470   120.11466225     1.20913311
 C     32  31  30     1.390002881343   119.91790270   358.39986275
 C     20   1   2     1.424583120087   117.76143028   181.48129863
 C     19   3   2     1.425502067387   118.33845916   177.64086208
 C     23  13  12     1.426785774226   118.26248509     2.25193788
 O     25  24  21     1.439350420756   109.24698954   188.38716457
 O     17   8   7     1.428330570648   113.09132167   170.82487795
 O     18   9   8     1.432673082047   112.64978537   167.91616025
 O     30  29  26     1.362715389341   125.69581691   180.74394614
 O     31  30  29     1.369283996610   120.08555434   180.91902873
 C     40  30  29     1.428433791281   118.09381970   351.01900254
 H      4   3   2     1.079858762229   120.34731342   181.35614504
 H      6   1   2     1.079813328104   120.31467210   178.55490426
 H      7   5   4     1.092994808430   109.75815099   342.73530681
 H      7   5   4     1.091933808066   108.70078323   226.32692396
 H      8   7   5     1.093786050839   107.04680924    41.21107639
 H      9   8   7     1.095171871067   106.22081810   168.09481696
 H     10   9   8     1.093589824478   107.71086978   180.12680122
 H     10   9   8     1.093112655115   109.50597702    65.01146247
 H     12  11  10     1.080702685243   119.58468469     0.88137967
 H     15  14  13     1.082841661901   119.03883895   181.00414663
 H     16  11  10     1.083194974040   119.59678048   358.69971524
 H     17   8   7     1.091964549903   110.85299463   289.81154716
 H     17   8   7     1.094096494726   109.18330901    47.76891264
 H     18   9   8     1.091468870282   110.68804537   285.65564406
 H     18   9   8     1.094350978045   110.46427300    44.84200553
 H     22  14  13     0.969005703603   108.37860612     1.08572496
 H     24  21   2     1.091107794269   110.06089771    42.67233814
 H     25  24  21     1.089605554340   107.95983912   302.04157482
 H     27  24  21     1.094991102590   108.31329843   297.84140560
 H     27  24  21     1.087901794859   109.61681047   179.37916575
 H     28  27  24     0.966246049394   107.58017080   301.26875933
 H     29  26  25     1.080417636145   119.27551872     1.62313806
 H     32  31  30     1.082024576601   119.18024431   179.03818037
 H     33  32  31     1.082394483697   118.80492810   181.47790142
 H     34  20   1     1.091405539886   111.29932439    58.88227248
 H     34  20   1     1.087317566121   105.91553063   177.99640739
 H     34  20   1     1.093007318722   111.13070534   297.00304264
 H     35  19   3     1.092619813986   111.15864883    61.77134251
 H     35  19   3     1.087324546785   105.80673472   180.66744678
 H     35  19   3     1.092613536637   111.13710807   299.58573452
 H     36  23  13     1.092449057504   110.90112497   297.43308888
 H     36  23  13     1.092441830027   110.75234312    59.31411113
 H     36  23  13     1.086964976865   105.99594776   178.37238428
 H     37  25  24     0.966359136696   108.39497675   284.47080371
 H     38  17   8     0.971521689782   108.21522255   298.64392544
 H     39  18   9     0.965726497279   107.91688390   298.92378785
 H     41  31  30     0.969672134271   108.95157332     1.80457817
 H     42  40  30     1.091348474349   110.98155479    64.61984124
 H     42  40  30     1.085066089731   105.78095666   183.28667546
 H     42  40  30     1.092434152834   110.50046900   302.84453928

---------------------------
INTERNAL COORDINATES (A.U.)
---------------------------
 C      0   0   0     0.000000000000     0.00000000     0.00000000
 C      1   0   0     2.645290393645     0.00000000     0.00000000
 C      2   1   0     2.641103197044   119.26275193     0.00000000
 C      3   2   1     2.636152018377   120.22479702   356.71820244
 C      4   3   2     2.628140347453   120.25424221     1.32978685
 C      1   2   3     2.629979837628   120.13401667     2.90002409
 C      5   4   3     2.849343731775   121.14673922   182.16882065
 C      7   5   4     2.919240951898   112.79375019   105.53005145
 C      8   7   5     2.912828014904   113.53410130   158.53397615
 C      9   8   7     2.908005142432   112.39160569   285.88597455
 C     10   9   8     2.850483066569   114.85178121   302.36472828
 C     11  10   9     2.647827872120   120.49169835   304.42635598
 C     12  11  10     2.618514946729   120.69050247   180.89732613
 C     13  12  11     2.653479146759   120.15938815     1.02397038
 C     14  13  12     2.610169275597   119.46227745   358.22816982
 C     11  10   9     2.625892703406   121.07638732   124.85206354
 C      8   7   5     2.889300907428   110.57771287   285.72392331
 C      9   8   7     2.889167111096   112.95042660    51.66454712
 O      3   2   1     2.573720511767   115.81113988   177.20216694
 O      1   2   3     2.566275172337   115.89861842   182.68959072
 O      2   1   3     2.593587535971   118.76394251   176.07277904
 O     14  13  12     2.580631750639   120.27295705   178.27346200
 O     13  12  11     2.581421965360   125.55781453   180.84285952
 C     21   2   1     2.729621958260   119.31934327   119.45514084
 C     24  21   2     2.906595289682   111.05057567   280.74343162
 C     25  24  21     2.852493133349   114.22691880    63.36669112
 C     24  21   2     2.871142399472   104.76974009   158.58263907
 O     27  24  21     2.695717588105   112.78220733    60.55524694
 C     26  25  24     2.636809482949   119.28576950   229.50637632
 C     29  26  25     2.620548706614   120.60413416   180.16604603
 C     30  29  26     2.646514425180   119.56799401     0.34457478
 C     31  30  29     2.613973224421   120.11466225     1.20913311
 C     32  31  30     2.626724771099   119.91790270   358.39986275
 C     20   1   2     2.692071951971   117.76143028   181.48129863
 C     19   3   2     2.693808510701   118.33845916   177.64086208
 C     23  13  12     2.696234365061   118.26248509     2.25193788
 O     25  24  21     2.719978105974   109.24698954   188.38716457
 O     17   8   7     2.699153607232   113.09132167   170.82487795
 O     18   9   8     2.707359764509   112.64978537   167.91616025
 O     30  29  26     2.575158884335   125.69581691   180.74394614
 O     31  30  29     2.587571753155   120.08555434   180.91902873
 C     40  30  29     2.699348665960   118.09381970   351.01900254
 H      4   3   2     2.040637323927   120.34731342   181.35614504
 H      6   1   2     2.040551465874   120.31467210   178.55490426
 H      7   5   4     2.065460853731   109.75815099   342.73530681
 H      7   5   4     2.063455853614   108.70078323   226.32692396
 H      8   7   5     2.066956085188   107.04680924    41.21107639
 H      9   8   7     2.069574905891   106.22081810   168.09481696
 H     10   9   8     2.066585271107   107.71086978   180.12680122
 H     10   9   8     2.065683551690   109.50597702    65.01146247
 H     12  11  10     2.042232107303   119.58468469     0.88137967
 H     15  14  13     2.046274187393   119.03883895   181.00414663
 H     16  11  10     2.046941850576   119.59678048   358.69971524
 H     17   8   7     2.063513947267   110.85299463   289.81154716
 H     17   8   7     2.067542739115   109.18330901    47.76891264
 H     18   9   8     2.062577248533   110.68804537   285.65564406
 H     18   9   8     2.068023642895   110.46427300    44.84200553
 H     22  14  13     1.831155402018   108.37860612     1.08572496
 H     24  21   2     2.061894913756   110.06089771    42.67233814
 H     25  24  21     2.059056091702   107.95983912   302.04157482
 H     27  24  21     2.069233302975   108.31329843   297.84140560
 H     27  24  21     2.055836452886   109.61681047   179.37916575
 H     28  27  24     1.825940411338   107.58017080   301.26875933
 H     29  26  25     2.041693442573   119.27551872     1.62313806
 H     32  31  30     2.044730119948   119.18024431   179.03818037
 H     33  32  31     2.045429143054   118.80492810   181.47790142
 H     34  20   1     2.062457571429   111.29932439    58.88227248
 H     34  20   1     2.054732420571   105.91553063   177.99640739
 H     34  20   1     2.065484494756   111.13070534   297.00304264
 H     35  19   3     2.064752216930   111.15864883    61.77134251
 H     35  19   3     2.054745612114   105.80673472   180.66744678
 H     35  19   3     2.064740354460   111.13710807   299.58573452
 H     36  23  13     2.064429533942   110.90112497   297.43308888
 H     36  23  13     2.064415875991   110.75234312    59.31411113
 H     36  23  13     2.054066123440   105.99594776   178.37238428
 H     37  25  24     1.826154115369   108.39497675   284.47080371
 H     38  17   8     1.835909926853   108.21522255   298.64392544
 H     39  18   9     1.824958600129   107.91688390   298.92378785
 H     41  31  30     1.832414773467   108.95157332     1.80457817
 H     42  40  30     2.062349733192   110.98155479    64.61984124
 H     42  40  30     2.050477746796   105.78095666   183.28667546
 H     42  40  30     2.064401368198   110.50046900   302.84453928

---------------------
BASIS SET INFORMATION
---------------------
There are 3 groups of distinct atoms

 Group   1 Type C   : 11s7p2d1f contracted to 4s5p2d1f pattern {7211/31111/11/1}
 Group   2 Type O   : 11s7p2d1f contracted to 4s5p2d1f pattern {7211/31111/11/1}
 Group   3 Type H   : 6s3p1d contracted to 3s2p1d pattern {411/21/1}

Atom   0C    basis set group =>   1
Atom   1C    basis set group =>   1
Atom   2C    basis set group =>   1
Atom   3C    basis set group =>   1
Atom   4C    basis set group =>   1
Atom   5C    basis set group =>   1
Atom   6C    basis set group =>   1
Atom   7C    basis set group =>   1
Atom   8C    basis set group =>   1
Atom   9C    basis set group =>   1
Atom  10C    basis set group =>   1
Atom  11C    basis set group =>   1
Atom  12C    basis set group =>   1
Atom  13C    basis set group =>   1
Atom  14C    basis set group =>   1
Atom  15C    basis set group =>   1
Atom  16C    basis set group =>   1
Atom  17C    basis set group =>   1
Atom  18O    basis set group =>   2
Atom  19O    basis set group =>   2
Atom  20O    basis set group =>   2
Atom  21O    basis set group =>   2
Atom  22O    basis set group =>   2
Atom  23C    basis set group =>   1
Atom  24C    basis set group =>   1
Atom  25C    basis set group =>   1
Atom  26C    basis set group =>   1
Atom  27O    basis set group =>   2
Atom  28C    basis set group =>   1
Atom  29C    basis set group =>   1
Atom  30C    basis set group =>   1
Atom  31C    basis set group =>   1
Atom  32C    basis set group =>   1
Atom  33C    basis set group =>   1
Atom  34C    basis set group =>   1
Atom  35C    basis set group =>   1
Atom  36O    basis set group =>   2
Atom  37O    basis set group =>   2
Atom  38O    basis set group =>   2
Atom  39O    basis set group =>   2
Atom  40O    basis set group =>   2
Atom  41C    basis set group =>   1
Atom  42H    basis set group =>   3
Atom  43H    basis set group =>   3
Atom  44H    basis set group =>   3
Atom  45H    basis set group =>   3
Atom  46H    basis set group =>   3
Atom  47H    basis set group =>   3
Atom  48H    basis set group =>   3
Atom  49H    basis set group =>   3
Atom  50H    basis set group =>   3
Atom  51H    basis set group =>   3
Atom  52H    basis set group =>   3
Atom  53H    basis set group =>   3
Atom  54H    basis set group =>   3
Atom  55H    basis set group =>   3
Atom  56H    basis set group =>   3
Atom  57H    basis set group =>   3
Atom  58H    basis set group =>   3
Atom  59H    basis set group =>   3
Atom  60H    basis set group =>   3
Atom  61H    basis set group =>   3
Atom  62H    basis set group =>   3
Atom  63H    basis set group =>   3
Atom  64H    basis set group =>   3
Atom  65H    basis set group =>   3
Atom  66H    basis set group =>   3
Atom  67H    basis set group =>   3
Atom  68H    basis set group =>   3
Atom  69H    basis set group =>   3
Atom  70H    basis set group =>   3
Atom  71H    basis set group =>   3
Atom  72H    basis set group =>   3
Atom  73H    basis set group =>   3
Atom  74H    basis set group =>   3
Atom  75H    basis set group =>   3
Atom  76H    basis set group =>   3
Atom  77H    basis set group =>   3
Atom  78H    basis set group =>   3
Atom  79H    basis set group =>   3
Atom  80H    basis set group =>   3
Atom  81H    basis set group =>   3
---------------------------------
AUXILIARY/J BASIS SET INFORMATION
---------------------------------
There are 3 groups of distinct atoms

 Group   1 Type C   : 15s13p12d5f5g contracted to 15s13p12d5f5g pattern {111111111111111/1111111111111/111111111111/11111/11111}
 Group   2 Type O   : 15s13p12d5f5g contracted to 15s13p12d5f5g pattern {111111111111111/1111111111111/111111111111/11111/11111}
 Group   3 Type H   : 12s4p3d2f contracted to 12s4p3d2f pattern {111111111111/1111/111/11}

Atom   0C    basis set group =>   1
Atom   1C    basis set group =>   1
Atom   2C    basis set group =>   1
Atom   3C    basis set group =>   1
Atom   4C    basis set group =>   1
Atom   5C    basis set group =>   1
Atom   6C    basis set group =>   1
Atom   7C    basis set group =>   1
Atom   8C    basis set group =>   1
Atom   9C    basis set group =>   1
Atom  10C    basis set group =>   1
Atom  11C    basis set group =>   1
Atom  12C    basis set group =>   1
Atom  13C    basis set group =>   1
Atom  14C    basis set group =>   1
Atom  15C    basis set group =>   1
Atom  16C    basis set group =>   1
Atom  17C    basis set group =>   1
Atom  18O    basis set group =>   2
Atom  19O    basis set group =>   2
Atom  20O    basis set group =>   2
Atom  21O    basis set group =>   2
Atom  22O    basis set group =>   2
Atom  23C    basis set group =>   1
Atom  24C    basis set group =>   1
Atom  25C    basis set group =>   1
Atom  26C    basis set group =>   1
Atom  27O    basis set group =>   2
Atom  28C    basis set group =>   1
Atom  29C    basis set group =>   1
Atom  30C    basis set group =>   1
Atom  31C    basis set group =>   1
Atom  32C    basis set group =>   1
Atom  33C    basis set group =>   1
Atom  34C    basis set group =>   1
Atom  35C    basis set group =>   1
Atom  36O    basis set group =>   2
Atom  37O    basis set group =>   2
Atom  38O    basis set group =>   2
Atom  39O    basis set group =>   2
Atom  40O    basis set group =>   2
Atom  41C    basis set group =>   1
Atom  42H    basis set group =>   3
Atom  43H    basis set group =>   3
Atom  44H    basis set group =>   3
Atom  45H    basis set group =>   3
Atom  46H    basis set group =>   3
Atom  47H    basis set group =>   3
Atom  48H    basis set group =>   3
Atom  49H    basis set group =>   3
Atom  50H    basis set group =>   3
Atom  51H    basis set group =>   3
Atom  52H    basis set group =>   3
Atom  53H    basis set group =>   3
Atom  54H    basis set group =>   3
Atom  55H    basis set group =>   3
Atom  56H    basis set group =>   3
Atom  57H    basis set group =>   3
Atom  58H    basis set group =>   3
Atom  59H    basis set group =>   3
Atom  60H    basis set group =>   3
Atom  61H    basis set group =>   3
Atom  62H    basis set group =>   3
Atom  63H    basis set group =>   3
Atom  64H    basis set group =>   3
Atom  65H    basis set group =>   3
Atom  66H    basis set group =>   3
Atom  67H    basis set group =>   3
Atom  68H    basis set group =>   3
Atom  69H    basis set group =>   3
Atom  70H    basis set group =>   3
Atom  71H    basis set group =>   3
Atom  72H    basis set group =>   3
Atom  73H    basis set group =>   3
Atom  74H    basis set group =>   3
Atom  75H    basis set group =>   3
Atom  76H    basis set group =>   3
Atom  77H    basis set group =>   3
Atom  78H    basis set group =>   3
Atom  79H    basis set group =>   3
Atom  80H    basis set group =>   3
Atom  81H    basis set group =>   3
---------------------------------
AUXILIARY/C BASIS SET INFORMATION
---------------------------------
There are 3 groups of distinct atoms

 Group   1 Type C   : 15s13p12d5f5g contracted to 15s13p12d5f5g pattern {111111111111111/1111111111111/111111111111/11111/11111}
 Group   2 Type O   : 15s13p12d5f5g contracted to 15s13p12d5f5g pattern {111111111111111/1111111111111/111111111111/11111/11111}
 Group   3 Type H   : 12s4p3d2f contracted to 12s4p3d2f pattern {111111111111/1111/111/11}

Atom   0C    basis set group =>   1
Atom   1C    basis set group =>   1
Atom   2C    basis set group =>   1
Atom   3C    basis set group =>   1
Atom   4C    basis set group =>   1
Atom   5C    basis set group =>   1
Atom   6C    basis set group =>   1
Atom   7C    basis set group =>   1
Atom   8C    basis set group =>   1
Atom   9C    basis set group =>   1
Atom  10C    basis set group =>   1
Atom  11C    basis set group =>   1
Atom  12C    basis set group =>   1
Atom  13C    basis set group =>   1
Atom  14C    basis set group =>   1
Atom  15C    basis set group =>   1
Atom  16C    basis set group =>   1
Atom  17C    basis set group =>   1
Atom  18O    basis set group =>   2
Atom  19O    basis set group =>   2
Atom  20O    basis set group =>   2
Atom  21O    basis set group =>   2
Atom  22O    basis set group =>   2
Atom  23C    basis set group =>   1
Atom  24C    basis set group =>   1
Atom  25C    basis set group =>   1
Atom  26C    basis set group =>   1
Atom  27O    basis set group =>   2
Atom  28C    basis set group =>   1
Atom  29C    basis set group =>   1
Atom  30C    basis set group =>   1
Atom  31C    basis set group =>   1
Atom  32C    basis set group =>   1
Atom  33C    basis set group =>   1
Atom  34C    basis set group =>   1
Atom  35C    basis set group =>   1
Atom  36O    basis set group =>   2
Atom  37O    basis set group =>   2
Atom  38O    basis set group =>   2
Atom  39O    basis set group =>   2
Atom  40O    basis set group =>   2
Atom  41C    basis set group =>   1
Atom  42H    basis set group =>   3
Atom  43H    basis set group =>   3
Atom  44H    basis set group =>   3
Atom  45H    basis set group =>   3
Atom  46H    basis set group =>   3
Atom  47H    basis set group =>   3
Atom  48H    basis set group =>   3
Atom  49H    basis set group =>   3
Atom  50H    basis set group =>   3
Atom  51H    basis set group =>   3
Atom  52H    basis set group =>   3
Atom  53H    basis set group =>   3
Atom  54H    basis set group =>   3
Atom  55H    basis set group =>   3
Atom  56H    basis set group =>   3
Atom  57H    basis set group =>   3
Atom  58H    basis set group =>   3
Atom  59H    basis set group =>   3
Atom  60H    basis set group =>   3
Atom  61H    basis set group =>   3
Atom  62H    basis set group =>   3
Atom  63H    basis set group =>   3
Atom  64H    basis set group =>   3
Atom  65H    basis set group =>   3
Atom  66H    basis set group =>   3
Atom  67H    basis set group =>   3
Atom  68H    basis set group =>   3
Atom  69H    basis set group =>   3
Atom  70H    basis set group =>   3
Atom  71H    basis set group =>   3
Atom  72H    basis set group =>   3
Atom  73H    basis set group =>   3
Atom  74H    basis set group =>   3
Atom  75H    basis set group =>   3
Atom  76H    basis set group =>   3
Atom  77H    basis set group =>   3
Atom  78H    basis set group =>   3
Atom  79H    basis set group =>   3
Atom  80H    basis set group =>   3
Atom  81H    basis set group =>   3
----------------------------------
AUXILIARY/JK BASIS SET INFORMATION
----------------------------------
There are 3 groups of distinct atoms

 Group   1 Type C   : 15s13p12d5f5g contracted to 15s13p12d5f5g pattern {111111111111111/1111111111111/111111111111/11111/11111}
 Group   2 Type O   : 15s13p12d5f5g contracted to 15s13p12d5f5g pattern {111111111111111/1111111111111/111111111111/11111/11111}
 Group   3 Type H   : 12s4p3d2f contracted to 12s4p3d2f pattern {111111111111/1111/111/11}

Atom   0C    basis set group =>   1
Atom   1C    basis set group =>   1
Atom   2C    basis set group =>   1
Atom   3C    basis set group =>   1
Atom   4C    basis set group =>   1
Atom   5C    basis set group =>   1
Atom   6C    basis set group =>   1
Atom   7C    basis set group =>   1
Atom   8C    basis set group =>   1
Atom   9C    basis set group =>   1
Atom  10C    basis set group =>   1
Atom  11C    basis set group =>   1
Atom  12C    basis set group =>   1
Atom  13C    basis set group =>   1
Atom  14C    basis set group =>   1
Atom  15C    basis set group =>   1
Atom  16C    basis set group =>   1
Atom  17C    basis set group =>   1
Atom  18O    basis set group =>   2
Atom  19O    basis set group =>   2
Atom  20O    basis set group =>   2
Atom  21O    basis set group =>   2
Atom  22O    basis set group =>   2
Atom  23C    basis set group =>   1
Atom  24C    basis set group =>   1
Atom  25C    basis set group =>   1
Atom  26C    basis set group =>   1
Atom  27O    basis set group =>   2
Atom  28C    basis set group =>   1
Atom  29C    basis set group =>   1
Atom  30C    basis set group =>   1
Atom  31C    basis set group =>   1
Atom  32C    basis set group =>   1
Atom  33C    basis set group =>   1
Atom  34C    basis set group =>   1
Atom  35C    basis set group =>   1
Atom  36O    basis set group =>   2
Atom  37O    basis set group =>   2
Atom  38O    basis set group =>   2
Atom  39O    basis set group =>   2
Atom  40O    basis set group =>   2
Atom  41C    basis set group =>   1
Atom  42H    basis set group =>   3
Atom  43H    basis set group =>   3
Atom  44H    basis set group =>   3
Atom  45H    basis set group =>   3
Atom  46H    basis set group =>   3
Atom  47H    basis set group =>   3
Atom  48H    basis set group =>   3
Atom  49H    basis set group =>   3
Atom  50H    basis set group =>   3
Atom  51H    basis set group =>   3
Atom  52H    basis set group =>   3
Atom  53H    basis set group =>   3
Atom  54H    basis set group =>   3
Atom  55H    basis set group =>   3
Atom  56H    basis set group =>   3
Atom  57H    basis set group =>   3
Atom  58H    basis set group =>   3
Atom  59H    basis set group =>   3
Atom  60H    basis set group =>   3
Atom  61H    basis set group =>   3
Atom  62H    basis set group =>   3
Atom  63H    basis set group =>   3
Atom  64H    basis set group =>   3
Atom  65H    basis set group =>   3
Atom  66H    basis set group =>   3
Atom  67H    basis set group =>   3
Atom  68H    basis set group =>   3
Atom  69H    basis set group =>   3
Atom  70H    basis set group =>   3
Atom  71H    basis set group =>   3
Atom  72H    basis set group =>   3
Atom  73H    basis set group =>   3
Atom  74H    basis set group =>   3
Atom  75H    basis set group =>   3
Atom  76H    basis set group =>   3
Atom  77H    basis set group =>   3
Atom  78H    basis set group =>   3
Atom  79H    basis set group =>   3
Atom  80H    basis set group =>   3
Atom  81H    basis set group =>   3
---------------------------------
AUXILIARY/X BASIS SET INFORMATION
---------------------------------
There are 3 groups of distinct atoms

 Group   1 Type C   : 15s13p12d5f5g contracted to 15s13p12d5f5g pattern {111111111111111/1111111111111/111111111111/11111/11111}
 Group   2 Type O   : 15s13p12d5f5g contracted to 15s13p12d5f5g pattern {111111111111111/1111111111111/111111111111/11111/11111}
 Group   3 Type H   : 12s4p3d2f contracted to 12s4p3d2f pattern {111111111111/1111/111/11}

Atom   0C    basis set group =>   1
Atom   1C    basis set group =>   1
Atom   2C    basis set group =>   1
Atom   3C    basis set group =>   1
Atom   4C    basis set group =>   1
Atom   5C    basis set group =>   1
Atom   6C    basis set group =>   1
Atom   7C    basis set group =>   1
Atom   8C    basis set group =>   1
Atom   9C    basis set group =>   1
Atom  10C    basis set group =>   1
Atom  11C    basis set group =>   1
Atom  12C    basis set group =>   1
Atom  13C    basis set group =>   1
Atom  14C    basis set group =>   1
Atom  15C    basis set group =>   1
Atom  16C    basis set group =>   1
Atom  17C    basis set group =>   1
Atom  18O    basis set group =>   2
Atom  19O    basis set group =>   2
Atom  20O    basis set group =>   2
Atom  21O    basis set group =>   2
Atom  22O    basis set group =>   2
Atom  23C    basis set group =>   1
Atom  24C    basis set group =>   1
Atom  25C    basis set group =>   1
Atom  26C    basis set group =>   1
Atom  27O    basis set group =>   2
Atom  28C    basis set group =>   1
Atom  29C    basis set group =>   1
Atom  30C    basis set group =>   1
Atom  31C    basis set group =>   1
Atom  32C    basis set group =>   1
Atom  33C    basis set group =>   1
Atom  34C    basis set group =>   1
Atom  35C    basis set group =>   1
Atom  36O    basis set group =>   2
Atom  37O    basis set group =>   2
Atom  38O    basis set group =>   2
Atom  39O    basis set group =>   2
Atom  40O    basis set group =>   2
Atom  41C    basis set group =>   1
Atom  42H    basis set group =>   3
Atom  43H    basis set group =>   3
Atom  44H    basis set group =>   3
Atom  45H    basis set group =>   3
Atom  46H    basis set group =>   3
Atom  47H    basis set group =>   3
Atom  48H    basis set group =>   3
Atom  49H    basis set group =>   3
Atom  50H    basis set group =>   3
Atom  51H    basis set group =>   3
Atom  52H    basis set group =>   3
Atom  53H    basis set group =>   3
Atom  54H    basis set group =>   3
Atom  55H    basis set group =>   3
Atom  56H    basis set group =>   3
Atom  57H    basis set group =>   3
Atom  58H    basis set group =>   3
Atom  59H    basis set group =>   3
Atom  60H    basis set group =>   3
Atom  61H    basis set group =>   3
Atom  62H    basis set group =>   3
Atom  63H    basis set group =>   3
Atom  64H    basis set group =>   3
Atom  65H    basis set group =>   3
Atom  66H    basis set group =>   3
Atom  67H    basis set group =>   3
Atom  68H    basis set group =>   3
Atom  69H    basis set group =>   3
Atom  70H    basis set group =>   3
Atom  71H    basis set group =>   3
Atom  72H    basis set group =>   3
Atom  73H    basis set group =>   3
Atom  74H    basis set group =>   3
Atom  75H    basis set group =>   3
Atom  76H    basis set group =>   3
Atom  77H    basis set group =>   3
Atom  78H    basis set group =>   3
Atom  79H    basis set group =>   3
Atom  80H    basis set group =>   3
Atom  81H    basis set group =>   3
--------------------------------------------------------------------------
WARNING: There is at least one non-excluded one OpenFabrics device found,
but there are no active ports detected (or Open MPI was unable to use
them).  This is most certainly not what you wanted.  Check your
cables, subnet manager configuration, etc.  The openib BTL will be
ignored for this job.

  Local host: c07b01n02
--------------------------------------------------------------------------
--------------------------------------------------------------------------
WARNING: There was an error initializing an OpenFabrics device.

  Local host:   c07b01n02
  Local device: mlx5_0
--------------------------------------------------------------------------


           ************************************************************
           *        Program running with 60 parallel MPI-processes    *
           *              working on a common directory               *
           ************************************************************
------------------------------------------------------------------------------
                             ORCA STARTUP CALCULATIONS
                           -- RI-GTO INTEGRALS CHOSEN --
------------------------------------------------------------------------------
[c07b01n02:1983100] 9 more processes have sent help message help-mpi-btl-openib.txt / no active ports found
[c07b01n02:1983100] Set MCA parameter "orte_base_help_aggregate" to 0 to see all help / error messages
[c07b01n02:1983100] 49 more processes have sent help message help-mpi-btl-openib.txt / error in device init
------------------------------------------------------------------------------
                   ___                                                        
                  /   \      - P O W E R E D   B Y -                         
                 /     \                                                     
                 |  |  |   _    _      __       _____    __    __             
                 |  |  |  | |  | |    /  \     |  _  \  |  |  /  |          
                  \  \/   | |  | |   /    \    | | | |  |  | /  /          
                 / \  \   | |__| |  /  /\  \   | |_| |  |  |/  /          
                |  |  |   |  __  | /  /__\  \  |    /   |      \           
                |  |  |   | |  | | |   __   |  |    \   |  |\   \          
                \     /   | |  | | |  |  |  |  | |\  \  |  | \   \       
                 \___/    |_|  |_| |__|  |__|  |_| \__\ |__|  \__/        
                                                                              
                      - O R C A' S   B I G   F R I E N D -                    
                                      &                                       
                       - I N T E G R A L  F E E D E R -                       
                                                                              
 v1 FN, 2020, v2 2021, v3 2022-2024                                           
------------------------------------------------------------------------------


----------------------
SHARK INTEGRAL PACKAGE
----------------------

Number of atoms                             ...     82
Number of basis functions                   ...   2072
Number of shells                            ...    744
Maximum angular momentum                    ...      3
Integral batch strategy                     ... SHARK/LIBINT Hybrid
RI-J (if used) integral strategy            ... SPLIT-RIJ (Revised 2003 algorithm where possible)
Printlevel                                  ...      1
Contraction scheme used                     ... SEGMENTED contraction
Prescreening option                         ... SCHWARTZ
   Thresh                                   ... 1.000e-10
   Tcut                                     ... 1.000e-11
   Tpresel                                  ... 1.000e-11 
Coulomb Range Separation                    ... NOT USED
Exchange Range Separation                   ... NOT USED
Multipole approximations                    ... NOT USED
Finite Nucleus Model                        ... NOT USED
CABS basis                                  ... NOT available
Auxiliary Coulomb fitting basis             ... AVAILABLE
   # of basis functions in Aux-J            ...  10268
   # of shells in Aux-J                     ...   2940
   Maximum angular momentum in Aux-J        ...      4
Auxiliary J/K fitting basis                 ... AVAILABLE
   # of basis functions in Aux-JK           ...  10268
   # of shells in Aux-JK                    ...   2940
   Maximum angular momentum in Aux-JK       ...      4
Auxiliary Correlation fitting basis         ... AVAILABLE
   # of basis functions in Aux-C            ...  10268
   # of shells in Aux-C                     ...   2940
   Maximum angular momentum in Aux-C        ...      4
Auxiliary 'external' fitting basis          ... NOT available

Checking pre-screening integrals            ... done (  0.0 sec) Dimension = 744
   => SHARK Basis and OBASIS are compatible. Storing Pre-screening
Shell pair information
Shell pair cut-off parameter TPreSel        ...   1.0e-11
Total number of shell pairs                 ...    277140
Shell pairs after pre-screening             ...    149477
Total number of primitive shell pairs       ...    823733
Primitive shell pairs kept                  ...    273456
          la=0 lb=0:  28419 shell pairs
          la=1 lb=0:  49690 shell pairs
          la=1 lb=1:  20315 shell pairs
          la=2 lb=0:  19581 shell pairs
          la=2 lb=1:  14849 shell pairs
          la=2 lb=2:   2634 shell pairs
          la=3 lb=0:   6768 shell pairs
          la=3 lb=1:   5101 shell pairs
          la=3 lb=2:   1790 shell pairs
          la=3 lb=3:    330 shell pairs

Checking whether 4 symmetric matrices of dimension 2072 fit in memory
:Max Core in MB      =   5000.00
 MB in use           =    184.63
 MB left             =   4815.37
 MB needed           =     65.54
 Data fit in memory  = YES
Calculating RI/J V-Matrix + Cholesky decomp.... done (  6.9 sec)
Calculating RI/JK V-Matrix + Cholesky decomp.... done (  4.2 sec)
Calculating RI/C V-Matrix + Cholesky decomp.... done (  3.8 sec)
Calculating Nuclear repulsion               ... done (  0.0 sec) ENN=   5672.654611638087 Eh

Diagonalization of the overlap matrix:
Smallest eigenvalue                        ... 7.223e-06
Time for diagonalization                   ...    1.878 sec
Threshold for overlap eigenvalues          ... 1.000e-07
Number of eigenvalues below threshold      ... 0
Time for construction of square roots      ...    0.344 sec
Total time needed                          ...    2.259 sec

-------------------
DFT GRID GENERATION
-------------------

General Integration Accuracy     IntAcc      ... 4.388
Radial Grid Type                 RadialGrid  ... OptM3 with GC (2021)
Angular Grid (max. ang.)         AngularGrid ... 4 (Lebedev-302)
Angular grid pruning method      GridPruning ... 4 (adaptive)
Weight generation scheme         WeightScheme... mBecke (2022)
Basis function cutoff            BFCut       ... 1.0000e-10
Integration weight cutoff        WCut        ... 1.0000e-14
Partially contracted basis set               ... off
Rotationally invariant grid construction     ... off
Angular grids for H and He will be reduced by one unit
Diffuse basis detected: some atoms will have their outermost
                        angular grid increased by 1.

Total number of grid points                  ...   376857
Total number of batches                      ...     5934
Average number of points per batch           ...       63
Average number of grid points per atom       ...     4596
Grids setup in   3.2 sec
Initializing property integral containers    ... done (  0.3 sec)

SHARK setup successfully completed in  25.0 seconds

Maximum memory used throughout the entire STARTUP-calculation: 256.6 MB
--------------------------------------------------------------------------
WARNING: There was an error initializing an OpenFabrics device.

  Local host:   c07b01n02
  Local device: mlx5_0
--------------------------------------------------------------------------
--------------------------------------------------------------------------
WARNING: There is at least one non-excluded one OpenFabrics device found,
but there are no active ports detected (or Open MPI was unable to use
them).  This is most certainly not what you wanted.  Check your
cables, subnet manager configuration, etc.  The openib BTL will be
ignored for this job.

  Local host: c07b01n02
--------------------------------------------------------------------------


           ************************************************************
           *        Program running with 60 parallel MPI-processes    *
           *              working on a common directory               *
           ************************************************************
-------------------------------------------------------------------------------
                                 ORCA GUESS
                   Start orbitals & Density for SCF / CASSCF
-------------------------------------------------------------------------------

------------
SCF SETTINGS
------------
Hamiltonian:
 Density Functional     Method          .... DFT(GTOs)
 Exchange Functional    Exchange        .... TPSS
 Correlation Functional Correlation     .... TPSS
 LDA part of GGA corr.  LDAOpt          .... PW91-LDA
 Gradients option       PostSCFGGA      .... off
   NL short-range parameter             ....  5.000000
 RI-approximation to the Coulomb term is turned on
   Number of AuxJ basis functions       .... 10268


General Settings:
 Integral files         IntName         .... nmr-conf-10
 Hartree-Fock type      HFTyp           .... RHF
 Total Charge           Charge          ....    0
 Multiplicity           Mult            ....    1
 Number of Electrons    NEL             ....  314
 Basis Dimension        Dim             .... 2072
 Nuclear Repulsion      ENuc            ....   5672.6546116381 Eh

Convergence Acceleration:
 AO-DIIS                CNVDIIS         .... on
   Start iteration      DIISMaxIt       ....    12
   Startup error        DIISStart       ....  0.200000
   # of expansion vecs  DIISMaxEq       ....     5
   Bias factor          DIISBfac        ....   1.050
   Max. coefficient     DIISMaxC        ....  10.000
 MO-DIIS                CNVKDIIS        .... off
 Trust-Rad. Augm. Hess. CNVTRAH         .... auto
   Auto Start mean grad. ratio tolernc. ....  1.125000
   Auto Start start iteration           ....    50
   Auto Start num. interpolation iter.  ....    10
   Max. Number of Micro iterations      ....    24
   Max. Number of Macro iterations      .... Maxiter - #DIIS iter
   Number of Davidson start vectors     ....     2
   Converg. threshold    (grad. norm)   ....   5.000e-05
   Grad. Scal. Fac. for Micro threshold ....   0.100
   Minimum threshold for Micro iter.    ....   1.000e-02
   NR start threshold (gradient norm)   ....   1.000e-04
   Initial trust radius                 ....   0.400
   Minimum AH scaling param. (alpha)    ....   1.000
   Maximum AH scaling param. (alpha)    .... 1000.000
   Quad. conv. algorithm                .... NR
   White noise on init. David. guess    .... on
   Maximum white noise                  ....   0.010
   Pseudo random numbers                .... off
   Inactive MOs                         .... canonical
   Orbital update algorithm             .... Taylor
   Preconditioner                       .... Diag
   Full preconditioner red. dimension   ....   250
 SOSCF                 CNVSOSCF           .... on
   Start iteration     SOSCFMaxIt         ....   150
   Startup grad/error  SOSCFStart         ....  0.003300
   Hessian update      SOSCFHessUp        .... L-BFGS
   Autom. constraints  SOSCFAutoConstrain .... off
 Level Shifting         CNVShift        .... on
   Level shift para.    LevelShift      ....    0.2500
   Turn off err/grad.   ShiftErr        ....    0.0010
 Zerner damping         CNVZerner       .... off
 Static damping         CNVDamp         .... on
   Fraction old density DampFac         ....    0.7000
   Max. Damping (<1)    DampMax         ....    0.9800
   Min. Damping (>=0)   DampMin         ....    0.0000
   Turn off err/grad.   DampErr         ....    0.1000

SCF Procedure:
 Maximum # iterations   MaxIter         ....   125
 SCF integral mode      SCFMode         .... Direct
   Integral package                     .... SHARK and LIBINT hybrid scheme
 Reset frequency        DirectResetFreq ....    20
 Integral Threshold     Thresh          ....  1.000e-10 Eh
 Primitive CutOff       TCut            ....  1.000e-11 Eh

Convergence Tolerance:
 Convergence Check Mode ConvCheckMode   .... Total+1el-Energy
 Convergence forced     ConvForced      .... 0
 Energy Change          TolE            ....  1.000e-06 Eh
 1-El. energy change                    ....  1.000e-03 Eh
 Orbital Gradient       TolG            ....  5.000e-05
 Orbital Rotation angle TolX            ....  5.000e-05
 DIIS Error             TolErr          ....  1.000e-06

------------------------------
INITIAL GUESS: MODEL POTENTIAL
------------------------------
Loading Hartree-Fock densities                     ... done
Calculating cut-offs                               ... done
Initializing the effective Hamiltonian             ... done
Setting up the integral package (SHARK)            ... done
Starting the Coulomb interaction                   ... done (   1.8 sec)
Making the grid                                    ... done (   0.6 sec)
Mapping shells                                     ... done
Starting the XC term evaluation                    ... [c07b01n02:1983497] 51 more processes have sent help message help-mpi-btl-openib.txt / error in device init
[c07b01n02:1983497] Set MCA parameter "orte_base_help_aggregate" to 0 to see all help / error messages
[c07b01n02:1983497] 7 more processes have sent help message help-mpi-btl-openib.txt / no active ports found
done (   0.2 sec)
  promolecular density results
     # of electrons  =    313.970442656
     EX              =   -260.284991997
     EC              =    -10.631950878
     EX+EC           =   -270.916942874
Transforming the Hamiltonian                       ... done (   0.3 sec)
Diagonalizing the Hamiltonian                      ... done (   0.5 sec)
Back transforming the eigenvectors                 ... done (   0.2 sec)
Now organizing SCF variables                       ... done
                      ------------------
                      INITIAL GUESS DONE (   4.0 sec)
                      ------------------
             **** ENERGY FILE WAS UPDATED (nmr-conf-10.en.tmp) ****
Finished Guess after   8.0 sec
Maximum memory used throughout the entire GUESS-calculation: 287.9 MB
--------------------------------------------------------------------------
WARNING: There was an error initializing an OpenFabrics device.

  Local host:   c07b01n02
  Local device: mlx5_0
--------------------------------------------------------------------------
--------------------------------------------------------------------------
WARNING: There is at least one non-excluded one OpenFabrics device found,
but there are no active ports detected (or Open MPI was unable to use
them).  This is most certainly not what you wanted.  Check your
cables, subnet manager configuration, etc.  The openib BTL will be
ignored for this job.

  Local host: c07b01n02
--------------------------------------------------------------------------


           ************************************************************
           *        Program running with 60 parallel MPI-processes    *
           *              working on a common directory               *
           ************************************************************

-------------------------------------------------------------------------------------------
                                      ORCA LEAN-SCF
                              memory conserving SCF solver
-------------------------------------------------------------------------------------------

--------------------
CPCM SOLVATION MODEL
--------------------
CPCM parameters:
  Epsilon                                         ...      33.4280
  Refrac                                          ...       1.3288
  Rsolv                                           ...       1.3000
  Surface type                                    ... GAUSSIAN VDW
  Discretization scheme                           ... Constant charge density
    Threshold for H atoms                         ...       5.0000 (charges/Ang^2)
    Threshold for non-H atoms                     ...       5.0000 (charges/Ang^2)
  Epsilon function type                           ...         CPCM
Solvent:                                          ... METHANOL
Radii:
  Scheme                                          ... Element-dependent radii
  Radius for C  used is    3.8550 Bohr (=   2.0400 Ang.)
  Radius for O  used is    3.4469 Bohr (=   1.8240 Ang.)
  Radius for H  used is    2.4944 Bohr (=   1.3200 Ang.)
Calculating surface                               ...        done! (  0.1s)
Cavity surface points                             ...         6312
Cavity Volume                                     ...    4499.6609
Cavity Surface-area                               ...    2105.3846
Calculating surface distance matrix               ...        done! (  0.2s)
Performing Cholesky decomposition & store         ...        done! (  0.8s)
Overall time for CPCM initialization              ...                 1.1s

----------------------------------------D-I-I-S--------------------------------------------
Iteration    Energy (Eh)           Delta-E    RMSDP     MaxDP     DIISErr   Damp  Time(sec)
-------------------------------------------------------------------------------------------
               ***  Starting incremental Fock matrix formation  ***
[c07b01n02:1983919] 49 more processes have sent help message help-mpi-btl-openib.txt / error in device init
[c07b01n02:1983919] Set MCA parameter "orte_base_help_aggregate" to 0 to see all help / error messages
[c07b01n02:1983919] 9 more processes have sent help message help-mpi-btl-openib.txt / no active ports found
    1    -2033.0145905778899760     0.00e+00  8.13e-03  2.91e-01  2.37e-01  0.700  13.8
    2    -2033.4256264002506214    -4.11e-01  6.61e-03  2.33e-01  8.42e-02  0.700   8.5
                               ***Turning on AO-DIIS***
    3    -2033.5789928143676661    -1.53e-01  2.79e-03  7.53e-02  2.53e-02  0.700   7.6
    4    -2033.6716470497913178    -9.27e-02  4.70e-03  7.70e-02  1.19e-02  0.000   6.9
    5    -2033.8769316809530210    -2.05e-01  1.24e-03  3.14e-02  4.76e-03  0.000   6.8
                              *** Initializing SOSCF ***
---------------------------------------S-O-S-C-F--------------------------------------
Iteration    Energy (Eh)           Delta-E    RMSDP     MaxDP     MaxGrad    Time(sec)
--------------------------------------------------------------------------------------
    6    -2033.8783157156267407    -1.38e-03  3.95e-04  7.04e-03  1.44e-03     7.8
               *** Restarting incremental Fock matrix formation ***
    7    -2033.8784225459776280    -1.07e-04  3.02e-04  5.28e-03  1.26e-04     6.3
    8    -2033.8783991271247942     2.34e-05  7.75e-05  1.95e-03  6.83e-04     5.8
    9    -2033.8784381168634354    -3.90e-05  6.50e-05  9.86e-04  1.27e-04     5.5
   10    -2033.8784384263917673    -3.10e-07  1.89e-05  3.94e-04  1.09e-04     5.5
                 **** Energy Check signals convergence ****

               *****************************************************
               *                     SUCCESS                       *
               *           SCF CONVERGED AFTER  10 CYCLES          *
               *****************************************************

             **** ENERGY FILE WAS UPDATED (nmr-conf-10.en.tmp) ****

----------------
TOTAL SCF ENERGY
----------------

Total Energy       :      -2033.87843862579302 Eh          -55344.64598 eV

Components:
Nuclear Repulsion  :       5672.65461163808686 Eh          154360.77953 eV
Electronic Energy  :      -7706.48357194123673 Eh         -209704.07914 eV
One Electron Energy:     -14073.25790014729682 Eh         -382952.81641 eV
Two Electron Energy:       6366.77432820606009 Eh          173248.73727 eV
CPCM Dielectric    :         -0.04947832264288 Eh              -1.34637 eV

Virial components:
Potential Energy   :      -4061.11031638304030 Eh         -110508.42985 eV
Kinetic Energy     :       2027.23187775724705 Eh           55163.78387 eV
Virial Ratio       :          2.00327863869026

DFT components:
N(Alpha)           :      157.000070778079 electrons
N(Beta)            :      157.000070778079 electrons
N(Total)           :      314.000141556158 electrons
E(X)               :     -268.087999007004 Eh       
E(C)               :      -10.599545444822 Eh       
E(XC)              :     -278.687544451827 Eh       

CPCM Solvation Model Properties:
Surface-charge          :         -0.04252146285803
Corrected charge        :          0.00000000000000
Outlying charge corr.   :          0.00007739541142 Eh               0.00211 eV
Free-energy (cav+disp)  :  This term is not implemented in the current solvation scheme

---------------
SCF CONVERGENCE
---------------

  Last Energy change         ...    3.0953e-07  Tolerance :   1.0000e-06
  Last MAX-Density change    ...    3.9385e-04  Tolerance :   1.0000e-05
  Last RMS-Density change    ...    1.8871e-05  Tolerance :   1.0000e-06
  Last DIIS Error            ...    1.4415e-03  Tolerance :   1.0000e-06
  Last Orbital Gradient      ...    1.0874e-04  Tolerance :   5.0000e-05
  Last Orbital Rotation      ...    2.2245e-04  Tolerance :   5.0000e-05


----------------
ORBITAL ENERGIES
----------------

  NO   OCC          E(Eh)            E(eV) 
   0   2.0000     -18.921118      -514.8698 
   1   2.0000     -18.918525      -514.7992 
   2   2.0000     -18.918507      -514.7988 
   3   2.0000     -18.911721      -514.6141 
   4   2.0000     -18.909136      -514.5437 
   5   2.0000     -18.909057      -514.5416 
   6   2.0000     -18.900120      -514.2984 
   7   2.0000     -18.883909      -513.8573 
   8   2.0000     -18.880828      -513.7735 
   9   2.0000     -18.878138      -513.7003 
  10   2.0000     -18.868999      -513.4516 
  11   2.0000     -10.047801      -273.4146 
  12   2.0000     -10.046611      -273.3822 
  13   2.0000     -10.043991      -273.3109 
  14   2.0000     -10.042560      -273.2720 
  15   2.0000     -10.041648      -273.2471 
  16   2.0000     -10.041120      -273.2328 
  17   2.0000     -10.040162      -273.2067 
  18   2.0000     -10.038907      -273.1726 
  19   2.0000     -10.036594      -273.1096 
  20   2.0000     -10.033827      -273.0343 
  21   2.0000     -10.033609      -273.0284 
  22   2.0000     -10.032106      -272.9875 
  23   2.0000     -10.031108      -272.9603 
  24   2.0000     -10.028769      -272.8967 
  25   2.0000     -10.024672      -272.7852 
  26   2.0000     -10.020760      -272.6787 
  27   2.0000      -9.990267      -271.8490 
  28   2.0000      -9.990086      -271.8441 
  29   2.0000      -9.987757      -271.7807 
  30   2.0000      -9.987404      -271.7711 
  31   2.0000      -9.986790      -271.7544 
  32   2.0000      -9.985259      -271.7127 
  33   2.0000      -9.983933      -271.6766 
  34   2.0000      -9.983680      -271.6697 
  35   2.0000      -9.983131      -271.6548 
  36   2.0000      -9.983066      -271.6530 
  37   2.0000      -9.982266      -271.6313 
  38   2.0000      -9.979597      -271.5586 
  39   2.0000      -9.978496      -271.5287 
  40   2.0000      -9.975848      -271.4566 
  41   2.0000      -9.973734      -271.3991 
  42   2.0000      -1.015585       -27.6355 
  43   2.0000      -1.011125       -27.5141 
  44   2.0000      -1.007015       -27.4023 
  45   2.0000      -0.996719       -27.1221 
  46   2.0000      -0.990071       -26.9412 
  47   2.0000      -0.983206       -26.7544 
  48   2.0000      -0.979927       -26.6652 
  49   2.0000      -0.956171       -26.0187 
  50   2.0000      -0.950440       -25.8628 
  51   2.0000      -0.949414       -25.8349 
  52   2.0000      -0.942139       -25.6369 
  53   2.0000      -0.798493       -21.7281 
  54   2.0000      -0.796850       -21.6834 
  55   2.0000      -0.793618       -21.5955 
  56   2.0000      -0.759926       -20.6786 
  57   2.0000      -0.731972       -19.9180 
  58   2.0000      -0.716966       -19.5096 
  59   2.0000      -0.703284       -19.1373 
  60   2.0000      -0.700840       -19.0708 
  61   2.0000      -0.697409       -18.9775 
  62   2.0000      -0.696156       -18.9434 
  63   2.0000      -0.687039       -18.6953 
  64   2.0000      -0.667734       -18.1700 
  65   2.0000      -0.650744       -17.7076 
  66   2.0000      -0.649297       -17.6683 
  67   2.0000      -0.648054       -17.6345 
  68   2.0000      -0.638168       -17.3654 
  69   2.0000      -0.624962       -17.0061 
  70   2.0000      -0.617696       -16.8084 
  71   2.0000      -0.613267       -16.6878 
  72   2.0000      -0.578260       -15.7352 
  73   2.0000      -0.569037       -15.4843 
  74   2.0000      -0.562992       -15.3198 
  75   2.0000      -0.558432       -15.1957 
  76   2.0000      -0.550106       -14.9692 
  77   2.0000      -0.541871       -14.7451 
  78   2.0000      -0.540640       -14.7115 
  79   2.0000      -0.533240       -14.5102 
  80   2.0000      -0.513856       -13.9827 
  81   2.0000      -0.511941       -13.9306 
  82   2.0000      -0.504967       -13.7409 
  83   2.0000      -0.495593       -13.4858 
  84   2.0000      -0.480342       -13.0708 
  85   2.0000      -0.475508       -12.9392 
  86   2.0000      -0.471987       -12.8434 
  87   2.0000      -0.471152       -12.8207 
  88   2.0000      -0.464777       -12.6472 
  89   2.0000      -0.456868       -12.4320 
  90   2.0000      -0.452005       -12.2997 
  91   2.0000      -0.449058       -12.2195 
  92   2.0000      -0.444956       -12.1079 
  93   2.0000      -0.438755       -11.9391 
  94   2.0000      -0.437501       -11.9050 
  95   2.0000      -0.433344       -11.7919 
  96   2.0000      -0.429048       -11.6750 
  97   2.0000      -0.427699       -11.6383 
  98   2.0000      -0.422798       -11.5049 
  99   2.0000      -0.418692       -11.3932 
 100   2.0000      -0.416833       -11.3426 
 101   2.0000      -0.412950       -11.2369 
 102   2.0000      -0.407167       -11.0796 
 103   2.0000      -0.404967       -11.0197 
 104   2.0000      -0.401220       -10.9177 
 105   2.0000      -0.399523       -10.8716 
 106   2.0000      -0.398852       -10.8533 
 107   2.0000      -0.390987       -10.6393 
 108   2.0000      -0.386526       -10.5179 
 109   2.0000      -0.384181       -10.4541 
 110   2.0000      -0.383029       -10.4227 
 111   2.0000      -0.379229       -10.3194 
 112   2.0000      -0.377758       -10.2793 
 113   2.0000      -0.376807       -10.2534 
 114   2.0000      -0.374465       -10.1897 
 115   2.0000      -0.371039       -10.0965 
 116   2.0000      -0.368957       -10.0398 
 117   2.0000      -0.365248        -9.9389 
[...]
 
 sDSO           -51.990           42.135           34.261  iso=       8.135
 sPSO            75.407          -16.222           -0.357  iso=      19.609
        ---------------  ---------------  ---------------
 Total           23.417           25.913           33.904  iso=      27.745

 Orientation: 
  X           0.2770120    0.7636672   -0.5831610
  Y           0.7404762   -0.5564347   -0.3769288
  Z           0.6123392    0.3274030    0.7196165

 --------------
 Nucleus  73H :
 --------------

Diamagnetic contribution to the shielding tensor (ppm) : 
           -33.415         86.476        22.210
           -40.407         87.852         3.184
             0.262        -85.026      -105.440

Paramagnetic contribution to the shielding tensor (ppm): 
            61.984        -84.494       -19.355
            44.156        -59.960        -3.608
             1.752         85.134       132.423

Total shielding tensor (ppm): 
            28.569          1.982         2.855
             3.749         27.893        -0.424
             2.014          0.108        26.983


 Diagonalized sT*s matrix:
 
 sDSO           -70.909           19.667            0.239  iso=     -17.001
 sPSO            95.025            7.869           31.554  iso=      44.816
        ---------------  ---------------  ---------------
 Total           24.116           27.536           31.793  iso=      27.815

 Orientation: 
  X          -0.6368429   -0.1088220   -0.7632751
  Y           0.5238218    0.6653415   -0.5319130
  Z           0.5657224   -0.7385652   -0.3667146

 --------------
 Nucleus  74H :
 --------------

Diamagnetic contribution to the shielding tensor (ppm) : 
           -62.955          6.260         9.925
           -55.775         44.801       -13.233
            26.937       -118.674      -157.303

Paramagnetic contribution to the shielding tensor (ppm): 
            88.781         -4.227       -10.345
            55.636        -12.766         9.547
           -26.797        115.331       181.603

Total shielding tensor (ppm): 
            25.827          2.033        -0.419
            -0.139         32.035        -3.686
             0.140         -3.342        24.299


 Diagonalized sT*s matrix:
 
 sDSO          -175.638          -55.367           55.548  iso=     -58.486
 sPSO           198.563           81.099          -22.044  iso=      85.873
        ---------------  ---------------  ---------------
 Total           22.925           25.732           33.503  iso=      27.387

 Orientation: 
  X          -0.0781583   -0.9917093   -0.1019993
  Y           0.3668197    0.0665278   -0.9279102
  Z           0.9270030   -0.1099392    0.3585789

 --------------
 Nucleus  75H :
 --------------

Diamagnetic contribution to the shielding tensor (ppm) : 
           -65.762         -6.140       -21.676
           -56.679         17.953         8.833
           -60.890        236.717      -159.642

Paramagnetic contribution to the shielding tensor (ppm): 
            97.737         12.981        21.500
            62.616         14.474        -1.819
            60.913       -232.681       186.511

Total shielding tensor (ppm): 
            31.975          6.842        -0.177
             5.937         32.427         7.014
             0.023          4.036        26.868


 Diagonalized sT*s matrix:
 
 sDSO          -185.336           -7.845          -14.270  iso=     -69.150
 sPSO           207.324           37.249           54.149  iso=      99.574
        ---------------  ---------------  ---------------
 Total           21.988           29.404           39.879  iso=      30.424

 Orientation: 
  X           0.4023534   -0.6996952   -0.5903714
  Y          -0.6203724    0.2658481   -0.7378773
  Z           0.6732383    0.6631376   -0.3271067

 --------------
 Nucleus  76H :
 --------------

Diamagnetic contribution to the shielding tensor (ppm) : 
           -62.234         72.051        70.544
           -78.295         93.786        36.794
           -32.605        -89.746      -133.594

Paramagnetic contribution to the shielding tensor (ppm): 
           105.850        -78.275       -71.998
            71.162        -70.580       -38.093
            32.996         89.224       152.893

Total shielding tensor (ppm): 
            43.616         -6.224        -1.454
            -7.133         23.206        -1.299
             0.391         -0.522        19.300


 Diagonalized sT*s matrix:
 
 sDSO          -111.934           59.450          -49.557  iso=     -34.014
 sPSO           130.790          -37.789           95.162  iso=      62.721
        ---------------  ---------------  ---------------
 Total           18.856           21.661           45.605  iso=      28.707

 Orientation: 
  X           0.1339136    0.2453515   -0.9601405
  Y           0.3922627    0.8766111    0.2787167
  Z           0.9100534   -0.4139513    0.0211479

 --------------
 Nucleus  77H :
 --------------

Diamagnetic contribution to the shielding tensor (ppm) : 
            -8.500        135.703         9.419
           -14.426        115.472         5.630
            37.420       -121.416        76.346

Paramagnetic contribution to the shielding tensor (ppm): 
            34.632       -132.749       -14.523
            17.319        -76.748        -9.960
           -42.068        115.316       -48.628

Total shielding tensor (ppm): 
            26.132          2.953        -5.104
             2.893         38.724        -4.330
            -4.648         -6.099        27.718


 Diagonalized sT*s matrix:
 
 sDSO            55.393          -36.341          164.266  iso=      61.106
 sPSO           -33.506           64.891         -122.129  iso=     -30.248
        ---------------  ---------------  ---------------
 Total           21.887           28.550           42.137  iso=      30.858

 Orientation: 
  X           0.7293986    0.6234663    0.2815449
  Y           0.0755130   -0.4824261    0.8726757
  Z           0.6799084   -0.6152681   -0.3989608

 --------------
 Nucleus  78H :
 --------------

Diamagnetic contribution to the shielding tensor (ppm) : 
           -32.872          0.225        29.507
           -54.423         48.520        11.563
             4.785        -95.505       -96.828

Paramagnetic contribution to the shielding tensor (ppm): 
            61.860          2.873       -25.378
            56.429        -31.576       -13.255
             0.710         96.790       129.568

Total shielding tensor (ppm): 
            28.988          3.098         4.129
             2.006         16.944        -1.692
             5.495          1.284        32.740


 Diagonalized sT*s matrix:
 
 sDSO            51.144          -64.989          -67.335  iso=     -27.060
 sPSO           -34.796           91.213          103.435  iso=      53.284
        ---------------  ---------------  ---------------
 Total           16.348           26.224           36.100  iso=      26.224

 Orientation: 
  X           0.2357060    0.7788673    0.5812128
  Y          -0.9703279    0.2217930    0.0962896
  Z          -0.0539121   -0.5866630    0.8080346

 --------------
 Nucleus  79H :
 --------------

Diamagnetic contribution to the shielding tensor (ppm) : 
            90.645       -180.195       -46.992
            31.916        -66.701       -36.411
           -24.944        -71.365       -70.516

Paramagnetic contribution to the shielding tensor (ppm): 
           -61.250        183.829        46.542
           -30.293         94.266        35.492
            25.061         70.443        96.763

Total shielding tensor (ppm): 
            29.394          3.634        -0.450
             1.622         27.566        -0.919
             0.117         -0.922        26.247


 Diagonalized sT*s matrix:
 
 sDSO           -20.625           -3.158          -22.790  iso=     -15.524
 sPSO            45.865           29.775           54.140  iso=      43.260
        ---------------  ---------------  ---------------
 Total           25.240           26.617           31.350  iso=      27.736

 Orientation: 
  X          -0.4281325    0.4426182   -0.7879033
  Y           0.6927221   -0.3991801   -0.6006590
  Z           0.5803780    0.8029598    0.1357094

 --------------
 Nucleus  80H :
 --------------

Diamagnetic contribution to the shielding tensor (ppm) : 
            -0.447       -118.986       -20.992
           -31.733        -41.882       -24.978
             5.009       -124.714      -155.546

Paramagnetic contribution to the shielding tensor (ppm): 
            30.277        118.331        23.813
            30.599         63.991        24.739
            -5.480        124.410       185.267

Total shielding tensor (ppm): 
            29.829         -0.655         2.821
            -1.134         22.109        -0.239
            -0.471         -0.304        29.722


 Diagonalized sT*s matrix:
 
 sDSO           -60.412          -72.775          -64.687  iso=     -65.958
 sPSO            82.417          101.402           95.716  iso=      93.178
        ---------------  ---------------  ---------------
 Total           22.004           28.626           31.029  iso=      27.220

 Orientation: 
  X           0.1049114   -0.6935407    0.7127376
  Y           0.9942524    0.0577616   -0.0901431
  Z           0.0213490    0.7180982    0.6956143

 --------------
 Nucleus  81H :
 --------------

Diamagnetic contribution to the shielding tensor (ppm) : 
           -56.035       -200.062       -28.313
           -73.450        -82.955        -9.808
           -43.751        -16.976      -194.224

Paramagnetic contribution to the shielding tensor (ppm): 
            88.598        196.577        25.555
            69.036        108.674         9.432
            42.124         17.813       220.471

Total shielding tensor (ppm): 
            32.563         -3.485        -2.758
            -4.413         25.718        -0.376
            -1.627          0.837        26.247


 Diagonalized sT*s matrix:
 
 sDSO          -206.296         -165.692           38.773  iso=    -111.072
 sPSO           229.983          191.658           -3.898  iso=     139.248
        ---------------  ---------------  ---------------
 Total           23.687           25.966           34.875  iso=      28.176

 Orientation: 
  X           0.4449046   -0.0900996   -0.8910342
  Y           0.8458375    0.3692330    0.3850012
  Z           0.2943108   -0.9249589    0.2404830



--------------------------------
CHEMICAL SHIELDING SUMMARY (ppm)
--------------------------------


  Nucleus  Element    Isotropic     Anisotropy
  -------  -------  ------------   ------------
      0       C           24.921        125.284 
      1       C           44.507         93.934 
      2       C           26.122        117.798 
      3       C           76.452        124.356 
      4       C           39.383        192.906 
      5       C           76.811        135.418 
      6       C          146.942         34.238 
      7       C          133.227         18.646 
      8       C          135.748         24.585 
      9       C          143.555         41.086 
     10       C           43.740        182.811 
     11       C           70.933        153.288 
     12       C           29.947        118.478 
     13       C           32.119        123.589 
     14       C           67.513        144.409 
     15       C           56.284        147.378 
     16       C          115.357         73.143 
     17       C          112.519         64.361 
     23       C           95.871         50.165 
     24       C          103.425         46.473 
     25       C           43.960        182.948 
     26       C          113.098         55.026 
     28       C           66.577        143.038 
     29       C           32.054        118.280 
     30       C           33.166        120.656 
     31       C           68.199        147.388 
     32       C           62.553        175.058 
     33       C          123.384         74.317 
     34       C          124.889         79.689 
     35       C          124.153         79.703 
     41       C          124.872         78.077 
     42       H           25.590         10.028 
     43       H           25.944          8.409 
     44       H           30.120          6.814 
     45       H           28.920          4.832 
     46       H           30.724          4.345 
     47       H           29.008          3.000 
     48       H           28.146          8.074 
     49       H           29.117          4.363 
     50       H           24.575         10.329 
     51       H           24.824          2.960 
     52       H           24.619          5.658 
     53       H           28.229          5.540 
     54       H           28.008          7.592 
     55       H           28.436          5.090 
     56       H           27.485          6.268 
     57       H           25.299         12.643 
     58       H           26.676          4.713 
     59       H           27.074          3.673 
     60       H           27.413          7.928 
     61       H           27.247          5.616 
     62       H           29.616         15.635 
     63       H           24.814          8.762 
     64       H           25.331          5.219 
     65       H           25.176          5.488 
     66       H           28.705          8.745 
     67       H           27.608          7.059 
     68       H           28.191          7.991 
     69       H           27.974          9.662 
     70       H           27.539          9.653 
     71       H           27.924          7.460 
     72       H           27.745          9.239 
     73       H           27.815          5.966 
     74       H           27.387          9.175 
     75       H           30.424         14.183 
     76       H           28.707         25.346 
     77       H           30.858         16.918 
     78       H           26.224         14.814 
     79       H           27.736          5.422 
     80       H           27.220          5.713 
     81       H           28.176         10.048 


NMR shielding tensor and spin rotation calculation done in   2.8 sec 

Maximum memory used throughout the entire PROP-calculation: 365.5 MB
--------------------------------------------------------------------------
WARNING: There was an error initializing an OpenFabrics device.

  Local host:   c07b01n02
  Local device: mlx5_0
--------------------------------------------------------------------------
--------------------------------------------------------------------------
WARNING: There is at least one non-excluded one OpenFabrics device found,
but there are no active ports detected (or Open MPI was unable to use
them).  This is most certainly not what you wanted.  Check your
cables, subnet manager configuration, etc.  The openib BTL will be
ignored for this job.

  Local host: c07b01n02
--------------------------------------------------------------------------
[c07b01n02:1985933] 52 more processes have sent help message help-mpi-btl-openib.txt / error in device init
[c07b01n02:1985933] Set MCA parameter "orte_base_help_aggregate" to 0 to see all help / error messages
[c07b01n02:1985933] 6 more processes have sent help message help-mpi-btl-openib.txt / no active ports found

--------------------------------
SUGGESTED CITATIONS FOR THIS RUN
--------------------------------

Below you find a list of papers that are relevant to this ORCA run
We neither can nor want to force you to cite these papers, but we appreciate if you do
You receive ORCA, which is the product of decades of hard work by many enthusiastic individuals, for free
The only thing we kindly ask in return is that you cite our papers,
We deeply appreciate it, if you show your appreciation for ORCA by not just citing the generic ORCA reference.

Please note that relegating all ORCA citations to the supporting information does *not* help us.
SI sections are not indexed - citations you put there will not count into any citation statistics
But we need these citations in order to attract the funding resources that allow us to do what we are doing

Therefore, if you are a happy ORCA user, please consider citing a few of the papers listed below in the main body of your paper

In addition to the list printed below, the program has created the file nmr-conf-10.bibtex that contains the list in bibtex format
You can import this file easily into all common literature databanks and citation aid programs


List of essential papers. We consider these as the minimum necessary citations

  1. Neese, F.
     Software update: the ORCA program system, version 6.0
     WIRES Comput. Molec. Sci. 2025 15(1), e70019
     doi.org/10.1002/wcms.7019

List of papers to cite with high priority. The work reported in these papers was absolutely
necessary for this run to complete.
Our perspective: the developers of density functionals and basis sets usually get cited in chemistry papers
Good! But without the algorithms to do something with them, the functionals or basis sets would not do anything.
Hence, in our opinion, the algorithm design and method developments papers are equally worthy of getting cited

  1. Neese, F.
     An improvement of the resolution of the identity approximation for the formation of the Coulomb matrix
     J. Comp. Chem. 2003 24(14), 1740-1747
     doi.org/10.1002/jcc.10318
  2. Stoychev, G.L.; Auer, A.A.; Neese, F.
     Automatic Generation of Auxiliary Basis Sets
     J. Theo. Comp. Chem. 2017 13 , 554-562
     doi.org/10.1021/acs.jctc.6b01041
  3. Stoychev, G.L.; Auer, A.A.; Izsak, R.; Neese, F.
     Self-Consistent Field Calculation of Nuclear Magnetic Resonance Chemical Shielding Constants Using Gauge-Including Atomic Orbitals and Approximate Two-Electron Integrals
     J. Chem. Theory Comput. 2018 14(2), 619-637
     doi.org/10.1021/acs.jctc.7b01006
  4. Garcia-Rates, M.; Neese, F.
     Effect of the Solute Cavity on the Solvation Energy and its Derivatives within the Framework of the Gaussian Charge Scheme
     J. Comput. Chem. 2020 41 , 922-939
     doi.org/10.1002/jcc.26139
  5. Neese, F.
     The SHARK Integral Generation and Digestion System
     J. Comp. Chem. 2022 44(3), 381
     doi.org/10.1002/jcc.26942

List of suggested additional citations. These are papers that are important in the 'surrounding' of 
of this run, or papers that preceded the highly important papers. If you like your results we are grateful for a citation.

  1. Neese, F.
     The ORCA program system
     WIRES Comput. Molec. Sci. 2012 2(1), 73-78
     doi.org/10.1002/wcms.81
  2. Neese, F.
     Software update: the ORCA program system, version 4.0
     WIRES Comput. Molec. Sci. 2018 8(1), 1-6
     doi.org/10.1002/wcms.1327
  3. Neese, F.; Wennmohs, F.; Becker, U.; Riplinger, C.
     The ORCA quantum chemistry program package
     J. Chem. Phys. 2020 152(22), 224108
     doi.org/10.1063/5.0004608
  4. Neese, F.
     Software update: The ORCA program system—Version 5.0
     WIRES Comput. Molec. Sci. 2022 12(1), e1606
     doi.org/10.1002/wcms.1606

List of optional additional citations

  1. Neese, F.
     Approximate second-order SCF convergence for spin unrestricted wavefunctions
     Chem. Phys. Lett. 2000 325(1-3), 93-98
     doi.org/10.1016/s0009-2614(00)00662-x

Timings for individual modules:

Sum of individual times          ...      221.352 sec (=   3.689 min)
Startup calculation              ...       48.990 sec (=   0.816 min)  22.1 %
SCF iterations                   ...      100.756 sec (=   1.679 min)  45.5 %
Property integrals               ...       52.990 sec (=   0.883 min)  23.9 %
SCF Response                     ...       11.577 sec (=   0.193 min)   5.2 %
Property calculations            ...        7.040 sec (=   0.117 min)   3.2 %
                             ****ORCA TERMINATED NORMALLY****
TOTAL RUN TIME: 0 days 0 hours 3 minutes 53 seconds 27 msec
