
                                 *****************
                                 * O   R   C   A *
                                 *****************

                                            #,                                       
                                            ###                                      
                                            ####                                     
                                            #####                                    
                                            ######                                   
                                           ########,                                 
                                     ,,################,,,,,                         
                               ,,#################################,,                 
                          ,,##########################################,,             
                       ,#########################################, ''#####,          
                    ,#############################################,,   '####,        
                  ,##################################################,,,,####,       
                ,###########''''           ''''###############################       
              ,#####''   ,,,,##########,,,,          '''####'''          '####       
            ,##' ,,,,###########################,,,                        '##       
           ' ,,###''''                  '''############,,,                           
         ,,##''                                '''############,,,,        ,,,,,,###''
      ,#''                                            '''#######################'''  
     '                                                          ''''####''''         
             ,#######,   #######,   ,#######,      ##                                
            ,#'     '#,  ##    ##  ,#'     '#,    #''#        ,####,    ,#,          
            ##       ##  ##   ,#'  ##            #'  '#       #'       ,# #          
            ##       ##  #######   ##           ,######,      #####,      #          
            '#,     ,#'  ##    ##  '#,     ,#' ,#      #,     #,   #      #          
             '#######'   ##     ##  '#######'  #'      '#     '####' #    #          



                #########################################################
                #                        -***-                          #
                #          Department of theory and spectroscopy        #
                #                                                       #
                #                      Frank Neese                      #
                #                                                       #
                #     Directorship, Architecture, Infrastructure        #
                #                    SHARK, DRIVERS                     #
                #        Core code/Algorithms in most modules           #
                #                                                       #
                #        Max Planck Institute fuer Kohlenforschung      #
                #                Kaiser Wilhelm Platz 1                 #
                #                 D-45470 Muelheim/Ruhr                 #
                #                      Germany                          #
                #                                                       #
                #                  All rights reserved                  #
                #                        -***-                          #
                #########################################################


                         Program Version 6.1.0-f.0  -   RELEASE   -


 With contributions from (in alphabetic order):
[Max-Planck-Institut fuer Kohlenforschung]                               
  Daniel Aravena         : Magnetic Suceptibility                        
  Michael Atanasov       : Ab Initio Ligand Field Theory (pilot matlab implementation)
  Alexander A. Auer      : GIAO ZORA, VPT2 properties, NMR spectrum      
  Ute Becker             : All parallelization in ORCA, NUMFREQ, NUMCALC 
  Giovanni Bistoni       : ED, misc. LED, open-shell LED, HFLD           
  Dmytro Bykov           : pre 5.0 version of the SCF Hessian            
  Marcos Casanova-Páez   : Triplet and SCS-CIS(D). UHF-(DLPNO)-IP/EA/STEOM-CCSD. UHF-CVS-IP/STEOM-CCSD   
  Vijay G. Chilkuri      : MRCI spin determinant printing, contributions to CSF-ICE 
  Pauline Colinet        : FMM embedding                                 
  Dipayan Datta          : RHF DLPNO-CCSD density                        
  Achintya Kumar Dutta   : EOM-CC, STEOM-CC                              
  Nicolas Foglia         : Exact transition moments, OPA infrastructure, MCD improvements    
  Dmitry Ganyushin       : Spin-Orbit,Spin-Spin,Magnetic field MRCI      
  Miquel Garcia-Rates    : C-PCM and meta-GGA Hessian, CCSD/C-PCM, Gaussian charge scheme 
  Tiago L. C. Gouveia    : GS-ROHF, GS-ROCIS                             
  Yang Guo               : DLPNO-NEVPT2, F12-NEVPT2, CIM, IAO-localization        
  Andreas Hansen         : Spin unrestricted coupled pair/coupled cluster methods 
  Ingolf Harden          : AUTO-CI MPn and infrastructure                
  Benjamin Helmich-Paris : MC-RPA, TRAH-(SCF,CASSCF), AVAS, COSX integrals, SCF dyn. polar., MC-PDFT, srDFT 
  Lee Huntington         : MR-EOM, pCC                                   
  Robert Izsak           : Overlap fitted RIJCOSX, COSX-SCS-MP3, EOM     
  Riya Kayal             : Wick's Theorem for AUTO-CI, AUTO-CI UHF-CCSDT 
  Emily Kempfer          : AUTO-CI RHF CISDT and CCSDT, approximate NEVPT4
  Christian Kollmar      : KDIIS, OOCD, Brueckner-CCSD(T), CCSD density, CASPT2, CASPT2-K, improved NEVPT2 
  Axel Koslowski         : Symmetry handling                             
  Simone Kossmann        : meta-GGA functionals, TD-DFT gradient, OOMP2, (MP2 Hessian; deprecated post 5.0) 
  Lucas Lang             : DCDCAS, Hyperfine gauge corrections, ICE-SOC+SSC
  Marvin Lechner         : AUTO-CI (C++ implementation), FIC-MRCC        
  Spencer Leger          : CASSCF response                               
  Dagmar Lenk            : GEPOL surface, SMD, ORCA-2-JSON               
  Dimitrios Liakos       : Extrapolation schemes; Compound Job, Property file
  Dimitrios Manganas     : Further ROCIS development; embedding schemes. LFT, Crystal Embedding 
  Dimitrios Pantazis     : SARC Basis sets                               
  Anastasios Papadopoulos: AUTO-CI, single reference methods and gradients 
  Taras Petrenko         : pre 6.0 DFT Hessian and TD-DFT gradient,  ECA, NRVS 
  Petra Pikulova         : Analytic Raman intensities                    
  Peter Pinski           : DLPNO-MP2, DLPNO-MP2 Gradient                 
  Shashank Vittal Rao    : ES-AILFT, MagRelax                            
  Christoph Reimann      : Effective Core Potentials                     
  Marius Retegan         : Local ZFS, SOC                                
  Christoph Riplinger    : Optimizer, TS searches, QM/MM, DLPNO-CCSD(T), (RO)-DLPNO pert. Triples 
  Michael Roemelt        : Original ROCIS implementation, recursive CI coupling coefficients
  Masaaki Saitow         : Open-shell DLPNO-CCSD energy and density      
  Barbara Sandhoefer     : DKH picture change effects                    
  Yorick L. A. Schmerwitz: GMF and freeze-and-release deltaSCF, NEB S-IDPP initial path                    
  Kantharuban Sivalingam : CASSCF convergence/infrastructure, NEVPT2, NEVPT3, NEVPT4(SD), FIC-MRCI and CEPA variants
  Bernardo de Souza      : ESD, SOC TD-DFT                               
  Georgi L. Stoychev     : AutoAux, RI-MP2 NMR, DLPNO-MP2 response, X2C  
  Van Anh Tran           : RI-MP2 g-tensors                              
  Willem Van den Heuvel  : Paramagnetic NMR                              
  Zikuan Wang            : NOTCH, Electric field optimization            
  Frank Wennmohs         : Technical directorship and infrastructure     
  Hang Xu                : AUTO-CI-Response properties                   
                                                                         
[FACCTs GmbH]                                                            
  Markus Bursch, Nicolas Foglia, Miquel Garcia-Rates, Ingolf Harden, Hagen Neugebauer, Anastasios Papadopoulos, 
  Christoph Riplinger, Bernardo de Souza, Georgi L. Stoychev                                                    
                                                                 
  APM, various basis sets, CI-OPT, improved COSX, DLPNO-Multilevel,           
  DOCKER, DRACO, updates on ESD, Fragmentator, GOAT, IRC, LR-CPCM, L-BFGS, MBIS, meta-GGA TD-DFT gradient, ML-optimized integration grids, 
  MM, NACMEs, nearIR, NEB, NEB-TS, NL-DFT gradient (VV10), 2- and 3-layer-ONIOM, interface openCOSMO-RS, QMMM,   
  Crystal-QMMM, RESP, rigid body optimization, SF, symmetry and pop. for TD-DFT, various functionals, SOLVATOR                                   
                                                                         
[Other institutions]                                                     
  V. Asgeirsson          : NEB                                           
  Christoph Bannwarth    : sTDA-DFT, sTD-DFT, PBEh-3c, B97-3c, D3        
  Giovanni Bistoni       : ETS/NOCV, ADLD/ADEX, COVALED                  
  Martin Brehm           : Molecular dynamics                            
  Ronald Cardenas        : ETS/NOCV                                      
  Martina Colucci        : COVALED                                       
  Sebastian Ehlert       : rSCAN, r2SCAN, r2SCAN-3c, D4, dhf basis sets  
  Marvin Friede          : D4 for Fr, Ra, Ac-Lr                          
  Lars Goerigk           : TD-DFT with DH, B97 family of functionals     
  Stefan Grimme          : VdW corrections, initial TS optimization, DFT functionals, gCP, sTDA/sTD-DF 
  Waldemar Hujo          : DFT-NL                                        
  H. Jonsson             : NEB                                           
  Holger Kruse           : gCP                                           
  Marcel Mueller         : wB97X-3c, vDZP basis set                      
  Hagen Neugebauer       : wr2SCAN, Native XTB                           
  Gianluca Regni         : ADLD/ADEX                                     
  Tobias Risthaus        : pre 6.0 range-separated hybrid DFT and stability analysis
  Lukas Wittmann         : regularized MP2, r2SCAN double-hybrids, wr2SCAN        
                                                                         
We gratefully acknowledge several colleagues who have allowed us to      
interface, adapt or use parts of their codes:                            
  Ed Valeev, F. Pavosevic, A. Kumar             : LibInt (2-el integral package), F12 methods 
  Garnet Chan, S. Sharma, J. Yang, R. Olivares  : DMRG                   
  Ulf Ekstrom                                   : XCFun DFT Library      
  Mihaly Kallay                                 : mrcc  (arbitrary order and MRCC methods)
  Frank Weinhold                                : gennbo (NPA and NBO analysis)           
  Simon Mueller                                 : openCOSMO-RS                            
  Christopher J. Cramer and Donald G. Truhlar   : smd solvation model                     
  S Lehtola, MJT Oliveira, MAL Marques          : LibXC Library                           
  Liviu Ungur et al                             : ANISO software                          


 Your calculation uses the libint2 library for the computation of 2-el integrals
 For citations please refer to: http://libint.valeyev.net

 Your ORCA version has been built with support for libXC version: 7.0.0
 For citations please refer to: https://libxc.gitlab.io

 This ORCA versions uses:
   CBLAS   interface :  Fast vector & matrix operations
   LAPACKE interface :  Fast linear algebra routines
   SCALAPACK package :  Parallel linear algebra routines
   Shared memory     :  Shared parallel matrices
   BLAS/LAPACK       :  OpenBLAS 0.3.29  USE64BITINT DYNAMIC_ARCH NO_AFFINITY Cooperlake SINGLE_THREADED
        Core in use  :  Cooperlake
   Copyright (c) 2011-2014, The OpenBLAS Project


  ***********************************
  * Starting time: Wed Mar  4 13:49:25 2026
  * Host name:     c02b01n06
  * Process ID:    2446852
  * Working dir.:  /lustre1/jiangy/jiangy_liuxy/NMR/B9D7C2-RSSR-NMR/opt_conf
  ***********************************

NOTE: MaxCore=5000 MB was set to SCF,MP2,MDCI,CIPSI,MRCI,RASCI and CIS
      => If you want to overwrite this, your respective input block should be placed after the MaxCore statement


***************************************
The coordinates will be read from file: opt-conf-15.xyz
***************************************



Warning: The global flag for NMR shieldings has been found
         but shieldings for certain elements have also been explicitly requested in the EPRNMR block
         ==>> only the requested shieldings will be calculated

================================================================================

----- Orbital basis set information -----
Your calculation utilizes the basis: pcSseg-2
   F. Jensen, J. Chem. Theory Comput. 11, 132 (2015).

----- AuxJ basis set information -----
Your calculation utilizes the AutoAux generation procedure.
  G. L. Stoychev, A. A. Auer, F. Neese, J. Chem. Theory Comput. 13, 554 (2017)

----- AuxC basis set information -----
Your calculation utilizes the AutoAux generation procedure.
  G. L. Stoychev, A. A. Auer, F. Neese, J. Chem. Theory Comput. 13, 554 (2017)

----- AuxJK basis set information -----
Your calculation utilizes the AutoAux generation procedure.
  G. L. Stoychev, A. A. Auer, F. Neese, J. Chem. Theory Comput. 13, 554 (2017)

----- AuxX basis set information -----
Your calculation utilizes the AutoAux generation procedure.
  G. L. Stoychev, A. A. Auer, F. Neese, J. Chem. Theory Comput. 13, 554 (2017)

================================================================================
                                        WARNINGS
                       Please study these warnings very carefully!
================================================================================


================================================================================
                                       INPUT FILE
================================================================================
NAME = nmr-conf-15.inp
|  1> !TPSS PCSSEG-2 AUTOAUX NMR CPCM(Methanol)
|  2> 
|  3> %pal nprocs 60 end
|  4> %maxcore 5000
|  5> 
|  6> *XYZFILE 0 1 opt-conf-15.xyz
|  7> 
|  8> %EPRNMR
|  9>    NUCLEI = ALL C {SHIFT}
| 10>    NUCLEI = ALL H {SHIFT}
| 11>    TAU DOBSON
| 12> END
| 13> 
| 14> 
| 15>                          ****END OF INPUT****
================================================================================

                       ****************************
                       * Single Point Calculation *
                       ****************************

---------------------------------
CARTESIAN COORDINATES (ANGSTROEM)
---------------------------------
  C     21.439996  -32.031511   -1.615919
  C     21.004273  -32.222909   -2.933079
  C     19.632495  -32.298992   -3.191884
  C     18.716587  -32.276603   -2.139323
  C     19.157602  -32.137800   -0.828108
  C     20.519630  -31.998332   -0.572869
  C     18.188713  -32.152063    0.327761
  C     18.313404  -33.424604    1.190507
  C     17.769368  -33.257702    2.624606
  C     18.767436  -32.506031    3.528992
  C     20.145336  -33.117023    3.598640
  C     20.306865  -34.473245    3.908010
  C     21.570385  -35.036876    3.975328
  C     22.709870  -34.244806    3.760818
  C     22.557251  -32.908331    3.446141
  C     21.280708  -32.352583    3.359699
  C     17.723984  -34.632326    0.460081
  C     16.413703  -32.558781    2.732476
  O     19.278234  -32.397535   -4.503831
  O     22.779132  -31.882998   -1.448160
  O     21.941048  -32.235605   -3.938162
  O     23.957257  -34.789595    3.860255
  O     21.839578  -36.352568    4.230217
  C     22.020821  -33.383021   -4.802677
  C     22.882809  -34.496073   -4.177292
  C     22.348688  -35.003564   -2.862889
  C     22.620136  -32.811171   -6.088845
  O     22.758263  -33.785397   -7.129550
  C     23.161297  -34.972587   -1.730944
  C     22.679704  -35.409507   -0.505522
  C     21.370814  -35.894408   -0.410078
  C     20.569797  -35.957462   -1.537400
  C     21.057688  -35.510972   -2.759088
  C     23.268473  -31.736665   -0.118354
  C     17.894580  -32.514851   -4.825536
  C     20.746162  -37.222494    4.524132
  O     22.957570  -35.610977   -5.079306
  O     18.020646  -35.872718    1.107185
  O     15.348021  -33.211793    2.036105
  O     23.373956  -35.407081    0.668768
  O     20.881632  -36.315898    0.797677
  C     24.780920  -35.167942    0.620383
  H     17.658370  -32.363942   -2.335981
  H     20.856451  -31.878930    0.446201
  H     17.166679  -32.052764   -0.045269
  H     18.380472  -31.278567    0.955528
  H     19.382214  -33.631799    1.291106
  H     17.643890  -34.264188    3.036479
  H     18.341372  -32.458663    4.537022
  H     18.862300  -31.470475    3.191253
  H     19.436223  -35.088924    4.081572
  H     23.439508  -32.306412    3.267708
  H     21.176395  -31.305383    3.103169
  H     16.638104  -34.561683    0.416757
  H     18.100961  -34.647546   -0.567328
  H     16.156168  -32.454685    3.793029
  H     16.463536  -31.553255    2.311281
  H     23.864746  -35.731448    4.068287
  H     21.025003  -33.773865   -5.011713
  H     23.886019  -34.084776   -4.010091
  H     23.624181  -32.434387   -5.885808
  H     21.998330  -31.977685   -6.422055
  H     21.886994  -33.954548   -7.511918
  H     24.165410  -34.581690   -1.810195
  H     19.565878  -36.351715   -1.449513
  H     20.417220  -35.555333   -3.629869
  H     22.881331  -30.826645    0.347041
  H     23.001385  -32.596014    0.499182
  H     24.350331  -31.669674   -0.204680
  H     17.461481  -33.415610   -4.384080
  H     17.335759  -31.638978   -4.487410
  H     17.847495  -32.581288   -5.909821
  H     20.055648  -37.277311    3.679822
  H     21.183166  -38.200937    4.705705
  H     20.210615  -36.884037    5.414032
  H     23.066962  -35.248672   -5.976345
  H     18.983274  -35.999803    1.094700
  H     15.234530  -34.092949    2.413872
  H     21.571673  -36.203574    1.470036
  H     25.269587  -35.892601   -0.035131
  H     24.996132  -34.156908    0.270738
  H     25.133826  -35.281644    1.640464

----------------------------
CARTESIAN COORDINATES (A.U.)
----------------------------
  NO LB      ZA    FRAG     MASS         X           Y           Z
   0 C     6.0000    0    12.011   40.515721  -60.530783   -3.053645
   1 C     6.0000    0    12.011   39.692323  -60.892473   -5.542716
   2 C     6.0000    0    12.011   37.100039  -61.036248   -6.031787
   3 C     6.0000    0    12.011   35.369223  -60.993940   -4.042735
   4 C     6.0000    0    12.011   36.202621  -60.731641   -1.564897
   5 C     6.0000    0    12.011   38.776481  -60.468084   -1.082566
   6 C     6.0000    0    12.011   34.371687  -60.758593    0.619379
   7 C     6.0000    0    12.011   34.607318  -63.163347    2.249732
   8 C     6.0000    0    12.011   33.579238  -62.847949    4.959787
   9 C     6.0000    0    12.011   35.465314  -61.427496    6.668828
  10 C     6.0000    0    12.011   38.069168  -62.582104    6.800444
  11 C     6.0000    0    12.011   38.374413  -65.144992    7.385069
  12 C     6.0000    0    12.011   40.762119  -66.210100    7.512281
  13 C     6.0000    0    12.011   42.915436  -64.713306    7.106916
  14 C     6.0000    0    12.011   42.627027  -62.187733    6.512263
  15 C     6.0000    0    12.011   40.214709  -61.137522    6.348912
  16 C     6.0000    0    12.011   33.493475  -65.445611    0.869427
  17 C     6.0000    0    12.011   31.017403  -61.527179    5.163631
  18 O     8.0000    0    15.999   36.430583  -61.222468   -8.511008
  19 O     8.0000    0    15.999   43.046321  -60.250134   -2.736626
  20 O     8.0000    0    15.999   41.462572  -60.916466   -7.442048
  21 O     8.0000    0    15.999   45.272655  -65.742808    7.294825
  22 O     8.0000    0    15.999   41.270821  -68.696399    7.993952
  23 C     6.0000    0    12.011   41.613320  -63.084767   -9.075744
  24 C     6.0000    0    12.011   43.242243  -65.188130   -7.893937
  25 C     6.0000    0    12.011   42.232900  -66.147150   -5.410075
  26 C     6.0000    0    12.011   42.745862  -62.004128  -11.506249
  27 O     8.0000    0    15.999   43.006884  -63.845148  -13.472897
  28 C     6.0000    0    12.011   43.768508  -66.088613   -3.271010
  29 C     6.0000    0    12.011   42.858430  -66.914270   -0.955297
  30 C     6.0000    0    12.011   40.384985  -67.830601   -0.774935
  31 C     6.0000    0    12.011   38.871283  -67.949755   -2.905266
  32 C     6.0000    0    12.011   39.793263  -67.106011   -5.213920
  33 C     6.0000    0    12.011   43.971042  -59.973606   -0.223657
  34 C     6.0000    0    12.011   33.815856  -61.444164   -9.118941
  35 C     6.0000    0    12.011   39.204565  -70.340319    8.549370
  36 O     8.0000    0    15.999   43.383520  -67.294994   -9.598498
  37 O     8.0000    0    15.999   34.054085  -67.789612    2.092276
  38 O     8.0000    0    15.999   29.003556  -62.761194    3.847681
  39 O     8.0000    0    15.999   44.170376  -66.909687    1.263787
  40 O     8.0000    0    15.999   39.460565  -68.627102    1.507392
  41 C     6.0000    0    12.011   46.829152  -66.457779    1.172355
  42 H     1.0000    0     1.008   33.369484  -61.158987   -4.414365
  43 H     1.0000    0     1.008   39.412981  -60.242448    0.843199
  44 H     1.0000    0     1.008   32.440322  -60.570946   -0.085545
  45 H     1.0000    0     1.008   34.734058  -59.107925    1.805686
  46 H     1.0000    0     1.008   36.627077  -63.554890    2.439838
  47 H     1.0000    0     1.008   33.342119  -64.749931    5.738113
  48 H     1.0000    0     1.008   34.660171  -61.337984    8.573729
  49 H     1.0000    0     1.008   35.644581  -59.470579    6.030594
  50 H     1.0000    0     1.008   36.729138  -66.308457    7.713053
  51 H     1.0000    0     1.008   44.294250  -61.050271    6.175073
  52 H     1.0000    0     1.008   40.017588  -59.158601    5.864140
  53 H     1.0000    0     1.008   31.441461  -65.312116    0.787556
  54 H     1.0000    0     1.008   34.205859  -65.474372   -1.072094
  55 H     1.0000    0     1.008   30.530733  -61.330466    7.167786
  56 H     1.0000    0     1.008   31.111574  -59.627011    4.367687
  57 H     1.0000    0     1.008   45.097835  -67.522650    7.687948
  58 H     1.0000    0     1.008   39.731497  -63.823356   -9.470764
  59 H     1.0000    0     1.008   45.138034  -64.410893   -7.577975
  60 H     1.0000    0     1.008   44.643233  -61.292109  -11.122565
  61 H     1.0000    0     1.008   41.570819  -60.429067  -12.135925
  62 H     1.0000    0     1.008   41.360425  -64.164797  -14.195469
  63 H     1.0000    0     1.008   45.666008  -65.349924   -3.420773
  64 H     1.0000    0     1.008   36.974150  -68.694785   -2.739183
  65 H     1.0000    0     1.008   38.582955  -67.189842   -6.859458
  66 H     1.0000    0     1.008   43.239449  -58.253916    0.655812
  67 H     1.0000    0     1.008   43.466319  -61.597540    0.943317
  68 H     1.0000    0     1.008   46.015456  -59.847011   -0.386790
  69 H     1.0000    0     1.008   32.997417  -63.146351   -8.284711
  70 H     1.0000    0     1.008   32.759838  -59.789004   -8.479976
  71 H     1.0000    0     1.008   33.726879  -61.569711  -11.167942
  72 H     1.0000    0     1.008   37.899682  -70.443909    6.953856
  73 H     1.0000    0     1.008   40.030382  -72.189309    8.892494
  74 H     1.0000    0     1.008   38.192527  -69.700729   10.231037
  75 H     1.0000    0     1.008   43.590241  -66.610337  -11.293654
  76 H     1.0000    0     1.008   35.873190  -68.029769    2.068683
  77 H     1.0000    0     1.008   28.789090  -64.426337    4.561557
  78 H     1.0000    0     1.008   40.764554  -68.414840    2.777965
  79 H     1.0000    0     1.008   47.752599  -67.827186   -0.066388
  80 H     1.0000    0     1.008   47.235843  -64.547201    0.511621
  81 H     1.0000    0     1.008   47.496049  -66.672644    3.100027

--------------------------------
INTERNAL COORDINATES (ANGSTROEM)
--------------------------------
 C      0   0   0     0.000000000000     0.00000000     0.00000000
 C      1   0   0     1.400499197706     0.00000000     0.00000000
 C      2   1   0     1.398049696142   119.13136706     0.00000000
 C      3   2   1     1.395447816849   120.23286941   355.63002017
 C      4   3   2     1.390339964096   120.31554332     1.95210115
 C      1   2   3     1.391448420713   120.16404128     3.80195262
 C      5   4   3     1.508304374177   121.19961039   181.82984461
 C      7   5   4     1.542478119133   112.61297102   110.11806000
 C      8   7   5     1.542877602612   113.71208972   157.91308041
 C      9   8   7     1.542421063394   111.68800446   281.55370006
 C     10   9   8     1.508897465061   114.87453947   304.57085323
 C     11  10   9     1.400406854306   120.50926995   308.01106970
 C     12  11  10     1.385169360602   120.66491378   180.12453333
 C     13  12  11     1.404214023401   120.21624337     1.34734644
 C     14  13  12     1.381477698685   119.39579619   358.22706323
 C     11  10   9     1.389435093802   121.02982742   128.05590934
 C      8   7   5     1.529552556322   110.68066249   286.60078118
 C      9   8   7     1.529037065423   115.31855958    45.38339611
 O      3   2   1     1.362504009171   115.93217839   175.84116868
 O      1   2   3     1.357749364567   115.97684984   183.98963769
 O      2   1   3     1.374009164399   118.49708860   175.51247333
 O     14  13  12     1.364791553106   120.35652074   178.31410661
 O     13  12  11     1.366923707348   125.47547858   181.97627789
 C     21   2   1     1.438857785398   118.99123100   123.61494638
 C     24  21   2     1.540459951158   111.30260097   275.97777063
 C     25  24  21     1.506814006077   113.52410585    60.53564862
 C     24  21   2     1.529842093578   103.22457607   154.37359297
 O     27  24  21     1.432223101084   113.22949238   181.75137403
 C     26  25  24     1.393768919106   119.62282460   236.26829578
 C     29  26  25     1.387259743344   120.53075307   178.67330878
 C     30  29  26     1.399083182512   119.61650392     0.50102068
 C     31  30  29     1.384362211801   120.10262942     1.05201850
 C     32  31  30     1.389212236043   119.88613109   358.59124287
 C     20   1   2     1.424517971243   117.73499157   182.32364106
 C     19   3   2     1.425396087831   118.40270977   178.32618156
 C     23  13  12     1.427835376092   118.29437127   356.46982866
 O     25  24  21     1.436046890999   109.57815811   181.04977210
 O     17   8   7     1.430148150337   112.88081127   169.70374538
 O     18   9   8     1.430746225225   114.67214547    59.43981873
 O     30  29  26     1.364165242747   125.67277954   181.03801421
 O     31  30  29     1.369534864218   120.06537265   180.63754471
 C     40  30  29     1.427961554435   118.20110829   348.00792209
 H      4   3   2     1.079872430712   120.30015381   181.76683274
 H      6   1   2     1.079912251001   120.24613475   178.25880248
 H      7   5   4     1.092504676486   109.78021977   347.22781428
 H      7   5   4     1.092637384850   108.66276969   230.85765550
 H      8   7   5     1.093345940412   106.66823388    41.14577092
 H      9   8   7     1.094713468539   106.89816606   164.16234779
 H     10   9   8     1.095399046460   107.99673625   182.34000680
 H     10   9   8     1.093362887668   109.66920519    67.15934229
 H     12  11  10     1.080371284612   119.63244865     1.02712555
 H     15  14  13     1.082830271541   119.03153553   180.88574148
 H     16  11  10     1.083197231998   119.59934288   358.97547833
 H     17   8   7     1.089036822294   110.61072521   288.69537971
 H     17   8   7     1.094491828942   109.05796897    47.18027814
 H     18   9   8     1.096327406376   108.65798666   182.74482066
 H     18   9   8     1.091316196033   110.69857703   300.27622245
 H     22  14  13     0.968979378400   108.44423099     1.03961434
 H     24  21   2     1.090003770623   110.51892401    37.58653748
 H     25  24  21     1.097064368282   107.61868421   300.43440670
 H     27  24  21     1.091465790863   109.45209973    63.31385246
 H     27  24  21     1.091957555558   108.58938160   305.04616710
 H     28  27  24     0.966398738774   108.63962798    75.90617776
 H     29  26  25     1.080428254681   119.36141046     0.15933681
 H     32  31  30     1.082134003133   119.16024316   178.90822561
 H     33  32  31     1.081862169196   119.12645557   180.70006651
 H     34  20   1     1.092981768253   111.18287017   296.93402931
 H     34  20   1     1.091406364114   111.29992729    58.84562458
 H     34  20   1     1.087361574079   105.90193621   177.99417291
 H     35  19   3     1.092622719574   111.18871020   299.05250336
 H     35  19   3     1.092594744038   111.14070986    61.25631368
 H     35  19   3     1.087338223235   105.79072681   180.14414255
 H     36  23  13     1.092095823902   110.83229480    61.79633145
 H     36  23  13     1.086872876146   105.95997199   180.82050011
 H     36  23  13     1.092376167266   110.75388928   299.93054220
 H     37  25  24     0.973606442001   107.19750823    41.01516912
 H     38  17   8     0.971061575433   108.25965354   296.79072858
 H     39  18   9     0.965413127576   108.28160858    61.15185972
 H     41  31  30     0.969968605235   108.75651915     0.27858315
 H     42  40  30     1.092532146853   110.48442001   303.47898550
 H     42  40  30     1.091218403049   111.12116900    65.25679017
 H     42  40  30     1.085373206671   105.72244919   183.99454435

---------------------------
INTERNAL COORDINATES (A.U.)
---------------------------
 C      0   0   0     0.000000000000     0.00000000     0.00000000
 C      1   0   0     2.646559934440     0.00000000     0.00000000
 C      2   1   0     2.641931047319   119.13136706     0.00000000
 C      3   2   1     2.637014208022   120.23286941   355.63002017
 C      4   3   2     2.627361765187   120.31554332     1.95210115
 C      1   2   3     2.629456444625   120.16404128     3.80195262
 C      5   4   3     2.850282193790   121.19961039   181.82984461
 C      7   5   4     2.914861212728   112.61297102   110.11806000
 C      8   7   5     2.915616127097   113.71208972   157.91308041
 C      9   8   7     2.914753393006   111.68800446   281.55370006
 C     10   9   8     2.851402973132   114.87453947   304.57085323
 C     11  10   9     2.646385430704   120.50926995   308.01106970
 C     12  11  10     2.617590740637   120.66491378   180.12453333
 C     13  12  11     2.653579937639   120.21624337     1.34734644
 C     14  13  12     2.610614510635   119.39579619   358.22706323
 C     11  10   9     2.625651808146   121.02982742   128.05590934
 C      8   7   5     2.890435438887   110.68066249   286.60078118
 C      9   8   7     2.889461302264   115.31855958    45.38339611
 O      3   2   1     2.574759433703   115.93217839   175.84116868
 O      1   2   3     2.565774457537   115.97684984   183.98963769
 O      2   1   3     2.596501026213   118.49708860   175.51247333
 O     14  13  12     2.579082265260   120.35652074   178.31410661
 O     13  12  11     2.583111452853   125.47547858   181.97627789
 C     21   2   1     2.719047160063   118.99123100   123.61494638
 C     24  21   2     2.911047427962   111.30260097   275.97777063
 C     25  24  21     2.847465806243   113.52410585    60.53564862
 C     24  21   2     2.890982585006   103.22457607   154.37359297
 O     27  24  21     2.706509423724   113.22949238   181.75137403
 C     26  25  24     2.633841551083   119.62282460   236.26829578
 C     29  26  25     2.621540991534   120.53075307   178.67330878
 C     30  29  26     2.643884053523   119.61650392     0.50102068
 C     31  30  29     2.616065450453   120.10262942     1.05201850
 C     32  31  30     2.625230668014   119.88613109   358.59124287
 C     20   1   2     2.691948838499   117.73499157   182.32364106
 C     19   3   2     2.693608238363   118.40270977   178.32618156
 C     23  13  12     2.698217825139   118.29437127   356.46982866
 O     25  24  21     2.713735339457   109.57815811   181.04977210
 O     17   8   7     2.702588335071   112.88081127   169.70374538
 O     18   9   8     2.703718532816   114.67214547    59.43981873
 O     30  29  26     2.577898710206   125.67277954   181.03801421
 O     31  30  29     2.588045824229   120.06537265   180.63754471
 C     40  30  29     2.698456267651   118.20110829   348.00792209
 H      4   3   2     2.040663153617   120.30015381   181.76683274
 H      6   1   2     2.040738403059   120.24613475   178.25880248
 H      7   5   4     2.064534638587   109.78021977   347.22781428
 H      7   5   4     2.064785421050   108.66276969   230.85765550
 H      8   7   5     2.066124397014   106.66823388    41.14577092
 H      9   8   7     2.068708650654   106.89816606   164.16234779
 H     10   9   8     2.070004205168   107.99673625   182.34000680
 H     10   9   8     2.066156422686   109.66920519    67.15934229
 H     12  11  10     2.041605850869   119.63244865     1.02712555
 H     15  14  13     2.046252662733   119.03153553   180.88574148
 H     16  11  10     2.046946117498   119.59934288   358.97547833
 H     17   8   7     2.057981343891   110.61072521   288.69537971
 H     17   8   7     2.068289812515   109.05796897    47.18027814
 H     18   9   8     2.071758551163   108.65798666   182.74482066
 H     18   9   8     2.062288736016   110.69857703   300.27622245
 H     22  14  13     1.831105654592   108.44423099     1.03961434
 H     24  21   2     2.059808611418   110.51892401    37.58653748
 H     25  24  21     2.073151207337   107.61868421   300.43440670
 H     27  24  21     2.062571429275   109.45209973    63.31385246
 H     27  24  21     2.063500729871   108.58938160   305.04616710
 H     28  27  24     1.826228952450   108.63962798    75.90617776
 H     29  26  25     2.041713508698   119.36141046     0.15933681
 H     32  31  30     2.044936906124   119.16024316   178.90822561
 H     33  32  31     2.044423214430   119.12645557   180.70006651
 H     34  20   1     2.065436211366   111.18287017   296.93402931
 H     34  20   1     2.062459128995   111.29992729    58.84562458
 H     34  20   1     2.054815583558   105.90193621   177.99417291
 H     35  19   3     2.064757707696   111.18871020   299.05250336
 H     35  19   3     2.064704841593   111.14070986    61.25631368
 H     35  19   3     2.054771456859   105.79072681   180.14414255
 H     36  23  13     2.063762019174   110.83229480    61.79633145
 H     36  23  13     2.053892078303   105.95997199   180.82050011
 H     36  23  13     2.064291791356   110.75388928   299.93054220
 H     37  25  24     1.839849537604   107.19750823    41.01516912
 H     38  17   8     1.835040436742   108.25965354   296.79072858
 H     39  18   9     1.824366417212   108.28160858    61.15185972
 H     41  31  30     1.832975022396   108.75651915     0.27858315
 H     42  40  30     2.064586550057   110.48442001   303.47898550
 H     42  40  30     2.062103934057   111.12116900    65.25679017
 H     42  40  30     2.051058113704   105.72244919   183.99454435

---------------------
BASIS SET INFORMATION
---------------------
There are 3 groups of distinct atoms

 Group   1 Type C   : 11s7p2d1f contracted to 4s5p2d1f pattern {7211/31111/11/1}
 Group   2 Type O   : 11s7p2d1f contracted to 4s5p2d1f pattern {7211/31111/11/1}
 Group   3 Type H   : 6s3p1d contracted to 3s2p1d pattern {411/21/1}

Atom   0C    basis set group =>   1
Atom   1C    basis set group =>   1
Atom   2C    basis set group =>   1
Atom   3C    basis set group =>   1
Atom   4C    basis set group =>   1
Atom   5C    basis set group =>   1
Atom   6C    basis set group =>   1
Atom   7C    basis set group =>   1
Atom   8C    basis set group =>   1
Atom   9C    basis set group =>   1
Atom  10C    basis set group =>   1
Atom  11C    basis set group =>   1
Atom  12C    basis set group =>   1
Atom  13C    basis set group =>   1
Atom  14C    basis set group =>   1
Atom  15C    basis set group =>   1
Atom  16C    basis set group =>   1
Atom  17C    basis set group =>   1
Atom  18O    basis set group =>   2
Atom  19O    basis set group =>   2
Atom  20O    basis set group =>   2
Atom  21O    basis set group =>   2
Atom  22O    basis set group =>   2
Atom  23C    basis set group =>   1
Atom  24C    basis set group =>   1
Atom  25C    basis set group =>   1
Atom  26C    basis set group =>   1
Atom  27O    basis set group =>   2
Atom  28C    basis set group =>   1
Atom  29C    basis set group =>   1
Atom  30C    basis set group =>   1
Atom  31C    basis set group =>   1
Atom  32C    basis set group =>   1
Atom  33C    basis set group =>   1
Atom  34C    basis set group =>   1
Atom  35C    basis set group =>   1
Atom  36O    basis set group =>   2
Atom  37O    basis set group =>   2
Atom  38O    basis set group =>   2
Atom  39O    basis set group =>   2
Atom  40O    basis set group =>   2
Atom  41C    basis set group =>   1
Atom  42H    basis set group =>   3
Atom  43H    basis set group =>   3
Atom  44H    basis set group =>   3
Atom  45H    basis set group =>   3
Atom  46H    basis set group =>   3
Atom  47H    basis set group =>   3
Atom  48H    basis set group =>   3
Atom  49H    basis set group =>   3
Atom  50H    basis set group =>   3
Atom  51H    basis set group =>   3
Atom  52H    basis set group =>   3
Atom  53H    basis set group =>   3
Atom  54H    basis set group =>   3
Atom  55H    basis set group =>   3
Atom  56H    basis set group =>   3
Atom  57H    basis set group =>   3
Atom  58H    basis set group =>   3
Atom  59H    basis set group =>   3
Atom  60H    basis set group =>   3
Atom  61H    basis set group =>   3
Atom  62H    basis set group =>   3
Atom  63H    basis set group =>   3
Atom  64H    basis set group =>   3
Atom  65H    basis set group =>   3
Atom  66H    basis set group =>   3
Atom  67H    basis set group =>   3
Atom  68H    basis set group =>   3
Atom  69H    basis set group =>   3
Atom  70H    basis set group =>   3
Atom  71H    basis set group =>   3
Atom  72H    basis set group =>   3
Atom  73H    basis set group =>   3
Atom  74H    basis set group =>   3
Atom  75H    basis set group =>   3
Atom  76H    basis set group =>   3
Atom  77H    basis set group =>   3
Atom  78H    basis set group =>   3
Atom  79H    basis set group =>   3
Atom  80H    basis set group =>   3
Atom  81H    basis set group =>   3
---------------------------------
AUXILIARY/J BASIS SET INFORMATION
---------------------------------
There are 3 groups of distinct atoms

 Group   1 Type C   : 15s13p12d5f5g contracted to 15s13p12d5f5g pattern {111111111111111/1111111111111/111111111111/11111/11111}
 Group   2 Type O   : 15s13p12d5f5g contracted to 15s13p12d5f5g pattern {111111111111111/1111111111111/111111111111/11111/11111}
 Group   3 Type H   : 12s4p3d2f contracted to 12s4p3d2f pattern {111111111111/1111/111/11}

Atom   0C    basis set group =>   1
Atom   1C    basis set group =>   1
Atom   2C    basis set group =>   1
Atom   3C    basis set group =>   1
Atom   4C    basis set group =>   1
Atom   5C    basis set group =>   1
Atom   6C    basis set group =>   1
Atom   7C    basis set group =>   1
Atom   8C    basis set group =>   1
Atom   9C    basis set group =>   1
Atom  10C    basis set group =>   1
Atom  11C    basis set group =>   1
Atom  12C    basis set group =>   1
Atom  13C    basis set group =>   1
Atom  14C    basis set group =>   1
Atom  15C    basis set group =>   1
Atom  16C    basis set group =>   1
Atom  17C    basis set group =>   1
Atom  18O    basis set group =>   2
Atom  19O    basis set group =>   2
Atom  20O    basis set group =>   2
Atom  21O    basis set group =>   2
Atom  22O    basis set group =>   2
Atom  23C    basis set group =>   1
Atom  24C    basis set group =>   1
Atom  25C    basis set group =>   1
Atom  26C    basis set group =>   1
Atom  27O    basis set group =>   2
Atom  28C    basis set group =>   1
Atom  29C    basis set group =>   1
Atom  30C    basis set group =>   1
Atom  31C    basis set group =>   1
Atom  32C    basis set group =>   1
Atom  33C    basis set group =>   1
Atom  34C    basis set group =>   1
Atom  35C    basis set group =>   1
Atom  36O    basis set group =>   2
Atom  37O    basis set group =>   2
Atom  38O    basis set group =>   2
Atom  39O    basis set group =>   2
Atom  40O    basis set group =>   2
Atom  41C    basis set group =>   1
Atom  42H    basis set group =>   3
Atom  43H    basis set group =>   3
Atom  44H    basis set group =>   3
Atom  45H    basis set group =>   3
Atom  46H    basis set group =>   3
Atom  47H    basis set group =>   3
Atom  48H    basis set group =>   3
Atom  49H    basis set group =>   3
Atom  50H    basis set group =>   3
Atom  51H    basis set group =>   3
Atom  52H    basis set group =>   3
Atom  53H    basis set group =>   3
Atom  54H    basis set group =>   3
Atom  55H    basis set group =>   3
Atom  56H    basis set group =>   3
Atom  57H    basis set group =>   3
Atom  58H    basis set group =>   3
Atom  59H    basis set group =>   3
Atom  60H    basis set group =>   3
Atom  61H    basis set group =>   3
Atom  62H    basis set group =>   3
Atom  63H    basis set group =>   3
Atom  64H    basis set group =>   3
Atom  65H    basis set group =>   3
Atom  66H    basis set group =>   3
Atom  67H    basis set group =>   3
Atom  68H    basis set group =>   3
Atom  69H    basis set group =>   3
Atom  70H    basis set group =>   3
Atom  71H    basis set group =>   3
Atom  72H    basis set group =>   3
Atom  73H    basis set group =>   3
Atom  74H    basis set group =>   3
Atom  75H    basis set group =>   3
Atom  76H    basis set group =>   3
Atom  77H    basis set group =>   3
Atom  78H    basis set group =>   3
Atom  79H    basis set group =>   3
Atom  80H    basis set group =>   3
Atom  81H    basis set group =>   3
---------------------------------
AUXILIARY/C BASIS SET INFORMATION
---------------------------------
There are 3 groups of distinct atoms

 Group   1 Type C   : 15s13p12d5f5g contracted to 15s13p12d5f5g pattern {111111111111111/1111111111111/111111111111/11111/11111}
 Group   2 Type O   : 15s13p12d5f5g contracted to 15s13p12d5f5g pattern {111111111111111/1111111111111/111111111111/11111/11111}
 Group   3 Type H   : 12s4p3d2f contracted to 12s4p3d2f pattern {111111111111/1111/111/11}

Atom   0C    basis set group =>   1
Atom   1C    basis set group =>   1
Atom   2C    basis set group =>   1
Atom   3C    basis set group =>   1
Atom   4C    basis set group =>   1
Atom   5C    basis set group =>   1
Atom   6C    basis set group =>   1
Atom   7C    basis set group =>   1
Atom   8C    basis set group =>   1
Atom   9C    basis set group =>   1
Atom  10C    basis set group =>   1
Atom  11C    basis set group =>   1
Atom  12C    basis set group =>   1
Atom  13C    basis set group =>   1
Atom  14C    basis set group =>   1
Atom  15C    basis set group =>   1
Atom  16C    basis set group =>   1
Atom  17C    basis set group =>   1
Atom  18O    basis set group =>   2
Atom  19O    basis set group =>   2
Atom  20O    basis set group =>   2
Atom  21O    basis set group =>   2
Atom  22O    basis set group =>   2
Atom  23C    basis set group =>   1
Atom  24C    basis set group =>   1
Atom  25C    basis set group =>   1
Atom  26C    basis set group =>   1
Atom  27O    basis set group =>   2
Atom  28C    basis set group =>   1
Atom  29C    basis set group =>   1
Atom  30C    basis set group =>   1
Atom  31C    basis set group =>   1
Atom  32C    basis set group =>   1
Atom  33C    basis set group =>   1
Atom  34C    basis set group =>   1
Atom  35C    basis set group =>   1
Atom  36O    basis set group =>   2
Atom  37O    basis set group =>   2
Atom  38O    basis set group =>   2
Atom  39O    basis set group =>   2
Atom  40O    basis set group =>   2
Atom  41C    basis set group =>   1
Atom  42H    basis set group =>   3
Atom  43H    basis set group =>   3
Atom  44H    basis set group =>   3
Atom  45H    basis set group =>   3
Atom  46H    basis set group =>   3
Atom  47H    basis set group =>   3
Atom  48H    basis set group =>   3
Atom  49H    basis set group =>   3
Atom  50H    basis set group =>   3
Atom  51H    basis set group =>   3
Atom  52H    basis set group =>   3
Atom  53H    basis set group =>   3
Atom  54H    basis set group =>   3
Atom  55H    basis set group =>   3
Atom  56H    basis set group =>   3
Atom  57H    basis set group =>   3
Atom  58H    basis set group =>   3
Atom  59H    basis set group =>   3
Atom  60H    basis set group =>   3
Atom  61H    basis set group =>   3
Atom  62H    basis set group =>   3
Atom  63H    basis set group =>   3
Atom  64H    basis set group =>   3
Atom  65H    basis set group =>   3
Atom  66H    basis set group =>   3
Atom  67H    basis set group =>   3
Atom  68H    basis set group =>   3
Atom  69H    basis set group =>   3
Atom  70H    basis set group =>   3
Atom  71H    basis set group =>   3
Atom  72H    basis set group =>   3
Atom  73H    basis set group =>   3
Atom  74H    basis set group =>   3
Atom  75H    basis set group =>   3
Atom  76H    basis set group =>   3
Atom  77H    basis set group =>   3
Atom  78H    basis set group =>   3
Atom  79H    basis set group =>   3
Atom  80H    basis set group =>   3
Atom  81H    basis set group =>   3
----------------------------------
AUXILIARY/JK BASIS SET INFORMATION
----------------------------------
There are 3 groups of distinct atoms

 Group   1 Type C   : 15s13p12d5f5g contracted to 15s13p12d5f5g pattern {111111111111111/1111111111111/111111111111/11111/11111}
 Group   2 Type O   : 15s13p12d5f5g contracted to 15s13p12d5f5g pattern {111111111111111/1111111111111/111111111111/11111/11111}
 Group   3 Type H   : 12s4p3d2f contracted to 12s4p3d2f pattern {111111111111/1111/111/11}

Atom   0C    basis set group =>   1
Atom   1C    basis set group =>   1
Atom   2C    basis set group =>   1
Atom   3C    basis set group =>   1
Atom   4C    basis set group =>   1
Atom   5C    basis set group =>   1
Atom   6C    basis set group =>   1
Atom   7C    basis set group =>   1
Atom   8C    basis set group =>   1
Atom   9C    basis set group =>   1
Atom  10C    basis set group =>   1
Atom  11C    basis set group =>   1
Atom  12C    basis set group =>   1
Atom  13C    basis set group =>   1
Atom  14C    basis set group =>   1
Atom  15C    basis set group =>   1
Atom  16C    basis set group =>   1
Atom  17C    basis set group =>   1
Atom  18O    basis set group =>   2
Atom  19O    basis set group =>   2
Atom  20O    basis set group =>   2
Atom  21O    basis set group =>   2
Atom  22O    basis set group =>   2
Atom  23C    basis set group =>   1
Atom  24C    basis set group =>   1
Atom  25C    basis set group =>   1
Atom  26C    basis set group =>   1
Atom  27O    basis set group =>   2
Atom  28C    basis set group =>   1
Atom  29C    basis set group =>   1
Atom  30C    basis set group =>   1
Atom  31C    basis set group =>   1
Atom  32C    basis set group =>   1
Atom  33C    basis set group =>   1
Atom  34C    basis set group =>   1
Atom  35C    basis set group =>   1
Atom  36O    basis set group =>   2
Atom  37O    basis set group =>   2
Atom  38O    basis set group =>   2
Atom  39O    basis set group =>   2
Atom  40O    basis set group =>   2
Atom  41C    basis set group =>   1
Atom  42H    basis set group =>   3
Atom  43H    basis set group =>   3
Atom  44H    basis set group =>   3
Atom  45H    basis set group =>   3
Atom  46H    basis set group =>   3
Atom  47H    basis set group =>   3
Atom  48H    basis set group =>   3
Atom  49H    basis set group =>   3
Atom  50H    basis set group =>   3
Atom  51H    basis set group =>   3
Atom  52H    basis set group =>   3
Atom  53H    basis set group =>   3
Atom  54H    basis set group =>   3
Atom  55H    basis set group =>   3
Atom  56H    basis set group =>   3
Atom  57H    basis set group =>   3
Atom  58H    basis set group =>   3
Atom  59H    basis set group =>   3
Atom  60H    basis set group =>   3
Atom  61H    basis set group =>   3
Atom  62H    basis set group =>   3
Atom  63H    basis set group =>   3
Atom  64H    basis set group =>   3
Atom  65H    basis set group =>   3
Atom  66H    basis set group =>   3
Atom  67H    basis set group =>   3
Atom  68H    basis set group =>   3
Atom  69H    basis set group =>   3
Atom  70H    basis set group =>   3
Atom  71H    basis set group =>   3
Atom  72H    basis set group =>   3
Atom  73H    basis set group =>   3
Atom  74H    basis set group =>   3
Atom  75H    basis set group =>   3
Atom  76H    basis set group =>   3
Atom  77H    basis set group =>   3
Atom  78H    basis set group =>   3
Atom  79H    basis set group =>   3
Atom  80H    basis set group =>   3
Atom  81H    basis set group =>   3
---------------------------------
AUXILIARY/X BASIS SET INFORMATION
---------------------------------
There are 3 groups of distinct atoms

 Group   1 Type C   : 15s13p12d5f5g contracted to 15s13p12d5f5g pattern {111111111111111/1111111111111/111111111111/11111/11111}
 Group   2 Type O   : 15s13p12d5f5g contracted to 15s13p12d5f5g pattern {111111111111111/1111111111111/111111111111/11111/11111}
 Group   3 Type H   : 12s4p3d2f contracted to 12s4p3d2f pattern {111111111111/1111/111/11}

Atom   0C    basis set group =>   1
Atom   1C    basis set group =>   1
Atom   2C    basis set group =>   1
Atom   3C    basis set group =>   1
Atom   4C    basis set group =>   1
Atom   5C    basis set group =>   1
Atom   6C    basis set group =>   1
Atom   7C    basis set group =>   1
Atom   8C    basis set group =>   1
Atom   9C    basis set group =>   1
Atom  10C    basis set group =>   1
Atom  11C    basis set group =>   1
Atom  12C    basis set group =>   1
Atom  13C    basis set group =>   1
Atom  14C    basis set group =>   1
Atom  15C    basis set group =>   1
Atom  16C    basis set group =>   1
Atom  17C    basis set group =>   1
Atom  18O    basis set group =>   2
Atom  19O    basis set group =>   2
Atom  20O    basis set group =>   2
Atom  21O    basis set group =>   2
Atom  22O    basis set group =>   2
Atom  23C    basis set group =>   1
Atom  24C    basis set group =>   1
Atom  25C    basis set group =>   1
Atom  26C    basis set group =>   1
Atom  27O    basis set group =>   2
Atom  28C    basis set group =>   1
Atom  29C    basis set group =>   1
Atom  30C    basis set group =>   1
Atom  31C    basis set group =>   1
Atom  32C    basis set group =>   1
Atom  33C    basis set group =>   1
Atom  34C    basis set group =>   1
Atom  35C    basis set group =>   1
Atom  36O    basis set group =>   2
Atom  37O    basis set group =>   2
Atom  38O    basis set group =>   2
Atom  39O    basis set group =>   2
Atom  40O    basis set group =>   2
Atom  41C    basis set group =>   1
Atom  42H    basis set group =>   3
Atom  43H    basis set group =>   3
Atom  44H    basis set group =>   3
Atom  45H    basis set group =>   3
Atom  46H    basis set group =>   3
Atom  47H    basis set group =>   3
Atom  48H    basis set group =>   3
Atom  49H    basis set group =>   3
Atom  50H    basis set group =>   3
Atom  51H    basis set group =>   3
Atom  52H    basis set group =>   3
Atom  53H    basis set group =>   3
Atom  54H    basis set group =>   3
Atom  55H    basis set group =>   3
Atom  56H    basis set group =>   3
Atom  57H    basis set group =>   3
Atom  58H    basis set group =>   3
Atom  59H    basis set group =>   3
Atom  60H    basis set group =>   3
Atom  61H    basis set group =>   3
Atom  62H    basis set group =>   3
Atom  63H    basis set group =>   3
Atom  64H    basis set group =>   3
Atom  65H    basis set group =>   3
Atom  66H    basis set group =>   3
Atom  67H    basis set group =>   3
Atom  68H    basis set group =>   3
Atom  69H    basis set group =>   3
Atom  70H    basis set group =>   3
Atom  71H    basis set group =>   3
Atom  72H    basis set group =>   3
Atom  73H    basis set group =>   3
Atom  74H    basis set group =>   3
Atom  75H    basis set group =>   3
Atom  76H    basis set group =>   3
Atom  77H    basis set group =>   3
Atom  78H    basis set group =>   3
Atom  79H    basis set group =>   3
Atom  80H    basis set group =>   3
Atom  81H    basis set group =>   3
--------------------------------------------------------------------------
WARNING: There is at least one non-excluded one OpenFabrics device found,
but there are no active ports detected (or Open MPI was unable to use
them).  This is most certainly not what you wanted.  Check your
cables, subnet manager configuration, etc.  The openib BTL will be
ignored for this job.

  Local host: c02b01n06
--------------------------------------------------------------------------
--------------------------------------------------------------------------
WARNING: There was an error initializing an OpenFabrics device.

  Local host:   c02b01n06
  Local device: mlx5_0
--------------------------------------------------------------------------


           ************************************************************
           *        Program running with 60 parallel MPI-processes    *
           *              working on a common directory               *
           ************************************************************
------------------------------------------------------------------------------
                             ORCA STARTUP CALCULATIONS
                           -- RI-GTO INTEGRALS CHOSEN --
------------------------------------------------------------------------------
[c02b01n06:2446853] 7 more processes have sent help message help-mpi-btl-openib.txt / no active ports found
[c02b01n06:2446853] Set MCA parameter "orte_base_help_aggregate" to 0 to see all help / error messages
[c02b01n06:2446853] 51 more processes have sent help message help-mpi-btl-openib.txt / error in device init
------------------------------------------------------------------------------
                   ___                                                        
                  /   \      - P O W E R E D   B Y -                         
                 /     \                                                     
                 |  |  |   _    _      __       _____    __    __             
                 |  |  |  | |  | |    /  \     |  _  \  |  |  /  |          
                  \  \/   | |  | |   /    \    | | | |  |  | /  /          
                 / \  \   | |__| |  /  /\  \   | |_| |  |  |/  /          
                |  |  |   |  __  | /  /__\  \  |    /   |      \           
                |  |  |   | |  | | |   __   |  |    \   |  |\   \          
                \     /   | |  | | |  |  |  |  | |\  \  |  | \   \       
                 \___/    |_|  |_| |__|  |__|  |_| \__\ |__|  \__/        
                                                                              
                      - O R C A' S   B I G   F R I E N D -                    
                                      &                                       
                       - I N T E G R A L  F E E D E R -                       
                                                                              
 v1 FN, 2020, v2 2021, v3 2022-2024                                           
------------------------------------------------------------------------------


----------------------
SHARK INTEGRAL PACKAGE
----------------------

Number of atoms                             ...     82
Number of basis functions                   ...   2072
Number of shells                            ...    744
Maximum angular momentum                    ...      3
Integral batch strategy                     ... SHARK/LIBINT Hybrid
RI-J (if used) integral strategy            ... SPLIT-RIJ (Revised 2003 algorithm where possible)
Printlevel                                  ...      1
Contraction scheme used                     ... SEGMENTED contraction
Prescreening option                         ... SCHWARTZ
   Thresh                                   ... 1.000e-10
   Tcut                                     ... 1.000e-11
   Tpresel                                  ... 1.000e-11 
Coulomb Range Separation                    ... NOT USED
Exchange Range Separation                   ... NOT USED
Multipole approximations                    ... NOT USED
Finite Nucleus Model                        ... NOT USED
CABS basis                                  ... NOT available
Auxiliary Coulomb fitting basis             ... AVAILABLE
   # of basis functions in Aux-J            ...  10268
   # of shells in Aux-J                     ...   2940
   Maximum angular momentum in Aux-J        ...      4
Auxiliary J/K fitting basis                 ... AVAILABLE
   # of basis functions in Aux-JK           ...  10268
   # of shells in Aux-JK                    ...   2940
   Maximum angular momentum in Aux-JK       ...      4
Auxiliary Correlation fitting basis         ... AVAILABLE
   # of basis functions in Aux-C            ...  10268
   # of shells in Aux-C                     ...   2940
   Maximum angular momentum in Aux-C        ...      4
Auxiliary 'external' fitting basis          ... NOT available

Checking pre-screening integrals            ... done (  0.0 sec) Dimension = 744
   => SHARK Basis and OBASIS are compatible. Storing Pre-screening
Shell pair information
Shell pair cut-off parameter TPreSel        ...   1.0e-11
Total number of shell pairs                 ...    277140
Shell pairs after pre-screening             ...    149512
Total number of primitive shell pairs       ...    823733
Primitive shell pairs kept                  ...    273782
          la=0 lb=0:  28400 shell pairs
          la=1 lb=0:  49681 shell pairs
          la=1 lb=1:  20333 shell pairs
          la=2 lb=0:  19569 shell pairs
          la=2 lb=1:  14863 shell pairs
          la=2 lb=2:   2640 shell pairs
          la=3 lb=0:   6775 shell pairs
          la=3 lb=1:   5104 shell pairs
          la=3 lb=2:   1809 shell pairs
          la=3 lb=3:    338 shell pairs

Checking whether 4 symmetric matrices of dimension 2072 fit in memory
:Max Core in MB      =   5000.00
 MB in use           =    184.76
 MB left             =   4815.24
 MB needed           =     65.54
 Data fit in memory  = YES
Calculating RI/J V-Matrix + Cholesky decomp.... done (  7.5 sec)
Calculating RI/JK V-Matrix + Cholesky decomp.... done (  4.3 sec)
Calculating RI/C V-Matrix + Cholesky decomp.... done (  4.1 sec)
Calculating Nuclear repulsion               ... done (  0.0 sec) ENN=   5688.481265645716 Eh

Diagonalization of the overlap matrix:
Smallest eigenvalue                        ... 7.278e-06
Time for diagonalization                   ...    0.520 sec
Threshold for overlap eigenvalues          ... 1.000e-07
Number of eigenvalues below threshold      ... 0
Time for construction of square roots      ...    0.341 sec
Total time needed                          ...    0.943 sec

-------------------
DFT GRID GENERATION
-------------------

General Integration Accuracy     IntAcc      ... 4.388
Radial Grid Type                 RadialGrid  ... OptM3 with GC (2021)
Angular Grid (max. ang.)         AngularGrid ... 4 (Lebedev-302)
Angular grid pruning method      GridPruning ... 4 (adaptive)
Weight generation scheme         WeightScheme... mBecke (2022)
Basis function cutoff            BFCut       ... 1.0000e-10
Integration weight cutoff        WCut        ... 1.0000e-14
Partially contracted basis set               ... off
Rotationally invariant grid construction     ... off
Angular grids for H and He will be reduced by one unit
Diffuse basis detected: some atoms will have their outermost
                        angular grid increased by 1.

Total number of grid points                  ...   376717
Total number of batches                      ...     5926
Average number of points per batch           ...       63
Average number of grid points per atom       ...     4594
Grids setup in   3.9 sec
Initializing property integral containers    ... done (  0.1 sec)

SHARK setup successfully completed in  25.0 seconds

Maximum memory used throughout the entire STARTUP-calculation: 256.7 MB
--------------------------------------------------------------------------
WARNING: There was an error initializing an OpenFabrics device.

  Local host:   c02b01n06
  Local device: mlx5_0
--------------------------------------------------------------------------
--------------------------------------------------------------------------
WARNING: There is at least one non-excluded one OpenFabrics device found,
but there are no active ports detected (or Open MPI was unable to use
them).  This is most certainly not what you wanted.  Check your
cables, subnet manager configuration, etc.  The openib BTL will be
ignored for this job.

  Local host: c02b01n06
--------------------------------------------------------------------------


           ************************************************************
           *        Program running with 60 parallel MPI-processes    *
           *              working on a common directory               *
           ************************************************************
-------------------------------------------------------------------------------
                                 ORCA GUESS
                   Start orbitals & Density for SCF / CASSCF
-------------------------------------------------------------------------------

------------
SCF SETTINGS
------------
Hamiltonian:
 Density Functional     Method          .... DFT(GTOs)
 Exchange Functional    Exchange        .... TPSS
 Correlation Functional Correlation     .... TPSS
 LDA part of GGA corr.  LDAOpt          .... PW91-LDA
 Gradients option       PostSCFGGA      .... off
   NL short-range parameter             ....  5.000000
 RI-approximation to the Coulomb term is turned on
   Number of AuxJ basis functions       .... 10268


General Settings:
 Integral files         IntName         .... nmr-conf-15
 Hartree-Fock type      HFTyp           .... RHF
 Total Charge           Charge          ....    0
 Multiplicity           Mult            ....    1
 Number of Electrons    NEL             ....  314
 Basis Dimension        Dim             .... 2072
 Nuclear Repulsion      ENuc            ....   5688.4812656457 Eh

Convergence Acceleration:
 AO-DIIS                CNVDIIS         .... on
   Start iteration      DIISMaxIt       ....    12
   Startup error        DIISStart       ....  0.200000
   # of expansion vecs  DIISMaxEq       ....     5
   Bias factor          DIISBfac        ....   1.050
   Max. coefficient     DIISMaxC        ....  10.000
 MO-DIIS                CNVKDIIS        .... off
 Trust-Rad. Augm. Hess. CNVTRAH         .... auto
   Auto Start mean grad. ratio tolernc. ....  1.125000
   Auto Start start iteration           ....    50
   Auto Start num. interpolation iter.  ....    10
   Max. Number of Micro iterations      ....    24
   Max. Number of Macro iterations      .... Maxiter - #DIIS iter
   Number of Davidson start vectors     ....     2
   Converg. threshold    (grad. norm)   ....   5.000e-05
   Grad. Scal. Fac. for Micro threshold ....   0.100
   Minimum threshold for Micro iter.    ....   1.000e-02
   NR start threshold (gradient norm)   ....   1.000e-04
   Initial trust radius                 ....   0.400
   Minimum AH scaling param. (alpha)    ....   1.000
   Maximum AH scaling param. (alpha)    .... 1000.000
   Quad. conv. algorithm                .... NR
   White noise on init. David. guess    .... on
   Maximum white noise                  ....   0.010
   Pseudo random numbers                .... off
   Inactive MOs                         .... canonical
   Orbital update algorithm             .... Taylor
   Preconditioner                       .... Diag
   Full preconditioner red. dimension   ....   250
 SOSCF                 CNVSOSCF           .... on
   Start iteration     SOSCFMaxIt         ....   150
   Startup grad/error  SOSCFStart         ....  0.003300
   Hessian update      SOSCFHessUp        .... L-BFGS
   Autom. constraints  SOSCFAutoConstrain .... off
 Level Shifting         CNVShift        .... on
   Level shift para.    LevelShift      ....    0.2500
   Turn off err/grad.   ShiftErr        ....    0.0010
 Zerner damping         CNVZerner       .... off
 Static damping         CNVDamp         .... on
   Fraction old density DampFac         ....    0.7000
   Max. Damping (<1)    DampMax         ....    0.9800
   Min. Damping (>=0)   DampMin         ....    0.0000
   Turn off err/grad.   DampErr         ....    0.1000

SCF Procedure:
 Maximum # iterations   MaxIter         ....   125
 SCF integral mode      SCFMode         .... Direct
   Integral package                     .... SHARK and LIBINT hybrid scheme
 Reset frequency        DirectResetFreq ....    20
 Integral Threshold     Thresh          ....  1.000e-10 Eh
 Primitive CutOff       TCut            ....  1.000e-11 Eh

Convergence Tolerance:
 Convergence Check Mode ConvCheckMode   .... Total+1el-Energy
 Convergence forced     ConvForced      .... 0
 Energy Change          TolE            ....  1.000e-06 Eh
 1-El. energy change                    ....  1.000e-03 Eh
 Orbital Gradient       TolG            ....  5.000e-05
 Orbital Rotation angle TolX            ....  5.000e-05
 DIIS Error             TolErr          ....  1.000e-06

------------------------------
INITIAL GUESS: MODEL POTENTIAL
------------------------------
Loading Hartree-Fock densities                     ... done
Calculating cut-offs                               ... done
Initializing the effective Hamiltonian             ... done
Setting up the integral package (SHARK)            ... done
Starting the Coulomb interaction                   ... done (   1.8 sec)
Making the grid                                    ... done (   0.6 sec)
Mapping shells                                     ... done
Starting the XC term evaluation                    ... done (   0.2 sec)
  promolecular density results
     # of electrons  =    313.969811779
     EX              =   -260.288425687
     EC              =    -10.636107071
     EX+EC           =   -270.924532758
Transforming the Hamiltonian                       ... [c02b01n06:2447253] 48 more processes have sent help message help-mpi-btl-openib.txt / error in device init
[c02b01n06:2447253] Set MCA parameter "orte_base_help_aggregate" to 0 to see all help / error messages
[c02b01n06:2447253] 10 more processes have sent help message help-mpi-btl-openib.txt / no active ports found
done (   0.3 sec)
Diagonalizing the Hamiltonian                      ... done (   0.6 sec)
Back transforming the eigenvectors                 ... done (   0.2 sec)
Now organizing SCF variables                       ... done
                      ------------------
                      INITIAL GUESS DONE (   4.1 sec)
                      ------------------
             **** ENERGY FILE WAS UPDATED (nmr-conf-15.en.tmp) ****
Finished Guess after   8.0 sec
Maximum memory used throughout the entire GUESS-calculation: 287.8 MB
--------------------------------------------------------------------------
WARNING: There is at least one non-excluded one OpenFabrics device found,
but there are no active ports detected (or Open MPI was unable to use
them).  This is most certainly not what you wanted.  Check your
cables, subnet manager configuration, etc.  The openib BTL will be
ignored for this job.

  Local host: c02b01n06
--------------------------------------------------------------------------
--------------------------------------------------------------------------
WARNING: There was an error initializing an OpenFabrics device.

  Local host:   c02b01n06
  Local device: mlx5_0
--------------------------------------------------------------------------


           ************************************************************
           *        Program running with 60 parallel MPI-processes    *
           *              working on a common directory               *
           ************************************************************

-------------------------------------------------------------------------------------------
                                      ORCA LEAN-SCF
                              memory conserving SCF solver
-------------------------------------------------------------------------------------------

--------------------
CPCM SOLVATION MODEL
--------------------
CPCM parameters:
  Epsilon                                         ...      33.4280
  Refrac                                          ...       1.3288
  Rsolv                                           ...       1.3000
  Surface type                                    ... GAUSSIAN VDW
  Discretization scheme                           ... Constant charge density
    Threshold for H atoms                         ...       5.0000 (charges/Ang^2)
    Threshold for non-H atoms                     ...       5.0000 (charges/Ang^2)
  Epsilon function type                           ...         CPCM
Solvent:                                          ... METHANOL
Radii:
  Scheme                                          ... Element-dependent radii
  Radius for C  used is    3.8550 Bohr (=   2.0400 Ang.)
  Radius for O  used is    3.4469 Bohr (=   1.8240 Ang.)
  Radius for H  used is    2.4944 Bohr (=   1.3200 Ang.)
Calculating surface                               ...        done! (  0.1s)
Cavity surface points                             ...         6256
Cavity Volume                                     ...    4527.1081
Cavity Surface-area                               ...    2065.7113
Calculating surface distance matrix               ...        done! (  0.2s)
Performing Cholesky decomposition & store         ...        done! (  0.7s)
Overall time for CPCM initialization              ...                 1.0s

----------------------------------------D-I-I-S--------------------------------------------
Iteration    Energy (Eh)           Delta-E    RMSDP     MaxDP     DIISErr   Damp  Time(sec)
-------------------------------------------------------------------------------------------
               ***  Starting incremental Fock matrix formation  ***
[c02b01n06:2447687] 5 more processes have sent help message help-mpi-btl-openib.txt / no active ports found
[c02b01n06:2447687] Set MCA parameter "orte_base_help_aggregate" to 0 to see all help / error messages
[c02b01n06:2447687] 53 more processes have sent help message help-mpi-btl-openib.txt / error in device init
    1    -2033.0186918206509290     0.00e+00  8.15e-03  2.94e-01  2.40e-01  0.700  13.9
    2    -2033.4262940914304636    -4.08e-01  6.63e-03  2.37e-01  8.40e-02  0.700   8.4
                               ***Turning on AO-DIIS***
    3    -2033.5787578401241262    -1.52e-01  2.83e-03  7.73e-02  2.53e-02  0.700   8.0
    4    -2033.6707051544144633    -9.19e-02  4.80e-03  7.72e-02  1.21e-02  0.000   6.9
    5    -2033.8743413090996910    -2.04e-01  1.25e-03  2.91e-02  4.82e-03  0.000   7.1
                              *** Initializing SOSCF ***
---------------------------------------S-O-S-C-F--------------------------------------
Iteration    Energy (Eh)           Delta-E    RMSDP     MaxDP     MaxGrad    Time(sec)
--------------------------------------------------------------------------------------
    6    -2033.8757159675787989    -1.37e-03  4.02e-04  1.14e-02  1.49e-03     8.4
               *** Restarting incremental Fock matrix formation ***
    7    -2033.8758253558662545    -1.09e-04  3.04e-04  6.38e-03  1.41e-04     7.2
    8    -2033.8758036090521273     2.17e-05  7.80e-05  2.18e-03  5.86e-04     5.8
    9    -2033.8758407647010245    -3.72e-05  7.21e-05  1.95e-03  1.11e-04     5.7
   10    -2033.8758404879290538     2.77e-07  2.10e-05  7.63e-04  1.13e-04     5.6
                 **** Energy Check signals convergence ****

               *****************************************************
               *                     SUCCESS                       *
               *           SCF CONVERGED AFTER  10 CYCLES          *
               *****************************************************

             **** ENERGY FILE WAS UPDATED (nmr-conf-15.en.tmp) ****

----------------
TOTAL SCF ENERGY
----------------

Total Energy       :      -2033.87584086496008 Eh          -55344.57529 eV

Components:
Nuclear Repulsion  :       5688.48126564571612 Eh          154791.44468 eV
Electronic Energy  :      -7722.30944438132428 Eh         -210134.72302 eV
One Electron Energy:     -14106.49054565009828 Eh         -383857.12267 eV
Two Electron Energy:       6384.18110126877400 Eh          173722.39964 eV
CPCM Dielectric    :         -0.04766212935201 Eh              -1.29695 eV

Virial components:
Potential Energy   :      -4061.11268851901787 Eh         -110508.49440 eV
Kinetic Energy     :       2027.23684765405778 Eh           55163.91910 eV
Virial Ratio       :          2.00327489766111

DFT components:
N(Alpha)           :      156.999860335219 electrons
N(Beta)            :      156.999860335219 electrons
N(Total)           :      313.999720670439 electrons
E(X)               :     -268.088256684391 Eh       
E(C)               :      -10.601891736255 Eh       
E(XC)              :     -278.690148420646 Eh       

CPCM Solvation Model Properties:
Surface-charge          :         -0.04296018552701
Corrected charge        :          0.00000000000000
Outlying charge corr.   :          0.00007926140116 Eh               0.00216 eV
Free-energy (cav+disp)  :  This term is not implemented in the current solvation scheme

---------------
SCF CONVERGENCE
---------------

  Last Energy change         ...   -2.7677e-07  Tolerance :   1.0000e-06
  Last MAX-Density change    ...    7.6310e-04  Tolerance :   1.0000e-05
  Last RMS-Density change    ...    2.1007e-05  Tolerance :   1.0000e-06
  Last DIIS Error            ...    1.4886e-03  Tolerance :   1.0000e-06
  Last Orbital Gradient      ...    1.1265e-04  Tolerance :   5.0000e-05
  Last Orbital Rotation      ...    1.9223e-04  Tolerance :   5.0000e-05


----------------
ORBITAL ENERGIES
----------------

  NO   OCC          E(Eh)            E(eV) 
   0   2.0000     -18.919785      -514.8335 
   1   2.0000     -18.919608      -514.8287 
   2   2.0000     -18.917298      -514.7658 
   3   2.0000     -18.911608      -514.6110 
   4   2.0000     -18.909325      -514.5489 
   5   2.0000     -18.908471      -514.5257 
   6   2.0000     -18.901932      -514.3477 
   7   2.0000     -18.897961      -514.2397 
   8   2.0000     -18.877535      -513.6838 
   9   2.0000     -18.872813      -513.5553 
  10   2.0000     -18.867598      -513.4134 
  11   2.0000     -10.046319      -273.3742 
  12   2.0000     -10.044764      -273.3319 
  13   2.0000     -10.044663      -273.3292 
  14   2.0000     -10.042558      -273.2719 
  15   2.0000     -10.042049      -273.2580 
  16   2.0000     -10.041374      -273.2397 
  17   2.0000     -10.041209      -273.2352 
  18   2.0000     -10.038909      -273.1726 
  19   2.0000     -10.037372      -273.1308 
  20   2.0000     -10.036896      -273.1178 
  21   2.0000     -10.033625      -273.0288 
  22   2.0000     -10.033551      -273.0268 
  23   2.0000     -10.032739      -273.0047 
  24   2.0000     -10.030597      -272.9464 
  25   2.0000     -10.024729      -272.7868 
  26   2.0000     -10.016395      -272.5600 
  27   2.0000      -9.989389      -271.8251 
  28   2.0000      -9.987859      -271.7835 
  29   2.0000      -9.987447      -271.7722 
  30   2.0000      -9.986728      -271.7527 
  31   2.0000      -9.985686      -271.7243 
  32   2.0000      -9.983769      -271.6722 
  33   2.0000      -9.983475      -271.6642 
  34   2.0000      -9.983277      -271.6588 
  35   2.0000      -9.982903      -271.6486 
  36   2.0000      -9.982833      -271.6467 
  37   2.0000      -9.982143      -271.6279 
  38   2.0000      -9.980599      -271.5859 
  39   2.0000      -9.979323      -271.5512 
  40   2.0000      -9.975412      -271.4448 
  41   2.0000      -9.973062      -271.3808 
  42   2.0000      -1.014483       -27.6055 
  43   2.0000      -1.011574       -27.5263 
  44   2.0000      -1.007122       -27.4052 
  45   2.0000      -0.996437       -27.1144 
  46   2.0000      -0.988733       -26.9048 
  47   2.0000      -0.983715       -26.7682 
  48   2.0000      -0.980755       -26.6877 
  49   2.0000      -0.968862       -26.3641 
  50   2.0000      -0.949410       -25.8348 
  51   2.0000      -0.945138       -25.7185 
  52   2.0000      -0.939850       -25.5746 
  53   2.0000      -0.797502       -21.7011 
  54   2.0000      -0.797101       -21.6902 
  55   2.0000      -0.793767       -21.5995 
  56   2.0000      -0.758767       -20.6471 
  57   2.0000      -0.733477       -19.9589 
  58   2.0000      -0.716888       -19.5075 
  59   2.0000      -0.703138       -19.1334 
  60   2.0000      -0.699561       -19.0360 
  61   2.0000      -0.697604       -18.9828 
  62   2.0000      -0.696175       -18.9439 
  63   2.0000      -0.686795       -18.6887 
  64   2.0000      -0.670076       -18.2337 
  65   2.0000      -0.650331       -17.6964 
  66   2.0000      -0.649240       -17.6667 
  67   2.0000      -0.648067       -17.6348 
  68   2.0000      -0.638094       -17.3634 
  69   2.0000      -0.622200       -16.9309 
  70   2.0000      -0.614877       -16.7317 
  71   2.0000      -0.611111       -16.6292 
  72   2.0000      -0.577823       -15.7234 
  73   2.0000      -0.571284       -15.5454 
  74   2.0000      -0.562604       -15.3092 
  75   2.0000      -0.558990       -15.2109 
  76   2.0000      -0.546654       -14.8752 
  77   2.0000      -0.541693       -14.7402 
  78   2.0000      -0.537660       -14.6305 
  79   2.0000      -0.532519       -14.4906 
  80   2.0000      -0.512549       -13.9472 
  81   2.0000      -0.511778       -13.9262 
  82   2.0000      -0.504661       -13.7325 
  83   2.0000      -0.497792       -13.5456 
  84   2.0000      -0.488410       -13.2903 
  85   2.0000      -0.476615       -12.9693 
  86   2.0000      -0.473523       -12.8852 
  87   2.0000      -0.469469       -12.7749 
  88   2.0000      -0.466437       -12.6924 
  89   2.0000      -0.459035       -12.4910 
  90   2.0000      -0.452554       -12.3146 
  91   2.0000      -0.449541       -12.2326 
  92   2.0000      -0.444224       -12.0879 
  93   2.0000      -0.442580       -12.0432 
  94   2.0000      -0.435577       -11.8526 
  95   2.0000      -0.432762       -11.7760 
  96   2.0000      -0.428810       -11.6685 
  97   2.0000      -0.427496       -11.6328 
  98   2.0000      -0.424224       -11.5437 
  99   2.0000      -0.419708       -11.4208 
 100   2.0000      -0.415348       -11.3022 
 101   2.0000      -0.413783       -11.2596 
 102   2.0000      -0.404678       -11.0119 
 103   2.0000      -0.404296       -11.0014 
 104   2.0000      -0.401103       -10.9146 
 105   2.0000      -0.399707       -10.8766 
 106   2.0000      -0.398943       -10.8558 
 107   2.0000      -0.393441       -10.7061 
 108   2.0000      -0.387700       -10.5499 
 109   2.0000      -0.384445       -10.4613 
 110   2.0000      -0.382928       -10.4200 
 111   2.0000      -0.379233       -10.3194 
 112   2.0000      -0.377240       -10.2652 
 113   2.0000      -0.375314       -10.2128 
 114   2.0000      -0.372890       -10.1469 
 115   2.0000      -0.370936       -10.0937 
 116   2.0000      -0.368944       -10.0395 
 117   2.0000      -0.362443        -9.8626 
[...]
 
 sDSO           -78.541           29.776            0.363  iso=     -16.134
 sPSO           102.308           -2.143           31.243  iso=      43.803
        ---------------  ---------------  ---------------
 Total           23.767           27.633           31.606  iso=      27.669

 Orientation: 
  X          -0.5857363   -0.1121812   -0.8027007
  Y           0.5492621    0.6733371   -0.4949024
  Z           0.5960069   -0.7307753   -0.3327811

 --------------
 Nucleus  73H :
 --------------

Diamagnetic contribution to the shielding tensor (ppm) : 
           -63.591          6.379         8.311
           -55.088         45.563       -13.424
            32.589       -123.148      -163.278

Paramagnetic contribution to the shielding tensor (ppm): 
            89.341         -4.344        -8.681
            54.964        -13.465         9.831
           -32.574        119.820       187.533

Total shielding tensor (ppm): 
            25.750          2.035        -0.370
            -0.124         32.098        -3.593
             0.015         -3.328        24.254


 Diagonalized sT*s matrix:
 
 sDSO          -182.940          -55.409           57.042  iso=     -60.435
 sPSO           205.875           81.055          -23.521  iso=      87.803
        ---------------  ---------------  ---------------
 Total           22.935           25.646           33.522  iso=      27.368

 Orientation: 
  X          -0.0674570   -0.9922856   -0.1040133
  Y           0.3589809    0.0731302   -0.9304755
  Z           0.9309040   -0.1001059    0.3512784

 --------------
 Nucleus  74H :
 --------------

Diamagnetic contribution to the shielding tensor (ppm) : 
             7.384         50.339        -7.663
            -9.493         49.196        -4.410
            50.834       -195.903       -41.235

Paramagnetic contribution to the shielding tensor (ppm): 
            20.755        -49.729         3.903
            11.731        -23.452         0.741
           -54.462        192.550        70.975

Total shielding tensor (ppm): 
            28.139          0.610        -3.760
             2.238         25.744        -3.669
            -3.628         -3.353        29.740


 Diagonalized sT*s matrix:
 
 sDSO           -60.263           40.246           35.362  iso=       5.115
 sPSO            83.822          -14.465           -1.079  iso=      22.759
        ---------------  ---------------  ---------------
 Total           23.559           25.781           34.283  iso=      27.874

 Orientation: 
  X           0.2367672    0.8051672   -0.5437345
  Y           0.7811606   -0.4905283   -0.3862254
  Z           0.5776932    0.3332984    0.7451059

 --------------
 Nucleus  75H :
 --------------

Diamagnetic contribution to the shielding tensor (ppm) : 
           -25.623         -7.551        31.292
           -38.627         12.739        39.145
           -15.114        230.346      -124.090

Paramagnetic contribution to the shielding tensor (ppm): 
            39.991          6.646       -34.732
            36.243         11.958       -44.380
            12.098       -237.649       164.915

Total shielding tensor (ppm): 
            14.367         -0.904        -3.440
            -2.384         24.698        -5.235
            -3.015         -7.303        40.825


 Diagonalized sT*s matrix:
 
 sDSO           -23.164           80.621         -194.431  iso=     -45.658
 sPSO            36.578          -57.337          237.622  iso=      72.288
        ---------------  ---------------  ---------------
 Total           13.414           23.285           43.191  iso=      26.630

 Orientation: 
  X           0.9544881   -0.2868928   -0.0815163
  Y           0.2460611    0.9119400   -0.3283587
  Z           0.1685417    0.2933565    0.9410290

 --------------
 Nucleus  76H :
 --------------

Diamagnetic contribution to the shielding tensor (ppm) : 
           -59.529         64.219        56.062
           -75.746         88.482        29.730
           -38.716        -93.046      -128.651

Paramagnetic contribution to the shielding tensor (ppm): 
           103.714        -69.569       -57.342
            69.566        -66.150       -31.447
            39.544         92.633       148.589

Total shielding tensor (ppm): 
            44.185         -5.350        -1.279
            -6.181         22.331        -1.717
             0.828         -0.413        19.938


 Diagonalized sT*s matrix:
 
 sDSO           -89.667           39.135          -49.168  iso=     -33.233
 sPSO           108.900          -17.522           94.775  iso=      62.051
        ---------------  ---------------  ---------------
 Total           19.233           21.614           45.607  iso=      28.818

 Orientation: 
  X           0.1415432    0.1868092   -0.9721460
  Y           0.5473618    0.8034890    0.2340949
  Z           0.8248397   -0.5652502    0.0114762

 --------------
 Nucleus  77H :
 --------------

Diamagnetic contribution to the shielding tensor (ppm) : 
           -19.930        138.261       -14.625
           -23.374        119.216        -8.739
             1.680        -90.578        59.009

Paramagnetic contribution to the shielding tensor (ppm): 
            49.747       -132.795        13.982
            27.516        -82.571         3.077
            -1.756         86.081       -33.879

Total shielding tensor (ppm): 
            29.817          5.465        -0.643
             4.143         36.646        -5.662
            -0.076         -4.497        25.130


 Diagonalized sT*s matrix:
 
 sDSO            20.098          -21.086          159.284  iso=      52.765
 sPSO             2.779           49.232         -118.715  iso=     -22.234
        ---------------  ---------------  ---------------
 Total           22.877           28.146           40.569  iso=      30.531

 Orientation: 
  X          -0.2384714   -0.8901494   -0.3882853
  Y           0.4137908    0.2685771   -0.8698526
  Z           0.8785833   -0.3681039    0.3042877

 --------------
 Nucleus  78H :
 --------------

Diamagnetic contribution to the shielding tensor (ppm) : 
           -21.857        -13.130        30.525
           -47.000         39.931        13.264
            -1.986       -100.479       -96.973

Paramagnetic contribution to the shielding tensor (ppm): 
            50.988         16.847       -26.680
            49.444        -23.413       -14.725
             6.792        102.555       129.922

Total shielding tensor (ppm): 
            29.131          3.717         3.845
             2.444         16.518        -1.461
             4.807          2.076        32.948


 Diagonalized sT*s matrix:
 
 sDSO            49.530          -56.950          -71.479  iso=     -26.300
 sPSO           -33.731           83.803          107.424  iso=      52.499
        ---------------  ---------------  ---------------
 Total           15.799           26.854           35.945  iso=      26.199

 Orientation: 
  X           0.2499568    0.7850901    0.5667056
  Y          -0.9681860    0.2097434    0.1364680
  Z          -0.0117231   -0.5827875    0.8125400

 --------------
 Nucleus  79H :
 --------------

Diamagnetic contribution to the shielding tensor (ppm) : 
           -39.926       -196.970       -31.367
           -62.100        -80.710       -12.275
           -46.247        -20.852      -202.856

Paramagnetic contribution to the shielding tensor (ppm): 
            72.673        193.355        28.665
            57.696        106.539        11.975
            44.732         21.752       229.024

Total shielding tensor (ppm): 
            32.747         -3.615        -2.703
            -4.404         25.829        -0.300
            -1.515          0.901        26.167


 Diagonalized sT*s matrix:
 
 sDSO          -197.553         -174.347           48.408  iso=    -107.831
 sPSO           221.361          200.229          -13.354  iso=     136.078
        ---------------  ---------------  ---------------
 Total           23.808           25.882           35.054  iso=      28.248

 Orientation: 
  X           0.4445348   -0.0868276   -0.8915435
  Y           0.8516690    0.3493871    0.3906259
  Z           0.2775767   -0.9329468    0.2292631

 --------------
 Nucleus  80H :
 --------------

Diamagnetic contribution to the shielding tensor (ppm) : 
           104.803       -176.702       -43.231
            42.498        -65.527       -34.337
           -29.449        -68.811       -81.593

Paramagnetic contribution to the shielding tensor (ppm): 
           -75.141        180.403        42.453
           -40.850         92.839        33.157
            29.367         67.684       107.458

Total shielding tensor (ppm): 
            29.661          3.701        -0.778
             1.648         27.311        -1.180
            -0.083         -1.127        25.865


 Diagonalized sT*s matrix:
 
 sDSO           -56.447           11.154            2.975  iso=     -14.106
 sPSO            81.353           15.198           28.604  iso=      41.719
        ---------------  ---------------  ---------------
 Total           24.906           26.352           31.580  iso=      27.613

 Orientation: 
  X          -0.3235103   -0.5024042   -0.8018298
  Y           0.6651684    0.4819367   -0.5703403
  Z           0.6729726   -0.7178628    0.1782720

 --------------
 Nucleus  81H :
 --------------

Diamagnetic contribution to the shielding tensor (ppm) : 
            18.599       -117.450       -20.437
           -17.950        -41.701       -24.211
            10.954       -125.119      -156.249

Paramagnetic contribution to the shielding tensor (ppm): 
            11.779        117.212        23.187
            17.140         63.607        24.108
           -11.435        124.802       185.651

Total shielding tensor (ppm): 
            30.378         -0.239         2.751
            -0.810         21.906        -0.103
            -0.482         -0.317        29.402


 Diagonalized sT*s matrix:
 
 sDSO           -51.920          -95.767          -31.665  iso=     -59.784
 sPSO            73.791          124.425           62.821  iso=      87.012
        ---------------  ---------------  ---------------
 Total           21.871           28.658           31.156  iso=      27.229

 Orientation: 
  X           0.0522892   -0.5688160    0.8208010
  Y           0.9983941    0.0118376   -0.0553993
  Z           0.0217957    0.8223796    0.5685215



--------------------------------
CHEMICAL SHIELDING SUMMARY (ppm)
--------------------------------


  Nucleus  Element    Isotropic     Anisotropy
  -------  -------  ------------   ------------
      0       C           25.539        124.695 
      1       C           44.605         92.480 
      2       C           26.662        116.493 
      3       C           76.366        123.554 
      4       C           39.487        191.969 
      5       C           76.694        136.565 
      6       C          147.379         31.894 
      7       C          132.237         19.873 
      8       C          139.019         23.593 
      9       C          143.782         36.936 
     10       C           44.650        182.339 
     11       C           70.271        156.018 
     12       C           30.323        118.478 
     13       C           31.832        123.975 
     14       C           67.251        144.798 
     15       C           56.292        147.267 
     16       C          112.515         63.866 
     17       C          107.499         71.061 
     23       C           99.089         51.635 
     24       C           94.201         28.365 
     25       C           45.126        178.666 
     26       C          107.611         63.192 
     28       C           66.328        144.157 
     29       C           32.808        116.591 
     30       C           33.027        120.652 
     31       C           68.306        146.821 
     32       C           59.799        177.603 
     33       C          123.500         74.491 
     34       C          124.985         79.144 
     35       C          124.056         79.797 
     41       C          124.889         78.986 
     42       H           25.483         10.087 
     43       H           26.040          8.384 
     44       H           29.725          6.990 
     45       H           28.928          4.842 
     46       H           30.657          5.385 
     47       H           28.715          3.936 
     48       H           28.886          8.638 
     49       H           29.301          4.389 
     50       H           24.524          9.957 
     51       H           24.828          2.739 
     52       H           24.721          5.628 
     53       H           27.854          5.202 
     54       H           28.064          6.729 
     55       H           27.465          6.657 
     56       H           27.901          4.124 
     57       H           25.292         12.272 
     58       H           26.677          5.385 
     59       H           26.974          5.118 
     60       H           27.707          3.502 
     61       H           27.082          3.682 
     62       H           29.507         17.559 
     63       H           24.809          8.655 
     64       H           25.310          5.276 
     65       H           25.049          5.657 
     66       H           28.268          7.792 
     67       H           28.848          8.708 
     68       H           27.627          6.689 
     69       H           27.876          7.409 
     70       H           27.958          9.633 
     71       H           27.479          9.548 
     72       H           27.669          5.906 
     73       H           27.368          9.231 
     74       H           27.874          9.613 
     75       H           26.630         24.842 
     76       H           28.818         25.184 
     77       H           30.531         15.057 
     78       H           26.199         14.619 
     79       H           28.248         10.209 
     80       H           27.613          5.951 
     81       H           27.229          5.892 


NMR shielding tensor and spin rotation calculation done in   2.8 sec 

Maximum memory used throughout the entire PROP-calculation: 365.7 MB
--------------------------------------------------------------------------
WARNING: There was an error initializing an OpenFabrics device.

  Local host:   c02b01n06
  Local device: mlx5_0
--------------------------------------------------------------------------
--------------------------------------------------------------------------
WARNING: There is at least one non-excluded one OpenFabrics device found,
but there are no active ports detected (or Open MPI was unable to use
them).  This is most certainly not what you wanted.  Check your
cables, subnet manager configuration, etc.  The openib BTL will be
ignored for this job.

  Local host: c02b01n06
--------------------------------------------------------------------------
[c02b01n06:2449665] 54 more processes have sent help message help-mpi-btl-openib.txt / error in device init
[c02b01n06:2449665] Set MCA parameter "orte_base_help_aggregate" to 0 to see all help / error messages
[c02b01n06:2449665] 4 more processes have sent help message help-mpi-btl-openib.txt / no active ports found

--------------------------------
SUGGESTED CITATIONS FOR THIS RUN
--------------------------------

Below you find a list of papers that are relevant to this ORCA run
We neither can nor want to force you to cite these papers, but we appreciate if you do
You receive ORCA, which is the product of decades of hard work by many enthusiastic individuals, for free
The only thing we kindly ask in return is that you cite our papers,
We deeply appreciate it, if you show your appreciation for ORCA by not just citing the generic ORCA reference.

Please note that relegating all ORCA citations to the supporting information does *not* help us.
SI sections are not indexed - citations you put there will not count into any citation statistics
But we need these citations in order to attract the funding resources that allow us to do what we are doing

Therefore, if you are a happy ORCA user, please consider citing a few of the papers listed below in the main body of your paper

In addition to the list printed below, the program has created the file nmr-conf-15.bibtex that contains the list in bibtex format
You can import this file easily into all common literature databanks and citation aid programs


List of essential papers. We consider these as the minimum necessary citations

  1. Neese, F.
     Software update: the ORCA program system, version 6.0
     WIRES Comput. Molec. Sci. 2025 15(1), e70019
     doi.org/10.1002/wcms.7019

List of papers to cite with high priority. The work reported in these papers was absolutely
necessary for this run to complete.
Our perspective: the developers of density functionals and basis sets usually get cited in chemistry papers
Good! But without the algorithms to do something with them, the functionals or basis sets would not do anything.
Hence, in our opinion, the algorithm design and method developments papers are equally worthy of getting cited

  1. Neese, F.
     An improvement of the resolution of the identity approximation for the formation of the Coulomb matrix
     J. Comp. Chem. 2003 24(14), 1740-1747
     doi.org/10.1002/jcc.10318
  2. Stoychev, G.L.; Auer, A.A.; Neese, F.
     Automatic Generation of Auxiliary Basis Sets
     J. Theo. Comp. Chem. 2017 13 , 554-562
     doi.org/10.1021/acs.jctc.6b01041
  3. Stoychev, G.L.; Auer, A.A.; Izsak, R.; Neese, F.
     Self-Consistent Field Calculation of Nuclear Magnetic Resonance Chemical Shielding Constants Using Gauge-Including Atomic Orbitals and Approximate Two-Electron Integrals
     J. Chem. Theory Comput. 2018 14(2), 619-637
     doi.org/10.1021/acs.jctc.7b01006
  4. Garcia-Rates, M.; Neese, F.
     Effect of the Solute Cavity on the Solvation Energy and its Derivatives within the Framework of the Gaussian Charge Scheme
     J. Comput. Chem. 2020 41 , 922-939
     doi.org/10.1002/jcc.26139
  5. Neese, F.
     The SHARK Integral Generation and Digestion System
     J. Comp. Chem. 2022 44(3), 381
     doi.org/10.1002/jcc.26942

List of suggested additional citations. These are papers that are important in the 'surrounding' of 
of this run, or papers that preceded the highly important papers. If you like your results we are grateful for a citation.

  1. Neese, F.
     The ORCA program system
     WIRES Comput. Molec. Sci. 2012 2(1), 73-78
     doi.org/10.1002/wcms.81
  2. Neese, F.
     Software update: the ORCA program system, version 4.0
     WIRES Comput. Molec. Sci. 2018 8(1), 1-6
     doi.org/10.1002/wcms.1327
  3. Neese, F.; Wennmohs, F.; Becker, U.; Riplinger, C.
     The ORCA quantum chemistry program package
     J. Chem. Phys. 2020 152(22), 224108
     doi.org/10.1063/5.0004608
  4. Neese, F.
     Software update: The ORCA program system—Version 5.0
     WIRES Comput. Molec. Sci. 2022 12(1), e1606
     doi.org/10.1002/wcms.1606

List of optional additional citations

  1. Neese, F.
     Approximate second-order SCF convergence for spin unrestricted wavefunctions
     Chem. Phys. Lett. 2000 325(1-3), 93-98
     doi.org/10.1016/s0009-2614(00)00662-x

Timings for individual modules:

Sum of individual times          ...      221.493 sec (=   3.692 min)
Startup calculation              ...       48.994 sec (=   0.817 min)  22.1 %
SCF iterations                   ...      100.896 sec (=   1.682 min)  45.6 %
Property integrals               ...       53.012 sec (=   0.884 min)  23.9 %
SCF Response                     ...       11.033 sec (=   0.184 min)   5.0 %
Property calculations            ...        7.557 sec (=   0.126 min)   3.4 %
                             ****ORCA TERMINATED NORMALLY****
TOTAL RUN TIME: 0 days 0 hours 3 minutes 53 seconds 27 msec
