
                                 *****************
                                 * O   R   C   A *
                                 *****************

                                            #,                                       
                                            ###                                      
                                            ####                                     
                                            #####                                    
                                            ######                                   
                                           ########,                                 
                                     ,,################,,,,,                         
                               ,,#################################,,                 
                          ,,##########################################,,             
                       ,#########################################, ''#####,          
                    ,#############################################,,   '####,        
                  ,##################################################,,,,####,       
                ,###########''''           ''''###############################       
              ,#####''   ,,,,##########,,,,          '''####'''          '####       
            ,##' ,,,,###########################,,,                        '##       
           ' ,,###''''                  '''############,,,                           
         ,,##''                                '''############,,,,        ,,,,,,###''
      ,#''                                            '''#######################'''  
     '                                                          ''''####''''         
             ,#######,   #######,   ,#######,      ##                                
            ,#'     '#,  ##    ##  ,#'     '#,    #''#        ,####,    ,#,          
            ##       ##  ##   ,#'  ##            #'  '#       #'       ,# #          
            ##       ##  #######   ##           ,######,      #####,      #          
            '#,     ,#'  ##    ##  '#,     ,#' ,#      #,     #,   #      #          
             '#######'   ##     ##  '#######'  #'      '#     '####' #    #          



                #########################################################
                #                        -***-                          #
                #          Department of theory and spectroscopy        #
                #                                                       #
                #                      Frank Neese                      #
                #                                                       #
                #     Directorship, Architecture, Infrastructure        #
                #                    SHARK, DRIVERS                     #
                #        Core code/Algorithms in most modules           #
                #                                                       #
                #        Max Planck Institute fuer Kohlenforschung      #
                #                Kaiser Wilhelm Platz 1                 #
                #                 D-45470 Muelheim/Ruhr                 #
                #                      Germany                          #
                #                                                       #
                #                  All rights reserved                  #
                #                        -***-                          #
                #########################################################


                         Program Version 6.1.0-f.0  -   RELEASE   -


 With contributions from (in alphabetic order):
[Max-Planck-Institut fuer Kohlenforschung]                               
  Daniel Aravena         : Magnetic Suceptibility                        
  Michael Atanasov       : Ab Initio Ligand Field Theory (pilot matlab implementation)
  Alexander A. Auer      : GIAO ZORA, VPT2 properties, NMR spectrum      
  Ute Becker             : All parallelization in ORCA, NUMFREQ, NUMCALC 
  Giovanni Bistoni       : ED, misc. LED, open-shell LED, HFLD           
  Dmytro Bykov           : pre 5.0 version of the SCF Hessian            
  Marcos Casanova-Páez   : Triplet and SCS-CIS(D). UHF-(DLPNO)-IP/EA/STEOM-CCSD. UHF-CVS-IP/STEOM-CCSD   
  Vijay G. Chilkuri      : MRCI spin determinant printing, contributions to CSF-ICE 
  Pauline Colinet        : FMM embedding                                 
  Dipayan Datta          : RHF DLPNO-CCSD density                        
  Achintya Kumar Dutta   : EOM-CC, STEOM-CC                              
  Nicolas Foglia         : Exact transition moments, OPA infrastructure, MCD improvements    
  Dmitry Ganyushin       : Spin-Orbit,Spin-Spin,Magnetic field MRCI      
  Miquel Garcia-Rates    : C-PCM and meta-GGA Hessian, CCSD/C-PCM, Gaussian charge scheme 
  Tiago L. C. Gouveia    : GS-ROHF, GS-ROCIS                             
  Yang Guo               : DLPNO-NEVPT2, F12-NEVPT2, CIM, IAO-localization        
  Andreas Hansen         : Spin unrestricted coupled pair/coupled cluster methods 
  Ingolf Harden          : AUTO-CI MPn and infrastructure                
  Benjamin Helmich-Paris : MC-RPA, TRAH-(SCF,CASSCF), AVAS, COSX integrals, SCF dyn. polar., MC-PDFT, srDFT 
  Lee Huntington         : MR-EOM, pCC                                   
  Robert Izsak           : Overlap fitted RIJCOSX, COSX-SCS-MP3, EOM     
  Riya Kayal             : Wick's Theorem for AUTO-CI, AUTO-CI UHF-CCSDT 
  Emily Kempfer          : AUTO-CI RHF CISDT and CCSDT, approximate NEVPT4
  Christian Kollmar      : KDIIS, OOCD, Brueckner-CCSD(T), CCSD density, CASPT2, CASPT2-K, improved NEVPT2 
  Axel Koslowski         : Symmetry handling                             
  Simone Kossmann        : meta-GGA functionals, TD-DFT gradient, OOMP2, (MP2 Hessian; deprecated post 5.0) 
  Lucas Lang             : DCDCAS, Hyperfine gauge corrections, ICE-SOC+SSC
  Marvin Lechner         : AUTO-CI (C++ implementation), FIC-MRCC        
  Spencer Leger          : CASSCF response                               
  Dagmar Lenk            : GEPOL surface, SMD, ORCA-2-JSON               
  Dimitrios Liakos       : Extrapolation schemes; Compound Job, Property file
  Dimitrios Manganas     : Further ROCIS development; embedding schemes. LFT, Crystal Embedding 
  Dimitrios Pantazis     : SARC Basis sets                               
  Anastasios Papadopoulos: AUTO-CI, single reference methods and gradients 
  Taras Petrenko         : pre 6.0 DFT Hessian and TD-DFT gradient,  ECA, NRVS 
  Petra Pikulova         : Analytic Raman intensities                    
  Peter Pinski           : DLPNO-MP2, DLPNO-MP2 Gradient                 
  Shashank Vittal Rao    : ES-AILFT, MagRelax                            
  Christoph Reimann      : Effective Core Potentials                     
  Marius Retegan         : Local ZFS, SOC                                
  Christoph Riplinger    : Optimizer, TS searches, QM/MM, DLPNO-CCSD(T), (RO)-DLPNO pert. Triples 
  Michael Roemelt        : Original ROCIS implementation, recursive CI coupling coefficients
  Masaaki Saitow         : Open-shell DLPNO-CCSD energy and density      
  Barbara Sandhoefer     : DKH picture change effects                    
  Yorick L. A. Schmerwitz: GMF and freeze-and-release deltaSCF, NEB S-IDPP initial path                    
  Kantharuban Sivalingam : CASSCF convergence/infrastructure, NEVPT2, NEVPT3, NEVPT4(SD), FIC-MRCI and CEPA variants
  Bernardo de Souza      : ESD, SOC TD-DFT                               
  Georgi L. Stoychev     : AutoAux, RI-MP2 NMR, DLPNO-MP2 response, X2C  
  Van Anh Tran           : RI-MP2 g-tensors                              
  Willem Van den Heuvel  : Paramagnetic NMR                              
  Zikuan Wang            : NOTCH, Electric field optimization            
  Frank Wennmohs         : Technical directorship and infrastructure     
  Hang Xu                : AUTO-CI-Response properties                   
                                                                         
[FACCTs GmbH]                                                            
  Markus Bursch, Nicolas Foglia, Miquel Garcia-Rates, Ingolf Harden, Hagen Neugebauer, Anastasios Papadopoulos, 
  Christoph Riplinger, Bernardo de Souza, Georgi L. Stoychev                                                    
                                                                 
  APM, various basis sets, CI-OPT, improved COSX, DLPNO-Multilevel,           
  DOCKER, DRACO, updates on ESD, Fragmentator, GOAT, IRC, LR-CPCM, L-BFGS, MBIS, meta-GGA TD-DFT gradient, ML-optimized integration grids, 
  MM, NACMEs, nearIR, NEB, NEB-TS, NL-DFT gradient (VV10), 2- and 3-layer-ONIOM, interface openCOSMO-RS, QMMM,   
  Crystal-QMMM, RESP, rigid body optimization, SF, symmetry and pop. for TD-DFT, various functionals, SOLVATOR                                   
                                                                         
[Other institutions]                                                     
  V. Asgeirsson          : NEB                                           
  Christoph Bannwarth    : sTDA-DFT, sTD-DFT, PBEh-3c, B97-3c, D3        
  Giovanni Bistoni       : ETS/NOCV, ADLD/ADEX, COVALED                  
  Martin Brehm           : Molecular dynamics                            
  Ronald Cardenas        : ETS/NOCV                                      
  Martina Colucci        : COVALED                                       
  Sebastian Ehlert       : rSCAN, r2SCAN, r2SCAN-3c, D4, dhf basis sets  
  Marvin Friede          : D4 for Fr, Ra, Ac-Lr                          
  Lars Goerigk           : TD-DFT with DH, B97 family of functionals     
  Stefan Grimme          : VdW corrections, initial TS optimization, DFT functionals, gCP, sTDA/sTD-DF 
  Waldemar Hujo          : DFT-NL                                        
  H. Jonsson             : NEB                                           
  Holger Kruse           : gCP                                           
  Marcel Mueller         : wB97X-3c, vDZP basis set                      
  Hagen Neugebauer       : wr2SCAN, Native XTB                           
  Gianluca Regni         : ADLD/ADEX                                     
  Tobias Risthaus        : pre 6.0 range-separated hybrid DFT and stability analysis
  Lukas Wittmann         : regularized MP2, r2SCAN double-hybrids, wr2SCAN        
                                                                         
We gratefully acknowledge several colleagues who have allowed us to      
interface, adapt or use parts of their codes:                            
  Ed Valeev, F. Pavosevic, A. Kumar             : LibInt (2-el integral package), F12 methods 
  Garnet Chan, S. Sharma, J. Yang, R. Olivares  : DMRG                   
  Ulf Ekstrom                                   : XCFun DFT Library      
  Mihaly Kallay                                 : mrcc  (arbitrary order and MRCC methods)
  Frank Weinhold                                : gennbo (NPA and NBO analysis)           
  Simon Mueller                                 : openCOSMO-RS                            
  Christopher J. Cramer and Donald G. Truhlar   : smd solvation model                     
  S Lehtola, MJT Oliveira, MAL Marques          : LibXC Library                           
  Liviu Ungur et al                             : ANISO software                          


 Your calculation uses the libint2 library for the computation of 2-el integrals
 For citations please refer to: http://libint.valeyev.net

 Your ORCA version has been built with support for libXC version: 7.0.0
 For citations please refer to: https://libxc.gitlab.io

 This ORCA versions uses:
   CBLAS   interface :  Fast vector & matrix operations
   LAPACKE interface :  Fast linear algebra routines
   SCALAPACK package :  Parallel linear algebra routines
   Shared memory     :  Shared parallel matrices
   BLAS/LAPACK       :  OpenBLAS 0.3.29  USE64BITINT DYNAMIC_ARCH NO_AFFINITY Cooperlake SINGLE_THREADED
        Core in use  :  Cooperlake
   Copyright (c) 2011-2014, The OpenBLAS Project


  ***********************************
  * Starting time: Wed Mar  4 13:49:25 2026
  * Host name:     c03b01n06
  * Process ID:    4066502
  * Working dir.:  /lustre1/jiangy/jiangy_liuxy/NMR/B9D7C2-RSSR-NMR/opt_conf
  ***********************************

NOTE: MaxCore=5000 MB was set to SCF,MP2,MDCI,CIPSI,MRCI,RASCI and CIS
      => If you want to overwrite this, your respective input block should be placed after the MaxCore statement


***************************************
The coordinates will be read from file: opt-conf-13.xyz
***************************************



Warning: The global flag for NMR shieldings has been found
         but shieldings for certain elements have also been explicitly requested in the EPRNMR block
         ==>> only the requested shieldings will be calculated

================================================================================

----- Orbital basis set information -----
Your calculation utilizes the basis: pcSseg-2
   F. Jensen, J. Chem. Theory Comput. 11, 132 (2015).

----- AuxJ basis set information -----
Your calculation utilizes the AutoAux generation procedure.
  G. L. Stoychev, A. A. Auer, F. Neese, J. Chem. Theory Comput. 13, 554 (2017)

----- AuxC basis set information -----
Your calculation utilizes the AutoAux generation procedure.
  G. L. Stoychev, A. A. Auer, F. Neese, J. Chem. Theory Comput. 13, 554 (2017)

----- AuxJK basis set information -----
Your calculation utilizes the AutoAux generation procedure.
  G. L. Stoychev, A. A. Auer, F. Neese, J. Chem. Theory Comput. 13, 554 (2017)

----- AuxX basis set information -----
Your calculation utilizes the AutoAux generation procedure.
  G. L. Stoychev, A. A. Auer, F. Neese, J. Chem. Theory Comput. 13, 554 (2017)

================================================================================
                                        WARNINGS
                       Please study these warnings very carefully!
================================================================================


================================================================================
                                       INPUT FILE
================================================================================
NAME = nmr-conf-13.inp
|  1> !TPSS PCSSEG-2 AUTOAUX NMR CPCM(Methanol)
|  2> 
|  3> %pal nprocs 60 end
|  4> %maxcore 5000
|  5> 
|  6> *XYZFILE 0 1 opt-conf-13.xyz
|  7> 
|  8> %EPRNMR
|  9>    NUCLEI = ALL C {SHIFT}
| 10>    NUCLEI = ALL H {SHIFT}
| 11>    TAU DOBSON
| 12> END
| 13> 
| 14> 
| 15>                          ****END OF INPUT****
================================================================================

                       ****************************
                       * Single Point Calculation *
                       ****************************

---------------------------------
CARTESIAN COORDINATES (ANGSTROEM)
---------------------------------
  C     21.416956  -32.036875   -1.673877
  C     20.947112  -32.209922   -2.981556
  C     19.568974  -32.275434   -3.207665
  C     18.678959  -32.251823   -2.133518
  C     19.153032  -32.126419   -0.832417
  C     20.522287  -32.003794   -0.608358
  C     18.210283  -32.136715    0.344647
  C     18.320620  -33.424476    1.186510
  C     17.800876  -33.263763    2.630356
  C     18.821975  -32.533368    3.526633
  C     20.194068  -33.159178    3.568093
  C     20.346306  -34.518194    3.870206
  C     21.604966  -35.094475    3.917508
  C     22.748862  -34.313041    3.687958
  C     22.605164  -32.974579    3.377736
  C     21.333019  -32.405623    3.312746
  C     17.692759  -34.608360    0.448871
  C     16.456896  -32.546996    2.766121
  O     19.184081  -32.366481   -4.511046
  O     22.761919  -31.907436   -1.537733
  O     21.853378  -32.219872   -4.013116
  O     23.992092  -34.870499    3.769135
  O     21.864937  -36.412908    4.166780
  C     21.926357  -33.377957   -4.869316
  C     22.790656  -34.473249   -4.232064
  C     22.247462  -35.002418   -2.927856
  C     22.488974  -32.863163   -6.183699
  O     23.783278  -32.280663   -6.041458
  C     23.071517  -35.015606   -1.802839
  C     22.596533  -35.481094   -0.585629
  C     21.281444  -35.949851   -0.491186
  C     20.469086  -35.970584   -1.612265
  C     20.950494  -35.496158   -2.825818
  C     23.284756  -31.770925   -0.219574
  C     17.791882  -32.463495   -4.801361
  C     20.766271  -37.274320    4.465609
  O     22.868900  -35.514223   -5.223167
  O     17.962438  -35.863650    1.078847
  O     15.370460  -33.177416    2.081216
  O     23.303438  -35.523344    0.579654
  O     20.797328  -36.397894    0.708712
  C     24.710728  -35.286392    0.522498
  H     17.615476  -32.328047   -2.304743
  H     20.884189  -31.895375    0.403301
  H     17.183091  -32.006530   -0.003951
  H     18.437410  -31.278529    0.981536
  H     19.386086  -33.656637    1.268819
  H     17.668161  -34.272263    3.035023
  H     18.412392  -32.493086    4.541765
  H     18.922560  -31.495027    3.199387
  H     19.471983  -35.125103    4.056071
  H     23.490698  -32.381315    3.186951
  H     21.235336  -31.356470    3.061656
  H     16.608853  -34.508548    0.417290
  H     18.059326  -34.621818   -0.582198
  H     16.218176  -32.449349    3.831673
  H     16.514528  -31.538227    2.353730
  H     23.893002  -35.811075    3.979887
  H     20.927739  -33.770175   -5.059880
  H     23.787824  -34.060648   -4.053551
  H     21.783010  -32.134902   -6.596434
  H     22.590284  -33.687053   -6.887024
  H     23.706641  -31.550128   -5.413748
  H     24.079563  -34.634635   -1.881522
  H     19.460650  -36.353355   -1.525083
  H     20.299492  -35.505919   -3.689981
  H     23.022133  -32.628788    0.402143
  H     24.364976  -31.717202   -0.331572
  H     22.919397  -30.857794    0.257073
  H     17.252851  -31.582670   -4.444556
  H     17.718915  -32.522003   -5.884646
  H     17.357227  -33.361463   -4.355747
  H     20.242616  -36.937071    5.363040
  H     20.066948  -37.316628    3.627794
  H     21.195533  -38.258147    4.636268
  H     23.300088  -36.276156   -4.816013
  H     18.919970  -36.021345    1.046306
  H     15.250914  -34.061002    2.451320
  H     21.495607  -36.316457    1.376856
  H     24.924217  -34.264504    0.204677
  H     25.075790  -35.435000    1.533587
  H     25.189278  -35.989630   -0.163082

----------------------------
CARTESIAN COORDINATES (A.U.)
----------------------------
  NO LB      ZA    FRAG     MASS         X           Y           Z
   0 C     6.0000    0    12.011   40.472182  -60.540920   -3.163169
   1 C     6.0000    0    12.011   39.584304  -60.867932   -5.634324
   2 C     6.0000    0    12.011   36.980001  -60.991730   -6.061609
   3 C     6.0000    0    12.011   35.298117  -60.947113   -4.031765
   4 C     6.0000    0    12.011   36.193985  -60.710133   -1.573041
   5 C     6.0000    0    12.011   38.781501  -60.478405   -1.149631
   6 C     6.0000    0    12.011   34.412447  -60.729590    0.651289
   7 C     6.0000    0    12.011   34.620955  -63.163106    2.242179
   8 C     6.0000    0    12.011   33.638780  -62.859403    4.970652
   9 C     6.0000    0    12.011   35.568379  -61.479155    6.664371
  10 C     6.0000    0    12.011   38.161257  -62.661765    6.742719
  11 C     6.0000    0    12.011   38.448945  -65.229933    7.313630
  12 C     6.0000    0    12.011   40.827469  -66.318947    7.403018
  13 C     6.0000    0    12.011   42.989120  -64.842250    6.969231
  14 C     6.0000    0    12.011   42.717570  -62.312923    6.382995
  15 C     6.0000    0    12.011   40.313564  -61.237754    6.260184
  16 C     6.0000    0    12.011   33.434468  -65.400322    0.848243
  17 C     6.0000    0    12.011   31.099026  -61.504910    5.227211
  18 O     8.0000    0    15.999   36.252659  -61.163785   -8.524641
  19 O     8.0000    0    15.999   43.013793  -60.296315   -2.905894
  20 O     8.0000    0    15.999   41.296899  -60.886735   -7.583690
  21 O     8.0000    0    15.999   45.338483  -65.895692    7.122633
  22 O     8.0000    0    15.999   41.318742  -68.810423    7.874073
  23 C     6.0000    0    12.011   41.434809  -63.075198   -9.201674
  24 C     6.0000    0    12.011   43.068097  -65.145000   -7.997441
  25 C     6.0000    0    12.011   42.041610  -66.144985   -5.532847
  26 C     6.0000    0    12.011   42.498002  -62.102377  -11.685498
  27 O     8.0000    0    15.999   44.943882  -61.001613  -11.416702
  28 C     6.0000    0    12.011   43.598849  -66.169906   -3.406872
  29 C     6.0000    0    12.011   42.701259  -67.049550   -1.106679
  30 C     6.0000    0    12.011   40.216101  -67.935372   -0.928206
  31 C     6.0000    0    12.011   38.680967  -67.974553   -3.046740
  32 C     6.0000    0    12.011   39.590696  -67.078017   -5.340021
  33 C     6.0000    0    12.011   44.001812  -60.038348   -0.414935
  34 C     6.0000    0    12.011   33.621785  -61.347115   -9.073257
  35 C     6.0000    0    12.011   39.242565  -70.438256    8.438777
  36 O     8.0000    0    15.999   43.215959  -67.112155   -9.870356
  37 O     8.0000    0    15.999   33.944089  -67.772477    2.038725
  38 O     8.0000    0    15.999   29.045960  -62.696231    3.932927
  39 O     8.0000    0    15.999   44.037116  -67.129391    1.095387
  40 O     8.0000    0    15.999   39.301255  -68.782052    1.339272
  41 C     6.0000    0    12.011   46.696508  -66.681618    0.987378
  42 H     1.0000    0     1.008   33.288425  -61.091155   -4.355333
  43 H     1.0000    0     1.008   39.465397  -60.273523    0.762128
  44 H     1.0000    0     1.008   32.471336  -60.483577   -0.007466
  45 H     1.0000    0     1.008   34.841656  -59.107854    1.854835
  46 H     1.0000    0     1.008   36.634393  -63.601827    2.397721
  47 H     1.0000    0     1.008   33.387986  -64.765191    5.735362
  48 H     1.0000    0     1.008   34.794378  -61.403034    8.582692
  49 H     1.0000    0     1.008   35.758457  -59.516976    6.045966
  50 H     1.0000    0     1.008   36.796716  -66.376825    7.664862
  51 H     1.0000    0     1.008   44.390987  -61.191818    6.022465
  52 H     1.0000    0     1.008   40.128969  -59.255141    5.785692
  53 H     1.0000    0     1.008   31.386183  -65.211706    0.788563
  54 H     1.0000    0     1.008   34.127180  -65.425755   -1.100194
  55 H     1.0000    0     1.008   30.647910  -61.320383    7.240812
  56 H     1.0000    0     1.008   31.207936  -59.598611    4.447905
  57 H     1.0000    0     1.008   45.151231  -67.673124    7.520896
  58 H     1.0000    0     1.008   39.547695  -63.816382   -9.561788
  59 H     1.0000    0     1.008   44.952473  -64.365296   -7.660102
  60 H     1.0000    0     1.008   41.163923  -60.726164  -12.465453
  61 H     1.0000    0     1.008   42.689450  -63.659305  -13.014589
  62 H     1.0000    0     1.008   44.799059  -59.621101  -10.230502
  63 H     1.0000    0     1.008   45.503779  -65.449975   -3.555562
  64 H     1.0000    0     1.008   36.775299  -68.697885   -2.881989
  65 H     1.0000    0     1.008   38.360481  -67.096462   -6.973053
  66 H     1.0000    0     1.008   43.505526  -61.659473    0.759940
  67 H     1.0000    0     1.008   46.043132  -59.936825   -0.626581
  68 H     1.0000    0     1.008   43.311383  -58.312780    0.485798
  69 H     1.0000    0     1.008   32.603164  -59.682598   -8.398994
  70 H     1.0000    0     1.008   33.483896  -61.457680  -11.120370
  71 H     1.0000    0     1.008   32.800405  -63.044028   -8.231168
  72 H     1.0000    0     1.008   38.253001  -69.800948   10.134678
  73 H     1.0000    0     1.008   37.921037  -70.518207    6.855537
  74 H     1.0000    0     1.008   40.053753  -72.297420    8.761277
  75 H     1.0000    0     1.008   44.030785  -68.552000   -9.100945
  76 H     1.0000    0     1.008   35.753561  -68.070478    1.977231
  77 H     1.0000    0     1.008   28.820051  -64.365966    4.632323
  78 H     1.0000    0     1.008   40.620809  -68.628157    2.601880
  79 H     1.0000    0     1.008   47.099945  -64.750529    0.386784
  80 H     1.0000    0     1.008   47.386375  -66.962446    2.898060
  81 H     1.0000    0     1.008   47.600837  -68.010545   -0.308180

--------------------------------
INTERNAL COORDINATES (ANGSTROEM)
--------------------------------
 C      0   0   0     0.000000000000     0.00000000     0.00000000
 C      1   0   0     1.400258441923     0.00000000     0.00000000
 C      2   1   0     1.398099397535   119.18133690     0.00000000
 C      3   2   1     1.395161721047   120.23274612   356.05794464
 C      4   3   2     1.390444092499   120.29563014     1.75172872
 C      1   2   3     1.391710425628   120.14770651     3.44403939
 C      5   4   3     1.508099282819   121.10393178   181.68730861
 C      7   5   4     1.542477255929   112.76587541   109.21969511
 C      8   7   5     1.542936832612   113.55806871   158.34229826
 C      9   8   7     1.542541966043   111.71932874   282.11604828
 C     10   9   8     1.508639922581   114.93540183   304.72531876
 C     11  10   9     1.400490738143   120.48585122   307.53377746
 C     12  11  10     1.385122076650   120.65551458   180.40938492
 C     13  12  11     1.404219362527   120.20722167     1.26263790
 C     14  13  12     1.381436858411   119.41630371   358.18163986
 C     11  10   9     1.389336640210   121.03361982   127.71774598
 C      8   7   5     1.529673711051   110.70709227   286.94101470
 C      9   8   7     1.529205141053   115.33780591    45.87801999
 O      3   2   1     1.362069096541   115.87664300   176.32614317
 O      1   2   3     1.358018383039   115.95839680   183.53408893
 O      2   1   3     1.373147211409   118.75136887   175.67416763
 O     14  13  12     1.364905927860   120.33060405   178.24533124
 O     13  12  11     1.366742626888   125.47999358   181.81367423
 C     21   2   1     1.442069633129   119.02898190   121.74519618
 C     24  21   2     1.533873605703   110.81168540   277.55428894
 C     25  24  21     1.508653693706   113.99997950    62.49874043
 C     24  21   2     1.519590519704   105.08378188   155.04261062
 O     27  24  21     1.426450215601   112.83209897    60.20372465
 C     26  25  24     1.394598893863   119.20536199   233.31509675
 C     29  26  25     1.387043035750   120.58050758   179.23280644
 C     30  29  26     1.399325118276   119.56948696     0.46015590
 C     31  30  29     1.384621320308   120.11601713     1.16548352
 C     32  31  30     1.389079925559   119.92784448   358.49773821
 C     20   1   2     1.424618115601   117.73396139   181.89914240
 C     19   3   2     1.425451340034   118.38713322   178.76003547
 C     23  13  12     1.427723852522   118.28263858   356.97909796
 O     25  24  21     1.439456202643   105.12780645   184.49515801
 O     17   8   7     1.430157422268   112.92346807   170.20365099
 O     18   9   8     1.430687811090   114.73117856    59.46143327
 O     30  29  26     1.363592613334   125.64796634   180.94660081
 O     31  30  29     1.369257343230   120.06851081   180.72197263
 C     40  30  29     1.428242630668   118.12971771   348.80345794
 H      4   3   2     1.079872088437   120.32975756   181.58550399
 H      6   1   2     1.079899133165   120.27736655   178.45757090
 H      7   5   4     1.092516457602   109.74858244   346.30077086
 H      7   5   4     1.092564390782   108.64224905   229.94805062
 H      8   7   5     1.093567959827   106.73905242    41.60050448
 H      9   8   7     1.094732921352   106.90529960   164.69951739
 H     10   9   8     1.095387426326   107.96063318   182.50898149
 H     10   9   8     1.093324450331   109.67446950    67.35901739
 H     12  11  10     1.080427094464   119.61954094     1.16998547
 H     15  14  13     1.082834772923   119.03441223   180.93210144
 H     16  11  10     1.083194642042   119.60473585   358.84759320
 H     17   8   7     1.088949838959   110.58521190   289.19269039
 H     17   8   7     1.094374226097   109.04790659    47.67214863
 H     18   9   8     1.096322406613   108.62722228   182.78266453
 H     18   9   8     1.091331628449   110.68913727   300.27870686
 H     22  14  13     0.968978182053   108.43573868     0.86748433
 H     24  21   2     1.089672734852   110.27414226    38.82382060
 H     25  24  21     1.093824571856   108.18768187   301.54400949
 H     27  24  21     1.095033787066   108.21746583   297.55574636
 H     27  24  21     1.087991504684   109.69935228   179.15312151
 H     28  27  24     0.966216638223   107.55145052   300.96855816
 H     29  26  25     1.080502574291   119.28721302     0.81461870
 H     32  31  30     1.082154092129   119.13049288   178.88062450
 H     33  32  31     1.081978262864   119.08858966   180.84746377
 H     34  20   1     1.091527158395   111.30974359    58.95826871
 H     34  20   1     1.087338228436   105.90411203   178.08535701
 H     34  20   1     1.092926582014   111.15560559   297.07193939
 H     35  19   3     1.092572981945   111.12909091    60.95881477
 H     35  19   3     1.087315379064   105.79018783   179.85471714
 H     35  19   3     1.092631337687   111.18603548   298.76441624
 H     36  23  13     1.092398719109   110.76657298   299.63529724
 H     36  23  13     1.092142525536   110.82724097    61.49458890
 H     36  23  13     1.086879445795   105.96694322   180.52659505
 H     37  25  24     0.965525777410   107.73475047   187.85807861
 H     38  17   8     0.970975676294   108.28499466   296.12789129
 H     39  18   9     0.965397353860   108.28874088    61.05214782
 H     41  31  30     0.969866158512   108.76359245     0.13672474
 H     42  40  30     1.091257751669   111.08664466    65.12568715
 H     42  40  30     1.085198469431   105.75124358   183.84033693
 H     42  40  30     1.092508027333   110.48269980   303.35449720

---------------------------
INTERNAL COORDINATES (A.U.)
---------------------------
 C      0   0   0     0.000000000000     0.00000000     0.00000000
 C      1   0   0     2.646104971946     0.00000000     0.00000000
 C      2   1   0     2.642024969341   119.18133690     0.00000000
 C      3   2   1     2.636473565309   120.23274612   356.05794464
 C      4   3   2     2.627558539352   120.29563014     1.75172872
 C      1   2   3     2.629951562159   120.14770651     3.44403939
 C      5   4   3     2.849894627291   121.10393178   181.68730861
 C      7   5   4     2.914859581508   112.76587541   109.21969511
 C      8   7   5     2.915728055577   113.55806871   158.34229826
 C      9   8   7     2.914981865902   111.71932874   282.11604828
 C     10   9   8     2.850916288378   114.93540183   304.72531876
 C     11  10   9     2.646543948184   120.48585122   307.53377746
 C     12  11  10     2.617501386916   120.65551458   180.40938492
 C     13  12  11     2.653590027125   120.20722167     1.26263790
 C     14  13  12     2.610537333702   119.41630371   358.18163986
 C     11  10   9     2.625465757820   121.03361982   127.71774598
 C      8   7   5     2.890664388146   110.70709227   286.94101470
 C      9   8   7     2.889778919174   115.33780591    45.87801999
 O      3   2   1     2.573937567939   115.87664300   176.32614317
 O      1   2   3     2.566282828773   115.95839680   183.53408893
 O      2   1   3     2.594872171120   118.75136887   175.67416763
 O     14  13  12     2.579298402221   120.33060405   178.24533124
 O     13  12  11     2.582769260374   125.47999358   181.81367423
 C     21   2   1     2.725116672658   119.02898190   121.74519618
 C     24  21   2     2.898601038830   110.81168540   277.55428894
 C     25  24  21     2.850942312033   113.99997950    62.49874043
 C     24  21   2     2.871609917944   105.08378188   155.04261062
 O     27  24  21     2.695600251160   112.83209897    60.20372465
 C     26  25  24     2.635409976070   119.20536199   233.31509675
 C     29  26  25     2.621131473531   120.58050758   179.23280644
 C     30  29  26     2.644341245859   119.56948696     0.46015590
 C     31  30  29     2.616555094570   120.11601713     1.16548352
 C     32  31  30     2.624980637434   119.92784448   358.49773821
 C     20   1   2     2.692138083909   117.73396139   181.89914240
 C     19   3   2     2.693712649895   118.38713322   178.76003547
 C     23  13  12     2.698007076134   118.28263858   356.97909796
 O     25  24  21     2.720178004769   105.12780645   184.49515801
 O     17   8   7     2.702605856482   112.92346807   170.20365099
 O     18   9   8     2.703608146099   114.73117856    59.46143327
 O     30  29  26     2.576816597440   125.64796634   180.94660081
 O     31  30  29     2.587521385564   120.06851081   180.72197263
 C     40  30  29     2.698987424754   118.12971771   348.80345794
 H      4   3   2     2.040662506811   120.32975756   181.58550399
 H      6   1   2     2.040713613940   120.27736655   178.45757090
 H      7   5   4     2.064556901670   109.74858244   346.30077086
 H      7   5   4     2.064647482252   108.64224905   229.94805062
 H      8   7   5     2.066543952904   106.73905242    41.60050448
 H      9   8   7     2.068745411142   106.90529960   164.69951739
 H     10   9   8     2.069982246297   107.96063318   182.50898149
 H     10   9   8     2.066083786646   109.67446950    67.35901739
 H     12  11  10     2.041711316206   119.61954094     1.16998547
 H     15  14  13     2.046261169110   119.03441223   180.93210144
 H     16  11  10     2.046941223190   119.60473585   358.84759320
 H     17   8   7     2.057816969210   110.58521190   289.19269039
 H     17   8   7     2.068067575345   109.04790659    47.67214863
 H     18   9   8     2.071749102979   108.62722228   182.78266453
 H     18   9   8     2.062317899055   110.68913727   300.27870686
 H     22  14  13     1.831103393824   108.43573868     0.86748433
 H     24  21   2     2.059183044471   110.27414226    38.82382060
 H     25  24  21     2.067028879361   108.18768187   301.54400949
 H     27  24  21     2.069313964946   108.21746583   297.55574636
 H     27  24  21     2.056005979885   109.69935228   179.15312151
 H     28  27  24     1.825884832279   107.55145052   300.96855816
 H     29  26  25     2.041853952407   119.28721302     0.81461870
 H     32  31  30     2.044974868826   119.13049288   178.88062450
 H     33  32  31     2.044642599668   119.08858966   180.84746377
 H     34  20   1     2.062687397103   111.30974359    58.95826871
 H     34  20   1     2.054771466687   105.90411203   178.08535701
 H     34  20   1     2.065331924490   111.15560559   297.07193939
 H     35  19   3     2.064663717197   111.12909091    60.95881477
 H     35  19   3     2.054728287632   105.79018783   179.85471714
 H     35  19   3     2.064773993569   111.18603548   298.76441624
 H     36  23  13     2.064334408163   110.76657298   299.63529724
 H     36  23  13     2.063850272472   110.82724097    61.49458890
 H     36  23  13     2.053904493141   105.96694322   180.52659505
 H     37  25  24     1.824579294547   107.73475047   187.85807861
 H     38  17   8     1.834878110894   108.28499466   296.12789129
 H     39  18   9     1.824336609207   108.28874088    61.05214782
 H     41  31  30     1.832781426146   108.76359245     0.13672474
 H     42  40  30     2.062178292174   111.08664466    65.12568715
 H     42  40  30     2.050727908176   105.75124358   183.84033693
 H     42  40  30     2.064540970770   110.48269980   303.35449720

---------------------
BASIS SET INFORMATION
---------------------
There are 3 groups of distinct atoms

 Group   1 Type C   : 11s7p2d1f contracted to 4s5p2d1f pattern {7211/31111/11/1}
 Group   2 Type O   : 11s7p2d1f contracted to 4s5p2d1f pattern {7211/31111/11/1}
 Group   3 Type H   : 6s3p1d contracted to 3s2p1d pattern {411/21/1}

Atom   0C    basis set group =>   1
Atom   1C    basis set group =>   1
Atom   2C    basis set group =>   1
Atom   3C    basis set group =>   1
Atom   4C    basis set group =>   1
Atom   5C    basis set group =>   1
Atom   6C    basis set group =>   1
Atom   7C    basis set group =>   1
Atom   8C    basis set group =>   1
Atom   9C    basis set group =>   1
Atom  10C    basis set group =>   1
Atom  11C    basis set group =>   1
Atom  12C    basis set group =>   1
Atom  13C    basis set group =>   1
Atom  14C    basis set group =>   1
Atom  15C    basis set group =>   1
Atom  16C    basis set group =>   1
Atom  17C    basis set group =>   1
Atom  18O    basis set group =>   2
Atom  19O    basis set group =>   2
Atom  20O    basis set group =>   2
Atom  21O    basis set group =>   2
Atom  22O    basis set group =>   2
Atom  23C    basis set group =>   1
Atom  24C    basis set group =>   1
Atom  25C    basis set group =>   1
Atom  26C    basis set group =>   1
Atom  27O    basis set group =>   2
Atom  28C    basis set group =>   1
Atom  29C    basis set group =>   1
Atom  30C    basis set group =>   1
Atom  31C    basis set group =>   1
Atom  32C    basis set group =>   1
Atom  33C    basis set group =>   1
Atom  34C    basis set group =>   1
Atom  35C    basis set group =>   1
Atom  36O    basis set group =>   2
Atom  37O    basis set group =>   2
Atom  38O    basis set group =>   2
Atom  39O    basis set group =>   2
Atom  40O    basis set group =>   2
Atom  41C    basis set group =>   1
Atom  42H    basis set group =>   3
Atom  43H    basis set group =>   3
Atom  44H    basis set group =>   3
Atom  45H    basis set group =>   3
Atom  46H    basis set group =>   3
Atom  47H    basis set group =>   3
Atom  48H    basis set group =>   3
Atom  49H    basis set group =>   3
Atom  50H    basis set group =>   3
Atom  51H    basis set group =>   3
Atom  52H    basis set group =>   3
Atom  53H    basis set group =>   3
Atom  54H    basis set group =>   3
Atom  55H    basis set group =>   3
Atom  56H    basis set group =>   3
Atom  57H    basis set group =>   3
Atom  58H    basis set group =>   3
Atom  59H    basis set group =>   3
Atom  60H    basis set group =>   3
Atom  61H    basis set group =>   3
Atom  62H    basis set group =>   3
Atom  63H    basis set group =>   3
Atom  64H    basis set group =>   3
Atom  65H    basis set group =>   3
Atom  66H    basis set group =>   3
Atom  67H    basis set group =>   3
Atom  68H    basis set group =>   3
Atom  69H    basis set group =>   3
Atom  70H    basis set group =>   3
Atom  71H    basis set group =>   3
Atom  72H    basis set group =>   3
Atom  73H    basis set group =>   3
Atom  74H    basis set group =>   3
Atom  75H    basis set group =>   3
Atom  76H    basis set group =>   3
Atom  77H    basis set group =>   3
Atom  78H    basis set group =>   3
Atom  79H    basis set group =>   3
Atom  80H    basis set group =>   3
Atom  81H    basis set group =>   3
---------------------------------
AUXILIARY/J BASIS SET INFORMATION
---------------------------------
There are 3 groups of distinct atoms

 Group   1 Type C   : 15s13p12d5f5g contracted to 15s13p12d5f5g pattern {111111111111111/1111111111111/111111111111/11111/11111}
 Group   2 Type O   : 15s13p12d5f5g contracted to 15s13p12d5f5g pattern {111111111111111/1111111111111/111111111111/11111/11111}
 Group   3 Type H   : 12s4p3d2f contracted to 12s4p3d2f pattern {111111111111/1111/111/11}

Atom   0C    basis set group =>   1
Atom   1C    basis set group =>   1
Atom   2C    basis set group =>   1
Atom   3C    basis set group =>   1
Atom   4C    basis set group =>   1
Atom   5C    basis set group =>   1
Atom   6C    basis set group =>   1
Atom   7C    basis set group =>   1
Atom   8C    basis set group =>   1
Atom   9C    basis set group =>   1
Atom  10C    basis set group =>   1
Atom  11C    basis set group =>   1
Atom  12C    basis set group =>   1
Atom  13C    basis set group =>   1
Atom  14C    basis set group =>   1
Atom  15C    basis set group =>   1
Atom  16C    basis set group =>   1
Atom  17C    basis set group =>   1
Atom  18O    basis set group =>   2
Atom  19O    basis set group =>   2
Atom  20O    basis set group =>   2
Atom  21O    basis set group =>   2
Atom  22O    basis set group =>   2
Atom  23C    basis set group =>   1
Atom  24C    basis set group =>   1
Atom  25C    basis set group =>   1
Atom  26C    basis set group =>   1
Atom  27O    basis set group =>   2
Atom  28C    basis set group =>   1
Atom  29C    basis set group =>   1
Atom  30C    basis set group =>   1
Atom  31C    basis set group =>   1
Atom  32C    basis set group =>   1
Atom  33C    basis set group =>   1
Atom  34C    basis set group =>   1
Atom  35C    basis set group =>   1
Atom  36O    basis set group =>   2
Atom  37O    basis set group =>   2
Atom  38O    basis set group =>   2
Atom  39O    basis set group =>   2
Atom  40O    basis set group =>   2
Atom  41C    basis set group =>   1
Atom  42H    basis set group =>   3
Atom  43H    basis set group =>   3
Atom  44H    basis set group =>   3
Atom  45H    basis set group =>   3
Atom  46H    basis set group =>   3
Atom  47H    basis set group =>   3
Atom  48H    basis set group =>   3
Atom  49H    basis set group =>   3
Atom  50H    basis set group =>   3
Atom  51H    basis set group =>   3
Atom  52H    basis set group =>   3
Atom  53H    basis set group =>   3
Atom  54H    basis set group =>   3
Atom  55H    basis set group =>   3
Atom  56H    basis set group =>   3
Atom  57H    basis set group =>   3
Atom  58H    basis set group =>   3
Atom  59H    basis set group =>   3
Atom  60H    basis set group =>   3
Atom  61H    basis set group =>   3
Atom  62H    basis set group =>   3
Atom  63H    basis set group =>   3
Atom  64H    basis set group =>   3
Atom  65H    basis set group =>   3
Atom  66H    basis set group =>   3
Atom  67H    basis set group =>   3
Atom  68H    basis set group =>   3
Atom  69H    basis set group =>   3
Atom  70H    basis set group =>   3
Atom  71H    basis set group =>   3
Atom  72H    basis set group =>   3
Atom  73H    basis set group =>   3
Atom  74H    basis set group =>   3
Atom  75H    basis set group =>   3
Atom  76H    basis set group =>   3
Atom  77H    basis set group =>   3
Atom  78H    basis set group =>   3
Atom  79H    basis set group =>   3
Atom  80H    basis set group =>   3
Atom  81H    basis set group =>   3
---------------------------------
AUXILIARY/C BASIS SET INFORMATION
---------------------------------
There are 3 groups of distinct atoms

 Group   1 Type C   : 15s13p12d5f5g contracted to 15s13p12d5f5g pattern {111111111111111/1111111111111/111111111111/11111/11111}
 Group   2 Type O   : 15s13p12d5f5g contracted to 15s13p12d5f5g pattern {111111111111111/1111111111111/111111111111/11111/11111}
 Group   3 Type H   : 12s4p3d2f contracted to 12s4p3d2f pattern {111111111111/1111/111/11}

Atom   0C    basis set group =>   1
Atom   1C    basis set group =>   1
Atom   2C    basis set group =>   1
Atom   3C    basis set group =>   1
Atom   4C    basis set group =>   1
Atom   5C    basis set group =>   1
Atom   6C    basis set group =>   1
Atom   7C    basis set group =>   1
Atom   8C    basis set group =>   1
Atom   9C    basis set group =>   1
Atom  10C    basis set group =>   1
Atom  11C    basis set group =>   1
Atom  12C    basis set group =>   1
Atom  13C    basis set group =>   1
Atom  14C    basis set group =>   1
Atom  15C    basis set group =>   1
Atom  16C    basis set group =>   1
Atom  17C    basis set group =>   1
Atom  18O    basis set group =>   2
Atom  19O    basis set group =>   2
Atom  20O    basis set group =>   2
Atom  21O    basis set group =>   2
Atom  22O    basis set group =>   2
Atom  23C    basis set group =>   1
Atom  24C    basis set group =>   1
Atom  25C    basis set group =>   1
Atom  26C    basis set group =>   1
Atom  27O    basis set group =>   2
Atom  28C    basis set group =>   1
Atom  29C    basis set group =>   1
Atom  30C    basis set group =>   1
Atom  31C    basis set group =>   1
Atom  32C    basis set group =>   1
Atom  33C    basis set group =>   1
Atom  34C    basis set group =>   1
Atom  35C    basis set group =>   1
Atom  36O    basis set group =>   2
Atom  37O    basis set group =>   2
Atom  38O    basis set group =>   2
Atom  39O    basis set group =>   2
Atom  40O    basis set group =>   2
Atom  41C    basis set group =>   1
Atom  42H    basis set group =>   3
Atom  43H    basis set group =>   3
Atom  44H    basis set group =>   3
Atom  45H    basis set group =>   3
Atom  46H    basis set group =>   3
Atom  47H    basis set group =>   3
Atom  48H    basis set group =>   3
Atom  49H    basis set group =>   3
Atom  50H    basis set group =>   3
Atom  51H    basis set group =>   3
Atom  52H    basis set group =>   3
Atom  53H    basis set group =>   3
Atom  54H    basis set group =>   3
Atom  55H    basis set group =>   3
Atom  56H    basis set group =>   3
Atom  57H    basis set group =>   3
Atom  58H    basis set group =>   3
Atom  59H    basis set group =>   3
Atom  60H    basis set group =>   3
Atom  61H    basis set group =>   3
Atom  62H    basis set group =>   3
Atom  63H    basis set group =>   3
Atom  64H    basis set group =>   3
Atom  65H    basis set group =>   3
Atom  66H    basis set group =>   3
Atom  67H    basis set group =>   3
Atom  68H    basis set group =>   3
Atom  69H    basis set group =>   3
Atom  70H    basis set group =>   3
Atom  71H    basis set group =>   3
Atom  72H    basis set group =>   3
Atom  73H    basis set group =>   3
Atom  74H    basis set group =>   3
Atom  75H    basis set group =>   3
Atom  76H    basis set group =>   3
Atom  77H    basis set group =>   3
Atom  78H    basis set group =>   3
Atom  79H    basis set group =>   3
Atom  80H    basis set group =>   3
Atom  81H    basis set group =>   3
----------------------------------
AUXILIARY/JK BASIS SET INFORMATION
----------------------------------
There are 3 groups of distinct atoms

 Group   1 Type C   : 15s13p12d5f5g contracted to 15s13p12d5f5g pattern {111111111111111/1111111111111/111111111111/11111/11111}
 Group   2 Type O   : 15s13p12d5f5g contracted to 15s13p12d5f5g pattern {111111111111111/1111111111111/111111111111/11111/11111}
 Group   3 Type H   : 12s4p3d2f contracted to 12s4p3d2f pattern {111111111111/1111/111/11}

Atom   0C    basis set group =>   1
Atom   1C    basis set group =>   1
Atom   2C    basis set group =>   1
Atom   3C    basis set group =>   1
Atom   4C    basis set group =>   1
Atom   5C    basis set group =>   1
Atom   6C    basis set group =>   1
Atom   7C    basis set group =>   1
Atom   8C    basis set group =>   1
Atom   9C    basis set group =>   1
Atom  10C    basis set group =>   1
Atom  11C    basis set group =>   1
Atom  12C    basis set group =>   1
Atom  13C    basis set group =>   1
Atom  14C    basis set group =>   1
Atom  15C    basis set group =>   1
Atom  16C    basis set group =>   1
Atom  17C    basis set group =>   1
Atom  18O    basis set group =>   2
Atom  19O    basis set group =>   2
Atom  20O    basis set group =>   2
Atom  21O    basis set group =>   2
Atom  22O    basis set group =>   2
Atom  23C    basis set group =>   1
Atom  24C    basis set group =>   1
Atom  25C    basis set group =>   1
Atom  26C    basis set group =>   1
Atom  27O    basis set group =>   2
Atom  28C    basis set group =>   1
Atom  29C    basis set group =>   1
Atom  30C    basis set group =>   1
Atom  31C    basis set group =>   1
Atom  32C    basis set group =>   1
Atom  33C    basis set group =>   1
Atom  34C    basis set group =>   1
Atom  35C    basis set group =>   1
Atom  36O    basis set group =>   2
Atom  37O    basis set group =>   2
Atom  38O    basis set group =>   2
Atom  39O    basis set group =>   2
Atom  40O    basis set group =>   2
Atom  41C    basis set group =>   1
Atom  42H    basis set group =>   3
Atom  43H    basis set group =>   3
Atom  44H    basis set group =>   3
Atom  45H    basis set group =>   3
Atom  46H    basis set group =>   3
Atom  47H    basis set group =>   3
Atom  48H    basis set group =>   3
Atom  49H    basis set group =>   3
Atom  50H    basis set group =>   3
Atom  51H    basis set group =>   3
Atom  52H    basis set group =>   3
Atom  53H    basis set group =>   3
Atom  54H    basis set group =>   3
Atom  55H    basis set group =>   3
Atom  56H    basis set group =>   3
Atom  57H    basis set group =>   3
Atom  58H    basis set group =>   3
Atom  59H    basis set group =>   3
Atom  60H    basis set group =>   3
Atom  61H    basis set group =>   3
Atom  62H    basis set group =>   3
Atom  63H    basis set group =>   3
Atom  64H    basis set group =>   3
Atom  65H    basis set group =>   3
Atom  66H    basis set group =>   3
Atom  67H    basis set group =>   3
Atom  68H    basis set group =>   3
Atom  69H    basis set group =>   3
Atom  70H    basis set group =>   3
Atom  71H    basis set group =>   3
Atom  72H    basis set group =>   3
Atom  73H    basis set group =>   3
Atom  74H    basis set group =>   3
Atom  75H    basis set group =>   3
Atom  76H    basis set group =>   3
Atom  77H    basis set group =>   3
Atom  78H    basis set group =>   3
Atom  79H    basis set group =>   3
Atom  80H    basis set group =>   3
Atom  81H    basis set group =>   3
---------------------------------
AUXILIARY/X BASIS SET INFORMATION
---------------------------------
There are 3 groups of distinct atoms

 Group   1 Type C   : 15s13p12d5f5g contracted to 15s13p12d5f5g pattern {111111111111111/1111111111111/111111111111/11111/11111}
 Group   2 Type O   : 15s13p12d5f5g contracted to 15s13p12d5f5g pattern {111111111111111/1111111111111/111111111111/11111/11111}
 Group   3 Type H   : 12s4p3d2f contracted to 12s4p3d2f pattern {111111111111/1111/111/11}

Atom   0C    basis set group =>   1
Atom   1C    basis set group =>   1
Atom   2C    basis set group =>   1
Atom   3C    basis set group =>   1
Atom   4C    basis set group =>   1
Atom   5C    basis set group =>   1
Atom   6C    basis set group =>   1
Atom   7C    basis set group =>   1
Atom   8C    basis set group =>   1
Atom   9C    basis set group =>   1
Atom  10C    basis set group =>   1
Atom  11C    basis set group =>   1
Atom  12C    basis set group =>   1
Atom  13C    basis set group =>   1
Atom  14C    basis set group =>   1
Atom  15C    basis set group =>   1
Atom  16C    basis set group =>   1
Atom  17C    basis set group =>   1
Atom  18O    basis set group =>   2
Atom  19O    basis set group =>   2
Atom  20O    basis set group =>   2
Atom  21O    basis set group =>   2
Atom  22O    basis set group =>   2
Atom  23C    basis set group =>   1
Atom  24C    basis set group =>   1
Atom  25C    basis set group =>   1
Atom  26C    basis set group =>   1
Atom  27O    basis set group =>   2
Atom  28C    basis set group =>   1
Atom  29C    basis set group =>   1
Atom  30C    basis set group =>   1
Atom  31C    basis set group =>   1
Atom  32C    basis set group =>   1
Atom  33C    basis set group =>   1
Atom  34C    basis set group =>   1
Atom  35C    basis set group =>   1
Atom  36O    basis set group =>   2
Atom  37O    basis set group =>   2
Atom  38O    basis set group =>   2
Atom  39O    basis set group =>   2
Atom  40O    basis set group =>   2
Atom  41C    basis set group =>   1
Atom  42H    basis set group =>   3
Atom  43H    basis set group =>   3
Atom  44H    basis set group =>   3
Atom  45H    basis set group =>   3
Atom  46H    basis set group =>   3
Atom  47H    basis set group =>   3
Atom  48H    basis set group =>   3
Atom  49H    basis set group =>   3
Atom  50H    basis set group =>   3
Atom  51H    basis set group =>   3
Atom  52H    basis set group =>   3
Atom  53H    basis set group =>   3
Atom  54H    basis set group =>   3
Atom  55H    basis set group =>   3
Atom  56H    basis set group =>   3
Atom  57H    basis set group =>   3
Atom  58H    basis set group =>   3
Atom  59H    basis set group =>   3
Atom  60H    basis set group =>   3
Atom  61H    basis set group =>   3
Atom  62H    basis set group =>   3
Atom  63H    basis set group =>   3
Atom  64H    basis set group =>   3
Atom  65H    basis set group =>   3
Atom  66H    basis set group =>   3
Atom  67H    basis set group =>   3
Atom  68H    basis set group =>   3
Atom  69H    basis set group =>   3
Atom  70H    basis set group =>   3
Atom  71H    basis set group =>   3
Atom  72H    basis set group =>   3
Atom  73H    basis set group =>   3
Atom  74H    basis set group =>   3
Atom  75H    basis set group =>   3
Atom  76H    basis set group =>   3
Atom  77H    basis set group =>   3
Atom  78H    basis set group =>   3
Atom  79H    basis set group =>   3
Atom  80H    basis set group =>   3
Atom  81H    basis set group =>   3
--------------------------------------------------------------------------
WARNING: There is at least one non-excluded one OpenFabrics device found,
but there are no active ports detected (or Open MPI was unable to use
them).  This is most certainly not what you wanted.  Check your
cables, subnet manager configuration, etc.  The openib BTL will be
ignored for this job.

  Local host: c03b01n06
--------------------------------------------------------------------------
--------------------------------------------------------------------------
WARNING: There was an error initializing an OpenFabrics device.

  Local host:   c03b01n06
  Local device: mlx5_0
--------------------------------------------------------------------------


           ************************************************************
           *        Program running with 60 parallel MPI-processes    *
           *              working on a common directory               *
           ************************************************************
------------------------------------------------------------------------------
                             ORCA STARTUP CALCULATIONS
                           -- RI-GTO INTEGRALS CHOSEN --
------------------------------------------------------------------------------
------------------------------------------------------------------------------
                   ___                                                        
                  /   \      - P O W E R E D   B Y -                         
                 /     \                                                     
                 |  |  |   _    _      __       _____    __    __             
                 |  |  |  | |  | |    /  \     |  _  \  |  |  /  |          
                  \  \/   | |  | |   /    \    | | | |  |  | /  /          
                 / \  \   | |__| |  /  /\  \   | |_| |  |  |/  /          
                |  |  |   |  __  | /  /__\  \  |    /   |      \           
                |  |  |   | |  | | |   __   |  |    \   |  |\   \          
                \     /   | |  | | |  |  |  |  | |\  \  |  | \   \       
                 \___/    |_|  |_| |__|  |__|  |_| \__\ |__|  \__/        
                                                                              
                      - O R C A' S   B I G   F R I E N D -                    
                                      &                                       
                       - I N T E G R A L  F E E D E R -                       
                                                                              
 v1 FN, 2020, v2 2021, v3 2022-2024                                           
------------------------------------------------------------------------------


[c03b01n06:4066503] 9 more processes have sent help message help-mpi-btl-openib.txt / no active ports found
[c03b01n06:4066503] Set MCA parameter "orte_base_help_aggregate" to 0 to see all help / error messages
[c03b01n06:4066503] 49 more processes have sent help message help-mpi-btl-openib.txt / error in device init
----------------------
SHARK INTEGRAL PACKAGE
----------------------

Number of atoms                             ...     82
Number of basis functions                   ...   2072
Number of shells                            ...    744
Maximum angular momentum                    ...      3
Integral batch strategy                     ... SHARK/LIBINT Hybrid
RI-J (if used) integral strategy            ... SPLIT-RIJ (Revised 2003 algorithm where possible)
Printlevel                                  ...      1
Contraction scheme used                     ... SEGMENTED contraction
Prescreening option                         ... SCHWARTZ
   Thresh                                   ... 1.000e-10
   Tcut                                     ... 1.000e-11
   Tpresel                                  ... 1.000e-11 
Coulomb Range Separation                    ... NOT USED
Exchange Range Separation                   ... NOT USED
Multipole approximations                    ... NOT USED
Finite Nucleus Model                        ... NOT USED
CABS basis                                  ... NOT available
Auxiliary Coulomb fitting basis             ... AVAILABLE
   # of basis functions in Aux-J            ...  10268
   # of shells in Aux-J                     ...   2940
   Maximum angular momentum in Aux-J        ...      4
Auxiliary J/K fitting basis                 ... AVAILABLE
   # of basis functions in Aux-JK           ...  10268
   # of shells in Aux-JK                    ...   2940
   Maximum angular momentum in Aux-JK       ...      4
Auxiliary Correlation fitting basis         ... AVAILABLE
   # of basis functions in Aux-C            ...  10268
   # of shells in Aux-C                     ...   2940
   Maximum angular momentum in Aux-C        ...      4
Auxiliary 'external' fitting basis          ... NOT available

Checking pre-screening integrals            ... done (  0.0 sec) Dimension = 744
   => SHARK Basis and OBASIS are compatible. Storing Pre-screening
Shell pair information
Shell pair cut-off parameter TPreSel        ...   1.0e-11
Total number of shell pairs                 ...    277140
Shell pairs after pre-screening             ...    149902
Total number of primitive shell pairs       ...    823733
Primitive shell pairs kept                  ...    274328
          la=0 lb=0:  28518 shell pairs
          la=1 lb=0:  49815 shell pairs
          la=1 lb=1:  20377 shell pairs
          la=2 lb=0:  19614 shell pairs
          la=2 lb=1:  14894 shell pairs
          la=2 lb=2:   2638 shell pairs
          la=3 lb=0:   6792 shell pairs
          la=3 lb=1:   5114 shell pairs
          la=3 lb=2:   1803 shell pairs
          la=3 lb=3:    337 shell pairs

Checking whether 4 symmetric matrices of dimension 2072 fit in memory
:Max Core in MB      =   5000.00
 MB in use           =    185.16
 MB left             =   4814.84
 MB needed           =     65.54
 Data fit in memory  = YES
Calculating RI/J V-Matrix + Cholesky decomp.... done (  6.4 sec)
Calculating RI/JK V-Matrix + Cholesky decomp.... done (  3.9 sec)
Calculating RI/C V-Matrix + Cholesky decomp.... done (  3.9 sec)
Calculating Nuclear repulsion               ... done (  0.0 sec) ENN=   5694.244802285471 Eh

Diagonalization of the overlap matrix:
Smallest eigenvalue                        ... 7.196e-06
Time for diagonalization                   ...    2.153 sec
Threshold for overlap eigenvalues          ... 1.000e-07
Number of eigenvalues below threshold      ... 0
Time for construction of square roots      ...    0.357 sec
Total time needed                          ...    2.569 sec

-------------------
DFT GRID GENERATION
-------------------

General Integration Accuracy     IntAcc      ... 4.388
Radial Grid Type                 RadialGrid  ... OptM3 with GC (2021)
Angular Grid (max. ang.)         AngularGrid ... 4 (Lebedev-302)
Angular grid pruning method      GridPruning ... 4 (adaptive)
Weight generation scheme         WeightScheme... mBecke (2022)
Basis function cutoff            BFCut       ... 1.0000e-10
Integration weight cutoff        WCut        ... 1.0000e-14
Partially contracted basis set               ... off
Rotationally invariant grid construction     ... off
Angular grids for H and He will be reduced by one unit
Diffuse basis detected: some atoms will have their outermost
                        angular grid increased by 1.

Total number of grid points                  ...   376798
Total number of batches                      ...     5929
Average number of points per batch           ...       63
Average number of grid points per atom       ...     4595
Grids setup in   4.1 sec
Initializing property integral containers    ... done (  0.1 sec)

SHARK setup successfully completed in  25.0 seconds

Maximum memory used throughout the entire STARTUP-calculation: 257.2 MB
--------------------------------------------------------------------------
WARNING: There is at least one non-excluded one OpenFabrics device found,
but there are no active ports detected (or Open MPI was unable to use
them).  This is most certainly not what you wanted.  Check your
cables, subnet manager configuration, etc.  The openib BTL will be
ignored for this job.

  Local host: c03b01n06
--------------------------------------------------------------------------
--------------------------------------------------------------------------
WARNING: There was an error initializing an OpenFabrics device.

  Local host:   c03b01n06
  Local device: mlx5_0
--------------------------------------------------------------------------


           ************************************************************
           *        Program running with 60 parallel MPI-processes    *
           *              working on a common directory               *
           ************************************************************
-------------------------------------------------------------------------------
                                 ORCA GUESS
                   Start orbitals & Density for SCF / CASSCF
-------------------------------------------------------------------------------

------------
SCF SETTINGS
------------
Hamiltonian:
 Density Functional     Method          .... DFT(GTOs)
 Exchange Functional    Exchange        .... TPSS
 Correlation Functional Correlation     .... TPSS
 LDA part of GGA corr.  LDAOpt          .... PW91-LDA
 Gradients option       PostSCFGGA      .... off
   NL short-range parameter             ....  5.000000
 RI-approximation to the Coulomb term is turned on
   Number of AuxJ basis functions       .... 10268


General Settings:
 Integral files         IntName         .... nmr-conf-13
 Hartree-Fock type      HFTyp           .... RHF
 Total Charge           Charge          ....    0
 Multiplicity           Mult            ....    1
 Number of Electrons    NEL             ....  314
 Basis Dimension        Dim             .... 2072
 Nuclear Repulsion      ENuc            ....   5694.2448022855 Eh

Convergence Acceleration:
 AO-DIIS                CNVDIIS         .... on
   Start iteration      DIISMaxIt       ....    12
   Startup error        DIISStart       ....  0.200000
   # of expansion vecs  DIISMaxEq       ....     5
   Bias factor          DIISBfac        ....   1.050
   Max. coefficient     DIISMaxC        ....  10.000
 MO-DIIS                CNVKDIIS        .... off
 Trust-Rad. Augm. Hess. CNVTRAH         .... auto
   Auto Start mean grad. ratio tolernc. ....  1.125000
   Auto Start start iteration           ....    50
   Auto Start num. interpolation iter.  ....    10
   Max. Number of Micro iterations      ....    24
   Max. Number of Macro iterations      .... Maxiter - #DIIS iter
   Number of Davidson start vectors     ....     2
   Converg. threshold    (grad. norm)   ....   5.000e-05
   Grad. Scal. Fac. for Micro threshold ....   0.100
   Minimum threshold for Micro iter.    ....   1.000e-02
   NR start threshold (gradient norm)   ....   1.000e-04
   Initial trust radius                 ....   0.400
   Minimum AH scaling param. (alpha)    ....   1.000
   Maximum AH scaling param. (alpha)    .... 1000.000
   Quad. conv. algorithm                .... NR
   White noise on init. David. guess    .... on
   Maximum white noise                  ....   0.010
   Pseudo random numbers                .... off
   Inactive MOs                         .... canonical
   Orbital update algorithm             .... Taylor
   Preconditioner                       .... Diag
   Full preconditioner red. dimension   ....   250
 SOSCF                 CNVSOSCF           .... on
   Start iteration     SOSCFMaxIt         ....   150
   Startup grad/error  SOSCFStart         ....  0.003300
   Hessian update      SOSCFHessUp        .... L-BFGS
   Autom. constraints  SOSCFAutoConstrain .... off
 Level Shifting         CNVShift        .... on
   Level shift para.    LevelShift      ....    0.2500
   Turn off err/grad.   ShiftErr        ....    0.0010
 Zerner damping         CNVZerner       .... off
 Static damping         CNVDamp         .... on
   Fraction old density DampFac         ....    0.7000
   Max. Damping (<1)    DampMax         ....    0.9800
   Min. Damping (>=0)   DampMin         ....    0.0000
   Turn off err/grad.   DampErr         ....    0.1000

SCF Procedure:
 Maximum # iterations   MaxIter         ....   125
 SCF integral mode      SCFMode         .... Direct
   Integral package                     .... SHARK and LIBINT hybrid scheme
 Reset frequency        DirectResetFreq ....    20
 Integral Threshold     Thresh          ....  1.000e-10 Eh
 Primitive CutOff       TCut            ....  1.000e-11 Eh

Convergence Tolerance:
 Convergence Check Mode ConvCheckMode   .... Total+1el-Energy
 Convergence forced     ConvForced      .... 0
 Energy Change          TolE            ....  1.000e-06 Eh
 1-El. energy change                    ....  1.000e-03 Eh
 Orbital Gradient       TolG            ....  5.000e-05
 Orbital Rotation angle TolX            ....  5.000e-05
 DIIS Error             TolErr          ....  1.000e-06

------------------------------
INITIAL GUESS: MODEL POTENTIAL
------------------------------
Loading Hartree-Fock densities                     ... done
Calculating cut-offs                               ... done
Initializing the effective Hamiltonian             ... done
Setting up the integral package (SHARK)            ... done
Starting the Coulomb interaction                   ... done (   1.8 sec)
Making the grid                                    ... done (   0.5 sec)
Mapping shells                                     ... done
Starting the XC term evaluation                    ... done (   0.2 sec)
  promolecular density results
     # of electrons  =    313.973816016
     EX              =   -260.286750038
     EC              =    -10.632749877
     EX+EC           =   -270.919499915
Transforming the Hamiltonian                       ... done (   0.3 sec)
Diagonalizing the Hamiltonian                      ... [c03b01n06:4066899] 5 more processes have sent help message help-mpi-btl-openib.txt / no active ports found
[c03b01n06:4066899] Set MCA parameter "orte_base_help_aggregate" to 0 to see all help / error messages
[c03b01n06:4066899] 53 more processes have sent help message help-mpi-btl-openib.txt / error in device init
done (   0.5 sec)
Back transforming the eigenvectors                 ... done (   0.2 sec)
Now organizing SCF variables                       ... done
                      ------------------
                      INITIAL GUESS DONE (   4.0 sec)
                      ------------------
             **** ENERGY FILE WAS UPDATED (nmr-conf-13.en.tmp) ****
Finished Guess after   7.9 sec
Maximum memory used throughout the entire GUESS-calculation: 288.5 MB
--------------------------------------------------------------------------
WARNING: There was an error initializing an OpenFabrics device.

  Local host:   c03b01n06
  Local device: mlx5_0
--------------------------------------------------------------------------
--------------------------------------------------------------------------
WARNING: There is at least one non-excluded one OpenFabrics device found,
but there are no active ports detected (or Open MPI was unable to use
them).  This is most certainly not what you wanted.  Check your
cables, subnet manager configuration, etc.  The openib BTL will be
ignored for this job.

  Local host: c03b01n06
--------------------------------------------------------------------------


           ************************************************************
           *        Program running with 60 parallel MPI-processes    *
           *              working on a common directory               *
           ************************************************************

-------------------------------------------------------------------------------------------
                                      ORCA LEAN-SCF
                              memory conserving SCF solver
-------------------------------------------------------------------------------------------

--------------------
CPCM SOLVATION MODEL
--------------------
CPCM parameters:
  Epsilon                                         ...      33.4280
  Refrac                                          ...       1.3288
  Rsolv                                           ...       1.3000
  Surface type                                    ... GAUSSIAN VDW
  Discretization scheme                           ... Constant charge density
    Threshold for H atoms                         ...       5.0000 (charges/Ang^2)
    Threshold for non-H atoms                     ...       5.0000 (charges/Ang^2)
  Epsilon function type                           ...         CPCM
Solvent:                                          ... METHANOL
Radii:
  Scheme                                          ... Element-dependent radii
  Radius for C  used is    3.8550 Bohr (=   2.0400 Ang.)
  Radius for O  used is    3.4469 Bohr (=   1.8240 Ang.)
  Radius for H  used is    2.4944 Bohr (=   1.3200 Ang.)
Calculating surface                               ...        done! (  0.1s)
Cavity surface points                             ...         6272
Cavity Volume                                     ...    4506.4304
Cavity Surface-area                               ...    2083.2703
Calculating surface distance matrix               ...        done! (  0.2s)
Performing Cholesky decomposition & store         ...        done! (  0.7s)
Overall time for CPCM initialization              ...                 1.1s

----------------------------------------D-I-I-S--------------------------------------------
Iteration    Energy (Eh)           Delta-E    RMSDP     MaxDP     DIISErr   Damp  Time(sec)
-------------------------------------------------------------------------------------------
               ***  Starting incremental Fock matrix formation  ***
[c03b01n06:4067341] 51 more processes have sent help message help-mpi-btl-openib.txt / error in device init
[c03b01n06:4067341] Set MCA parameter "orte_base_help_aggregate" to 0 to see all help / error messages
[c03b01n06:4067341] 7 more processes have sent help message help-mpi-btl-openib.txt / no active ports found
    1    -2033.0123230551325832     0.00e+00  8.10e-03  2.96e-01  2.36e-01  0.700  14.2
    2    -2033.4235856410705310    -4.11e-01  6.61e-03  2.37e-01  8.41e-02  0.700   8.3
                               ***Turning on AO-DIIS***
    3    -2033.5768096818746926    -1.53e-01  2.81e-03  7.60e-02  2.53e-02  0.700   7.2
    4    -2033.6694445741577510    -9.26e-02  4.74e-03  7.71e-02  1.21e-02  0.000   6.9
    5    -2033.8747648693542942    -2.05e-01  1.24e-03  2.95e-02  4.83e-03  0.000   6.9
                              *** Initializing SOSCF ***
---------------------------------------S-O-S-C-F--------------------------------------
Iteration    Energy (Eh)           Delta-E    RMSDP     MaxDP     MaxGrad    Time(sec)
--------------------------------------------------------------------------------------
    6    -2033.8761531169811860    -1.39e-03  4.02e-04  1.07e-02  1.49e-03     7.9
               *** Restarting incremental Fock matrix formation ***
    7    -2033.8762617017146113    -1.09e-04  3.03e-04  5.69e-03  1.33e-04     7.3
    8    -2033.8762386968346618     2.30e-05  7.96e-05  2.16e-03  6.67e-04     5.8
    9    -2033.8762775415289070    -3.88e-05  6.69e-05  1.17e-03  1.28e-04     6.3
   10    -2033.8762776176936313    -7.62e-08  1.97e-05  7.17e-04  1.15e-04     6.9
                 **** Energy Check signals convergence ****

               *****************************************************
               *                     SUCCESS                       *
               *           SCF CONVERGED AFTER  10 CYCLES          *
               *****************************************************

             **** ENERGY FILE WAS UPDATED (nmr-conf-13.en.tmp) ****

----------------
TOTAL SCF ENERGY
----------------

Total Energy       :      -2033.87627750511183 Eh          -55344.58718 eV

Components:
Nuclear Repulsion  :       5694.24480228547054 Eh          154948.27849 eV
Electronic Energy  :      -7728.07570518564353 Eh         -210291.63096 eV
One Electron Energy:     -14117.41944990473166 Eh         -384154.51327 eV
Two Electron Energy:       6389.34374471908814 Eh          173862.88231 eV
CPCM Dielectric    :         -0.04537460493907 Eh              -1.23471 eV

Virial components:
Potential Energy   :      -4061.11261430000786 Eh         -110508.49238 eV
Kinetic Energy     :       2027.23633679489603 Eh           55163.90520 eV
Virial Ratio       :          2.00327536587111

DFT components:
N(Alpha)           :      157.000033833154 electrons
N(Beta)            :      157.000033833154 electrons
N(Total)           :      314.000067666307 electrons
E(X)               :     -268.089240482027 Eh       
E(C)               :      -10.600380271592 Eh       
E(XC)              :     -278.689620753619 Eh       

CPCM Solvation Model Properties:
Surface-charge          :         -0.04275870998069
Corrected charge        :         -0.00000000000000
Outlying charge corr.   :          0.00007854352128 Eh               0.00214 eV
Free-energy (cav+disp)  :  This term is not implemented in the current solvation scheme

---------------
SCF CONVERGENCE
---------------

  Last Energy change         ...    7.6165e-08  Tolerance :   1.0000e-06
  Last MAX-Density change    ...    7.1660e-04  Tolerance :   1.0000e-05
  Last RMS-Density change    ...    1.9686e-05  Tolerance :   1.0000e-06
  Last DIIS Error            ...    1.4945e-03  Tolerance :   1.0000e-06
  Last Orbital Gradient      ...    1.1503e-04  Tolerance :   5.0000e-05
  Last Orbital Rotation      ...    2.3774e-04  Tolerance :   5.0000e-05


----------------
ORBITAL ENERGIES
----------------

  NO   OCC          E(Eh)            E(eV) 
   0   2.0000     -18.920553      -514.8544 
   1   2.0000     -18.919547      -514.8271 
   2   2.0000     -18.918035      -514.7859 
   3   2.0000     -18.911537      -514.6091 
   4   2.0000     -18.909398      -514.5509 
   5   2.0000     -18.908870      -514.5365 
   6   2.0000     -18.900905      -514.3198 
   7   2.0000     -18.883129      -513.8361 
   8   2.0000     -18.881028      -513.7789 
   9   2.0000     -18.877567      -513.6847 
  10   2.0000     -18.867620      -513.4140 
  11   2.0000     -10.047250      -273.3996 
  12   2.0000     -10.045759      -273.3590 
  13   2.0000     -10.044608      -273.3277 
  14   2.0000     -10.042586      -273.2727 
  15   2.0000     -10.041981      -273.2562 
  16   2.0000     -10.041632      -273.2467 
  17   2.0000     -10.039969      -273.2014 
  18   2.0000     -10.039827      -273.1976 
  19   2.0000     -10.036952      -273.1194 
  20   2.0000     -10.033988      -273.0387 
  21   2.0000     -10.033403      -273.0228 
  22   2.0000     -10.032491      -272.9980 
  23   2.0000     -10.031008      -272.9576 
  24   2.0000     -10.029047      -272.9042 
  25   2.0000     -10.024773      -272.7879 
  26   2.0000     -10.016373      -272.5594 
  27   2.0000      -9.989770      -271.8355 
  28   2.0000      -9.988703      -271.8064 
  29   2.0000      -9.987814      -271.7822 
  30   2.0000      -9.987702      -271.7792 
  31   2.0000      -9.986725      -271.7526 
  32   2.0000      -9.984118      -271.6817 
  33   2.0000      -9.983700      -271.6703 
  34   2.0000      -9.983486      -271.6645 
  35   2.0000      -9.983343      -271.6606 
  36   2.0000      -9.982839      -271.6469 
  37   2.0000      -9.982229      -271.6303 
  38   2.0000      -9.980782      -271.5909 
  39   2.0000      -9.979294      -271.5504 
  40   2.0000      -9.975487      -271.4468 
  41   2.0000      -9.973378      -271.3894 
  42   2.0000      -1.015198       -27.6250 
  43   2.0000      -1.011639       -27.5281 
  44   2.0000      -1.007198       -27.4073 
  45   2.0000      -0.996566       -27.1179 
  46   2.0000      -0.989544       -26.9269 
  47   2.0000      -0.983761       -26.7695 
  48   2.0000      -0.980519       -26.6813 
  49   2.0000      -0.955845       -26.0099 
  50   2.0000      -0.950686       -25.8695 
  51   2.0000      -0.949462       -25.8362 
  52   2.0000      -0.939876       -25.5753 
  53   2.0000      -0.797933       -21.7129 
  54   2.0000      -0.797438       -21.6994 
  55   2.0000      -0.793698       -21.5976 
  56   2.0000      -0.758704       -20.6454 
  57   2.0000      -0.733380       -19.9563 
  58   2.0000      -0.717531       -19.5250 
  59   2.0000      -0.702569       -19.1179 
  60   2.0000      -0.700332       -19.0570 
  61   2.0000      -0.697590       -18.9824 
  62   2.0000      -0.696177       -18.9439 
  63   2.0000      -0.687519       -18.7083 
  64   2.0000      -0.670552       -18.2466 
  65   2.0000      -0.650428       -17.6991 
  66   2.0000      -0.649130       -17.6637 
  67   2.0000      -0.648052       -17.6344 
  68   2.0000      -0.638326       -17.3697 
  69   2.0000      -0.623258       -16.9597 
  70   2.0000      -0.614932       -16.7332 
  71   2.0000      -0.612521       -16.6675 
  72   2.0000      -0.576881       -15.6977 
  73   2.0000      -0.568351       -15.4656 
  74   2.0000      -0.562772       -15.3138 
  75   2.0000      -0.558782       -15.2052 
  76   2.0000      -0.549890       -14.9633 
  77   2.0000      -0.541654       -14.7391 
  78   2.0000      -0.539564       -14.6823 
  79   2.0000      -0.530015       -14.4224 
  80   2.0000      -0.513538       -13.9741 
  81   2.0000      -0.511823       -13.9274 
  82   2.0000      -0.504678       -13.7330 
  83   2.0000      -0.499995       -13.6055 
  84   2.0000      -0.482326       -13.1248 
  85   2.0000      -0.474937       -12.9237 
  86   2.0000      -0.471293       -12.8245 
  87   2.0000      -0.466378       -12.6908 
  88   2.0000      -0.462388       -12.5822 
  89   2.0000      -0.459345       -12.4994 
  90   2.0000      -0.450839       -12.2680 
  91   2.0000      -0.448535       -12.2053 
  92   2.0000      -0.443143       -12.0585 
  93   2.0000      -0.440342       -11.9823 
  94   2.0000      -0.434907       -11.8344 
  95   2.0000      -0.433315       -11.7911 
  96   2.0000      -0.430659       -11.7188 
  97   2.0000      -0.428494       -11.6599 
  98   2.0000      -0.424447       -11.5498 
  99   2.0000      -0.423086       -11.5128 
 100   2.0000      -0.416313       -11.3284 
 101   2.0000      -0.414247       -11.2722 
 102   2.0000      -0.404220       -10.9994 
 103   2.0000      -0.403738       -10.9863 
 104   2.0000      -0.401089       -10.9142 
 105   2.0000      -0.398966       -10.8564 
 106   2.0000      -0.396635       -10.7930 
 107   2.0000      -0.392437       -10.6787 
 108   2.0000      -0.389398       -10.5960 
 109   2.0000      -0.386113       -10.5067 
 110   2.0000      -0.383297       -10.4301 
 111   2.0000      -0.379518       -10.3272 
 112   2.0000      -0.377345       -10.2681 
 113   2.0000      -0.374483       -10.1902 
 114   2.0000      -0.373449       -10.1621 
 115   2.0000      -0.370781       -10.0895 
 116   2.0000      -0.368406       -10.0248 
 117   2.0000      -0.364396        -9.9157 
[...]
 
 sDSO           -60.201           38.561           35.956  iso=       4.772
 sPSO            83.762          -12.778           -1.678  iso=      23.102
        ---------------  ---------------  ---------------
 Total           23.561           25.782           34.278  iso=      27.874

 Orientation: 
  X           0.2573564    0.8015946   -0.5396423
  Y           0.7708464   -0.5070672   -0.3855888
  Z           0.5827208    0.3167475    0.7484033

 --------------
 Nucleus  73H :
 --------------

Diamagnetic contribution to the shielding tensor (ppm) : 
           -26.593         86.640        14.797
           -36.039         86.566        -0.927
             1.313        -96.468      -104.447

Paramagnetic contribution to the shielding tensor (ppm): 
            55.492        -84.808       -11.965
            39.746        -59.086         0.026
             0.653         96.210       131.101

Total shielding tensor (ppm): 
            28.900          1.832         2.832
             3.708         27.481        -0.902
             1.966         -0.258        26.653


 Diagonalized sT*s matrix:
 
 sDSO           -74.088           29.965           -0.351  iso=     -14.825
 sPSO            97.925           -2.362           31.945  iso=      42.503
        ---------------  ---------------  ---------------
 Total           23.837           27.603           31.594  iso=      27.678

 Orientation: 
  X          -0.5774895   -0.1056385   -0.8095346
  Y           0.5534184    0.6783395   -0.4833049
  Z           0.6001949   -0.7271149   -0.3332717

 --------------
 Nucleus  74H :
 --------------

Diamagnetic contribution to the shielding tensor (ppm) : 
           -63.317          6.169         6.676
           -55.072         45.182       -14.156
            27.925       -118.357      -161.902

Paramagnetic contribution to the shielding tensor (ppm): 
            89.068         -4.117        -7.094
            54.953        -13.074        10.638
           -27.941        115.073       186.115

Total shielding tensor (ppm): 
            25.751          2.052        -0.418
            -0.119         32.108        -3.518
            -0.016         -3.285        24.213


 Diagonalized sT*s matrix:
 
 sDSO          -180.326          -55.404           55.694  iso=     -60.012
 sPSO           203.270           81.040          -22.201  iso=      87.370
        ---------------  ---------------  ---------------
 Total           22.944           25.636           33.493  iso=      27.358

 Orientation: 
  X          -0.0531938   -0.9927839   -0.1074739
  Y           0.3527297    0.0820078   -0.9321247
  Z           0.9342121   -0.0874925    0.3458220

 --------------
 Nucleus  75H :
 --------------

Diamagnetic contribution to the shielding tensor (ppm) : 
          -115.204       -136.452        42.391
           -96.058        -46.665        41.157
           -98.728        189.546      -167.392

Paramagnetic contribution to the shielding tensor (ppm): 
           140.685        130.159       -41.963
            87.159         83.160       -40.258
           100.576       -191.198       195.951

Total shielding tensor (ppm): 
            25.480         -6.293         0.428
            -8.899         36.495         0.899
             1.848         -1.651        28.558


 Diagonalized sT*s matrix:
 
 sDSO          -202.982         -149.355           23.075  iso=    -109.754
 sPSO           224.496          177.957           17.342  iso=     139.932
        ---------------  ---------------  ---------------
 Total           21.514           28.602           40.417  iso=      30.178

 Orientation: 
  X          -0.8762515    0.0780885    0.4754844
  Y          -0.4677476    0.0991726   -0.8782807
  Z           0.1157387    0.9920015    0.0503745

 --------------
 Nucleus  76H :
 --------------

Diamagnetic contribution to the shielding tensor (ppm) : 
           -57.699         66.200        54.819
           -74.944         89.207        29.390
           -43.663        -87.020      -127.938

Paramagnetic contribution to the shielding tensor (ppm): 
           101.537        -72.257       -56.742
            67.999        -66.450       -30.889
            43.824         86.694       147.803

Total shielding tensor (ppm): 
            43.838         -6.057        -1.923
            -6.944         22.757        -1.499
             0.160         -0.326        19.865


 Diagonalized sT*s matrix:
 
 sDSO           -90.117           39.834          -46.147  iso=     -32.143
 sPSO           109.264          -18.212           91.837  iso=      60.963
        ---------------  ---------------  ---------------
 Total           19.147           21.622           45.690  iso=      28.820

 Orientation: 
  X           0.1757048    0.2019527   -0.9635056
  Y           0.5258779    0.8081313    0.2652850
  Z           0.8322141   -0.5532982    0.0357901

 --------------
 Nucleus  77H :
 --------------

Diamagnetic contribution to the shielding tensor (ppm) : 
           -18.093        137.044       -15.061
           -22.497        117.987        -8.911
             0.485        -88.320        59.647

Paramagnetic contribution to the shielding tensor (ppm): 
            48.018       -131.542        14.309
            26.620        -81.356         3.310
            -0.665         83.866       -34.631

Total shielding tensor (ppm): 
            29.925          5.502        -0.752
             4.122         36.631        -5.601
            -0.181         -4.454        25.016


 Diagonalized sT*s matrix:
 
 sDSO            23.312          -21.677          157.906  iso=      53.180
 sPSO            -0.442           49.811         -117.337  iso=     -22.656
        ---------------  ---------------  ---------------
 Total           22.870           28.133           40.570  iso=      30.524

 Orientation: 
  X          -0.2160186   -0.8931323   -0.3945258
  Y           0.4064270    0.2851448   -0.8680493
  Z           0.8877798   -0.3478607    0.3013965

 --------------
 Nucleus  78H :
 --------------

Diamagnetic contribution to the shielding tensor (ppm) : 
           -23.508        -10.594        27.298
           -48.034         40.732        10.787
            -2.513        -93.804       -98.148

Paramagnetic contribution to the shielding tensor (ppm): 
            52.775         13.952       -23.309
            50.095        -24.130       -12.720
             7.593         95.283       130.740

Total shielding tensor (ppm): 
            29.267          3.358         3.989
             2.062         16.602        -1.933
             5.081          1.479        32.592


 Diagonalized sT*s matrix:
 
 sDSO            46.431          -57.652          -69.703  iso=     -26.975
 sPSO           -30.449           84.293          105.541  iso=      53.128
        ---------------  ---------------  ---------------
 Total           15.982           26.640           35.838  iso=      26.154

 Orientation: 
  X           0.2354564    0.7730515    0.5890260
  Y          -0.9708562    0.2149656    0.1059628
  Z          -0.0447056   -0.5968091    0.8011369

 --------------
 Nucleus  79H :
 --------------

Diamagnetic contribution to the shielding tensor (ppm) : 
           100.016       -175.613       -51.248
            38.967        -65.568       -39.312
           -35.030        -57.835       -78.432

Paramagnetic contribution to the shielding tensor (ppm): 
           -70.497        179.222        50.554
           -37.388         92.973        38.147
            34.980         56.701       104.431

Total shielding tensor (ppm): 
            29.519          3.609        -0.694
             1.580         27.406        -1.165
            -0.050         -1.133        26.000


 Diagonalized sT*s matrix:
 
 sDSO           -44.648            3.167           -2.502  iso=     -14.661
 sPSO            69.655           23.320           33.932  iso=      42.302
        ---------------  ---------------  ---------------
 Total           25.006           26.487           31.430  iso=      27.641

 Orientation: 
  X          -0.3398034   -0.5056834   -0.7929804
  Y           0.6672769    0.4645500   -0.5821811
  Z           0.6627784   -0.7269646    0.1795752

 --------------
 Nucleus  80H :
 --------------

Diamagnetic contribution to the shielding tensor (ppm) : 
            14.134       -116.767       -23.035
           -21.478        -41.494       -26.014
             4.057       -116.193      -157.619

Paramagnetic contribution to the shielding tensor (ppm): 
            16.125        116.238        25.764
            20.521         63.470        25.797
            -4.563        115.869       187.057

Total shielding tensor (ppm): 
            30.259         -0.529         2.730
            -0.958         21.976        -0.217
            -0.505         -0.324        29.438


 Diagonalized sT*s matrix:
 
 sDSO           -55.975          -90.498          -38.506  iso=     -61.660
 sPSO            77.881          119.169           69.602  iso=      88.884
        ---------------  ---------------  ---------------
 Total           21.906           28.670           31.096  iso=      27.224

 Orientation: 
  X           0.0800962   -0.5857326    0.8065370
  Y           0.9964476    0.0259323   -0.0801231
  Z           0.0260154    0.8100894    0.5857290

 --------------
 Nucleus  81H :
 --------------

Diamagnetic contribution to the shielding tensor (ppm) : 
           -44.233       -193.528       -34.584
           -64.493        -79.741       -14.121
           -52.039         -8.439      -195.114

Paramagnetic contribution to the shielding tensor (ppm): 
            76.779        189.932        31.716
            60.058        105.610        13.871
            50.343          9.376       221.403

Total shielding tensor (ppm): 
            32.546         -3.596        -2.868
            -4.435         25.869        -0.250
            -1.696          0.937        26.289


 Diagonalized sT*s matrix:
 
 sDSO          -198.127         -168.565           47.603  iso=    -106.363
 sPSO           221.902          194.500          -12.610  iso=     134.598
        ---------------  ---------------  ---------------
 Total           23.776           25.935           34.994  iso=      28.235

 Orientation: 
  X           0.4571987   -0.0976467   -0.8839878
  Y           0.8410138    0.3707339    0.3940206
  Z           0.2892494   -0.9235917    0.2516212



--------------------------------
CHEMICAL SHIELDING SUMMARY (ppm)
--------------------------------


  Nucleus  Element    Isotropic     Anisotropy
  -------  -------  ------------   ------------
      0       C           25.278        124.722 
      1       C           44.379         93.232 
      2       C           26.284        117.419 
      3       C           76.255        123.750 
      4       C           39.318        192.424 
      5       C           76.833        135.954 
      6       C          147.282         31.904 
      7       C          132.414         19.803 
      8       C          139.068         23.830 
      9       C          143.747         37.286 
     10       C           44.691        182.305 
     11       C           70.384        155.620 
     12       C           30.190        118.673 
     13       C           31.889        123.986 
     14       C           67.382        144.662 
     15       C           56.401        147.136 
     16       C          112.465         64.075 
     17       C          107.531         71.349 
     23       C           95.171         46.124 
     24       C          103.314         45.607 
     25       C           44.298        180.918 
     26       C          113.286         55.219 
     28       C           66.595        144.010 
     29       C           32.538        117.007 
     30       C           32.945        120.817 
     31       C           67.931        147.350 
     32       C           60.421        177.339 
     33       C          123.415         74.470 
     34       C          124.923         79.310 
     35       C          124.054         79.592 
     41       C          124.781         78.629 
     42       H           25.483         10.018 
     43       H           26.038          8.465 
     44       H           29.710          6.980 
     45       H           28.929          4.760 
     46       H           30.674          5.329 
     47       H           28.705          3.970 
     48       H           28.888          8.615 
     49       H           29.307          4.352 
     50       H           24.535         10.000 
     51       H           24.833          2.779 
     52       H           24.723          5.622 
     53       H           27.824          5.149 
     54       H           28.062          6.802 
     55       H           27.475          6.632 
     56       H           27.918          4.115 
     57       H           25.289         12.302 
     58       H           26.744          4.810 
     59       H           26.763          3.796 
     60       H           27.388          7.787 
     61       H           27.358          5.758 
     62       H           29.646         15.645 
     63       H           24.807          8.807 
     64       H           25.296          5.155 
     65       H           25.054          5.611 
     66       H           28.836          8.791 
     67       H           27.618          6.759 
     68       H           28.229          7.849 
     69       H           27.988          9.640 
     70       H           27.534          9.672 
     71       H           27.910          7.544 
     72       H           27.874          9.606 
     73       H           27.678          5.874 
     74       H           27.358          9.204 
     75       H           30.178         15.359 
     76       H           28.820         25.306 
     77       H           30.524         15.068 
     78       H           26.154         14.527 
     79       H           27.641          5.684 
     80       H           27.224          5.808 
     81       H           28.235         10.138 


NMR shielding tensor and spin rotation calculation done in   2.8 sec 

Maximum memory used throughout the entire PROP-calculation: 366.1 MB
--------------------------------------------------------------------------
WARNING: There was an error initializing an OpenFabrics device.

  Local host:   c03b01n06
  Local device: mlx5_0
--------------------------------------------------------------------------
--------------------------------------------------------------------------
WARNING: There is at least one non-excluded one OpenFabrics device found,
but there are no active ports detected (or Open MPI was unable to use
them).  This is most certainly not what you wanted.  Check your
cables, subnet manager configuration, etc.  The openib BTL will be
ignored for this job.

  Local host: c03b01n06
--------------------------------------------------------------------------
[c03b01n06:4069310] 53 more processes have sent help message help-mpi-btl-openib.txt / error in device init
[c03b01n06:4069310] Set MCA parameter "orte_base_help_aggregate" to 0 to see all help / error messages
[c03b01n06:4069310] 5 more processes have sent help message help-mpi-btl-openib.txt / no active ports found

--------------------------------
SUGGESTED CITATIONS FOR THIS RUN
--------------------------------

Below you find a list of papers that are relevant to this ORCA run
We neither can nor want to force you to cite these papers, but we appreciate if you do
You receive ORCA, which is the product of decades of hard work by many enthusiastic individuals, for free
The only thing we kindly ask in return is that you cite our papers,
We deeply appreciate it, if you show your appreciation for ORCA by not just citing the generic ORCA reference.

Please note that relegating all ORCA citations to the supporting information does *not* help us.
SI sections are not indexed - citations you put there will not count into any citation statistics
But we need these citations in order to attract the funding resources that allow us to do what we are doing

Therefore, if you are a happy ORCA user, please consider citing a few of the papers listed below in the main body of your paper

In addition to the list printed below, the program has created the file nmr-conf-13.bibtex that contains the list in bibtex format
You can import this file easily into all common literature databanks and citation aid programs


List of essential papers. We consider these as the minimum necessary citations

  1. Neese, F.
     Software update: the ORCA program system, version 6.0
     WIRES Comput. Molec. Sci. 2025 15(1), e70019
     doi.org/10.1002/wcms.7019

List of papers to cite with high priority. The work reported in these papers was absolutely
necessary for this run to complete.
Our perspective: the developers of density functionals and basis sets usually get cited in chemistry papers
Good! But without the algorithms to do something with them, the functionals or basis sets would not do anything.
Hence, in our opinion, the algorithm design and method developments papers are equally worthy of getting cited

  1. Neese, F.
     An improvement of the resolution of the identity approximation for the formation of the Coulomb matrix
     J. Comp. Chem. 2003 24(14), 1740-1747
     doi.org/10.1002/jcc.10318
  2. Stoychev, G.L.; Auer, A.A.; Neese, F.
     Automatic Generation of Auxiliary Basis Sets
     J. Theo. Comp. Chem. 2017 13 , 554-562
     doi.org/10.1021/acs.jctc.6b01041
  3. Stoychev, G.L.; Auer, A.A.; Izsak, R.; Neese, F.
     Self-Consistent Field Calculation of Nuclear Magnetic Resonance Chemical Shielding Constants Using Gauge-Including Atomic Orbitals and Approximate Two-Electron Integrals
     J. Chem. Theory Comput. 2018 14(2), 619-637
     doi.org/10.1021/acs.jctc.7b01006
  4. Garcia-Rates, M.; Neese, F.
     Effect of the Solute Cavity on the Solvation Energy and its Derivatives within the Framework of the Gaussian Charge Scheme
     J. Comput. Chem. 2020 41 , 922-939
     doi.org/10.1002/jcc.26139
  5. Neese, F.
     The SHARK Integral Generation and Digestion System
     J. Comp. Chem. 2022 44(3), 381
     doi.org/10.1002/jcc.26942

List of suggested additional citations. These are papers that are important in the 'surrounding' of 
of this run, or papers that preceded the highly important papers. If you like your results we are grateful for a citation.

  1. Neese, F.
     The ORCA program system
     WIRES Comput. Molec. Sci. 2012 2(1), 73-78
     doi.org/10.1002/wcms.81
  2. Neese, F.
     Software update: the ORCA program system, version 4.0
     WIRES Comput. Molec. Sci. 2018 8(1), 1-6
     doi.org/10.1002/wcms.1327
  3. Neese, F.; Wennmohs, F.; Becker, U.; Riplinger, C.
     The ORCA quantum chemistry program package
     J. Chem. Phys. 2020 152(22), 224108
     doi.org/10.1063/5.0004608
  4. Neese, F.
     Software update: The ORCA program system—Version 5.0
     WIRES Comput. Molec. Sci. 2022 12(1), e1606
     doi.org/10.1002/wcms.1606

List of optional additional citations

  1. Neese, F.
     Approximate second-order SCF convergence for spin unrestricted wavefunctions
     Chem. Phys. Lett. 2000 325(1-3), 93-98
     doi.org/10.1016/s0009-2614(00)00662-x

Timings for individual modules:

Sum of individual times          ...      222.009 sec (=   3.700 min)
Startup calculation              ...       49.007 sec (=   0.817 min)  22.1 %
SCF iterations                   ...      101.770 sec (=   1.696 min)  45.8 %
Property integrals               ...       52.926 sec (=   0.882 min)  23.8 %
SCF Response                     ...       11.274 sec (=   0.188 min)   5.1 %
Property calculations            ...        7.032 sec (=   0.117 min)   3.2 %
                             ****ORCA TERMINATED NORMALLY****
TOTAL RUN TIME: 0 days 0 hours 3 minutes 53 seconds 27 msec
