
                                 *****************
                                 * O   R   C   A *
                                 *****************

                                            #,                                       
                                            ###                                      
                                            ####                                     
                                            #####                                    
                                            ######                                   
                                           ########,                                 
                                     ,,################,,,,,                         
                               ,,#################################,,                 
                          ,,##########################################,,             
                       ,#########################################, ''#####,          
                    ,#############################################,,   '####,        
                  ,##################################################,,,,####,       
                ,###########''''           ''''###############################       
              ,#####''   ,,,,##########,,,,          '''####'''          '####       
            ,##' ,,,,###########################,,,                        '##       
           ' ,,###''''                  '''############,,,                           
         ,,##''                                '''############,,,,        ,,,,,,###''
      ,#''                                            '''#######################'''  
     '                                                          ''''####''''         
             ,#######,   #######,   ,#######,      ##                                
            ,#'     '#,  ##    ##  ,#'     '#,    #''#        ,####,    ,#,          
            ##       ##  ##   ,#'  ##            #'  '#       #'       ,# #          
            ##       ##  #######   ##           ,######,      #####,      #          
            '#,     ,#'  ##    ##  '#,     ,#' ,#      #,     #,   #      #          
             '#######'   ##     ##  '#######'  #'      '#     '####' #    #          



                #########################################################
                #                        -***-                          #
                #          Department of theory and spectroscopy        #
                #                                                       #
                #                      Frank Neese                      #
                #                                                       #
                #     Directorship, Architecture, Infrastructure        #
                #                    SHARK, DRIVERS                     #
                #        Core code/Algorithms in most modules           #
                #                                                       #
                #        Max Planck Institute fuer Kohlenforschung      #
                #                Kaiser Wilhelm Platz 1                 #
                #                 D-45470 Muelheim/Ruhr                 #
                #                      Germany                          #
                #                                                       #
                #                  All rights reserved                  #
                #                        -***-                          #
                #########################################################


                         Program Version 6.1.0-f.0  -   RELEASE   -


 With contributions from (in alphabetic order):
[Max-Planck-Institut fuer Kohlenforschung]                               
  Daniel Aravena         : Magnetic Suceptibility                        
  Michael Atanasov       : Ab Initio Ligand Field Theory (pilot matlab implementation)
  Alexander A. Auer      : GIAO ZORA, VPT2 properties, NMR spectrum      
  Ute Becker             : All parallelization in ORCA, NUMFREQ, NUMCALC 
  Giovanni Bistoni       : ED, misc. LED, open-shell LED, HFLD           
  Dmytro Bykov           : pre 5.0 version of the SCF Hessian            
  Marcos Casanova-Páez   : Triplet and SCS-CIS(D). UHF-(DLPNO)-IP/EA/STEOM-CCSD. UHF-CVS-IP/STEOM-CCSD   
  Vijay G. Chilkuri      : MRCI spin determinant printing, contributions to CSF-ICE 
  Pauline Colinet        : FMM embedding                                 
  Dipayan Datta          : RHF DLPNO-CCSD density                        
  Achintya Kumar Dutta   : EOM-CC, STEOM-CC                              
  Nicolas Foglia         : Exact transition moments, OPA infrastructure, MCD improvements    
  Dmitry Ganyushin       : Spin-Orbit,Spin-Spin,Magnetic field MRCI      
  Miquel Garcia-Rates    : C-PCM and meta-GGA Hessian, CCSD/C-PCM, Gaussian charge scheme 
  Tiago L. C. Gouveia    : GS-ROHF, GS-ROCIS                             
  Yang Guo               : DLPNO-NEVPT2, F12-NEVPT2, CIM, IAO-localization        
  Andreas Hansen         : Spin unrestricted coupled pair/coupled cluster methods 
  Ingolf Harden          : AUTO-CI MPn and infrastructure                
  Benjamin Helmich-Paris : MC-RPA, TRAH-(SCF,CASSCF), AVAS, COSX integrals, SCF dyn. polar., MC-PDFT, srDFT 
  Lee Huntington         : MR-EOM, pCC                                   
  Robert Izsak           : Overlap fitted RIJCOSX, COSX-SCS-MP3, EOM     
  Riya Kayal             : Wick's Theorem for AUTO-CI, AUTO-CI UHF-CCSDT 
  Emily Kempfer          : AUTO-CI RHF CISDT and CCSDT, approximate NEVPT4
  Christian Kollmar      : KDIIS, OOCD, Brueckner-CCSD(T), CCSD density, CASPT2, CASPT2-K, improved NEVPT2 
  Axel Koslowski         : Symmetry handling                             
  Simone Kossmann        : meta-GGA functionals, TD-DFT gradient, OOMP2, (MP2 Hessian; deprecated post 5.0) 
  Lucas Lang             : DCDCAS, Hyperfine gauge corrections, ICE-SOC+SSC
  Marvin Lechner         : AUTO-CI (C++ implementation), FIC-MRCC        
  Spencer Leger          : CASSCF response                               
  Dagmar Lenk            : GEPOL surface, SMD, ORCA-2-JSON               
  Dimitrios Liakos       : Extrapolation schemes; Compound Job, Property file
  Dimitrios Manganas     : Further ROCIS development; embedding schemes. LFT, Crystal Embedding 
  Dimitrios Pantazis     : SARC Basis sets                               
  Anastasios Papadopoulos: AUTO-CI, single reference methods and gradients 
  Taras Petrenko         : pre 6.0 DFT Hessian and TD-DFT gradient,  ECA, NRVS 
  Petra Pikulova         : Analytic Raman intensities                    
  Peter Pinski           : DLPNO-MP2, DLPNO-MP2 Gradient                 
  Shashank Vittal Rao    : ES-AILFT, MagRelax                            
  Christoph Reimann      : Effective Core Potentials                     
  Marius Retegan         : Local ZFS, SOC                                
  Christoph Riplinger    : Optimizer, TS searches, QM/MM, DLPNO-CCSD(T), (RO)-DLPNO pert. Triples 
  Michael Roemelt        : Original ROCIS implementation, recursive CI coupling coefficients
  Masaaki Saitow         : Open-shell DLPNO-CCSD energy and density      
  Barbara Sandhoefer     : DKH picture change effects                    
  Yorick L. A. Schmerwitz: GMF and freeze-and-release deltaSCF, NEB S-IDPP initial path                    
  Kantharuban Sivalingam : CASSCF convergence/infrastructure, NEVPT2, NEVPT3, NEVPT4(SD), FIC-MRCI and CEPA variants
  Bernardo de Souza      : ESD, SOC TD-DFT                               
  Georgi L. Stoychev     : AutoAux, RI-MP2 NMR, DLPNO-MP2 response, X2C  
  Van Anh Tran           : RI-MP2 g-tensors                              
  Willem Van den Heuvel  : Paramagnetic NMR                              
  Zikuan Wang            : NOTCH, Electric field optimization            
  Frank Wennmohs         : Technical directorship and infrastructure     
  Hang Xu                : AUTO-CI-Response properties                   
                                                                         
[FACCTs GmbH]                                                            
  Markus Bursch, Nicolas Foglia, Miquel Garcia-Rates, Ingolf Harden, Hagen Neugebauer, Anastasios Papadopoulos, 
  Christoph Riplinger, Bernardo de Souza, Georgi L. Stoychev                                                    
                                                                 
  APM, various basis sets, CI-OPT, improved COSX, DLPNO-Multilevel,           
  DOCKER, DRACO, updates on ESD, Fragmentator, GOAT, IRC, LR-CPCM, L-BFGS, MBIS, meta-GGA TD-DFT gradient, ML-optimized integration grids, 
  MM, NACMEs, nearIR, NEB, NEB-TS, NL-DFT gradient (VV10), 2- and 3-layer-ONIOM, interface openCOSMO-RS, QMMM,   
  Crystal-QMMM, RESP, rigid body optimization, SF, symmetry and pop. for TD-DFT, various functionals, SOLVATOR                                   
                                                                         
[Other institutions]                                                     
  V. Asgeirsson          : NEB                                           
  Christoph Bannwarth    : sTDA-DFT, sTD-DFT, PBEh-3c, B97-3c, D3        
  Giovanni Bistoni       : ETS/NOCV, ADLD/ADEX, COVALED                  
  Martin Brehm           : Molecular dynamics                            
  Ronald Cardenas        : ETS/NOCV                                      
  Martina Colucci        : COVALED                                       
  Sebastian Ehlert       : rSCAN, r2SCAN, r2SCAN-3c, D4, dhf basis sets  
  Marvin Friede          : D4 for Fr, Ra, Ac-Lr                          
  Lars Goerigk           : TD-DFT with DH, B97 family of functionals     
  Stefan Grimme          : VdW corrections, initial TS optimization, DFT functionals, gCP, sTDA/sTD-DF 
  Waldemar Hujo          : DFT-NL                                        
  H. Jonsson             : NEB                                           
  Holger Kruse           : gCP                                           
  Marcel Mueller         : wB97X-3c, vDZP basis set                      
  Hagen Neugebauer       : wr2SCAN, Native XTB                           
  Gianluca Regni         : ADLD/ADEX                                     
  Tobias Risthaus        : pre 6.0 range-separated hybrid DFT and stability analysis
  Lukas Wittmann         : regularized MP2, r2SCAN double-hybrids, wr2SCAN        
                                                                         
We gratefully acknowledge several colleagues who have allowed us to      
interface, adapt or use parts of their codes:                            
  Ed Valeev, F. Pavosevic, A. Kumar             : LibInt (2-el integral package), F12 methods 
  Garnet Chan, S. Sharma, J. Yang, R. Olivares  : DMRG                   
  Ulf Ekstrom                                   : XCFun DFT Library      
  Mihaly Kallay                                 : mrcc  (arbitrary order and MRCC methods)
  Frank Weinhold                                : gennbo (NPA and NBO analysis)           
  Simon Mueller                                 : openCOSMO-RS                            
  Christopher J. Cramer and Donald G. Truhlar   : smd solvation model                     
  S Lehtola, MJT Oliveira, MAL Marques          : LibXC Library                           
  Liviu Ungur et al                             : ANISO software                          


 Your calculation uses the libint2 library for the computation of 2-el integrals
 For citations please refer to: http://libint.valeyev.net

 Your ORCA version has been built with support for libXC version: 7.0.0
 For citations please refer to: https://libxc.gitlab.io

 This ORCA versions uses:
   CBLAS   interface :  Fast vector & matrix operations
   LAPACKE interface :  Fast linear algebra routines
   SCALAPACK package :  Parallel linear algebra routines
   Shared memory     :  Shared parallel matrices
   BLAS/LAPACK       :  OpenBLAS 0.3.29  USE64BITINT DYNAMIC_ARCH NO_AFFINITY Cooperlake SINGLE_THREADED
        Core in use  :  Cooperlake
   Copyright (c) 2011-2014, The OpenBLAS Project


  ***********************************
  * Starting time: Wed Mar  4 13:49:25 2026
  * Host name:     c01b01n07
  * Process ID:    535749
  * Working dir.:  /lustre1/jiangy/jiangy_liuxy/NMR/B9D7C2-RSSR-NMR/opt_conf
  ***********************************

NOTE: MaxCore=5000 MB was set to SCF,MP2,MDCI,CIPSI,MRCI,RASCI and CIS
      => If you want to overwrite this, your respective input block should be placed after the MaxCore statement


***************************************
The coordinates will be read from file: opt-conf-8.xyz
***************************************



Warning: The global flag for NMR shieldings has been found
         but shieldings for certain elements have also been explicitly requested in the EPRNMR block
         ==>> only the requested shieldings will be calculated

================================================================================

----- Orbital basis set information -----
Your calculation utilizes the basis: pcSseg-2
   F. Jensen, J. Chem. Theory Comput. 11, 132 (2015).

----- AuxJ basis set information -----
Your calculation utilizes the AutoAux generation procedure.
  G. L. Stoychev, A. A. Auer, F. Neese, J. Chem. Theory Comput. 13, 554 (2017)

----- AuxC basis set information -----
Your calculation utilizes the AutoAux generation procedure.
  G. L. Stoychev, A. A. Auer, F. Neese, J. Chem. Theory Comput. 13, 554 (2017)

----- AuxJK basis set information -----
Your calculation utilizes the AutoAux generation procedure.
  G. L. Stoychev, A. A. Auer, F. Neese, J. Chem. Theory Comput. 13, 554 (2017)

----- AuxX basis set information -----
Your calculation utilizes the AutoAux generation procedure.
  G. L. Stoychev, A. A. Auer, F. Neese, J. Chem. Theory Comput. 13, 554 (2017)

================================================================================
                                        WARNINGS
                       Please study these warnings very carefully!
================================================================================


================================================================================
                                       INPUT FILE
================================================================================
NAME = nmr-conf-8.inp
|  1> !TPSS PCSSEG-2 AUTOAUX NMR CPCM(Methanol)
|  2> 
|  3> %pal nprocs 60 end
|  4> %maxcore 5000
|  5> 
|  6> *XYZFILE 0 1 opt-conf-8.xyz
|  7> 
|  8> %EPRNMR
|  9>    NUCLEI = ALL C {SHIFT}
| 10>    NUCLEI = ALL H {SHIFT}
| 11>    TAU DOBSON
| 12> END
| 13> 
| 14> 
| 15>                          ****END OF INPUT****
================================================================================

                       ****************************
                       * Single Point Calculation *
                       ****************************

---------------------------------
CARTESIAN COORDINATES (ANGSTROEM)
---------------------------------
  C     21.588448  -32.041759   -1.571685
  C     21.126269  -32.222857   -2.877319
  C     19.740155  -32.254074   -3.105588
  C     18.849093  -32.219329   -2.038486
  C     19.318971  -32.115101   -0.729037
  C     20.684894  -32.006813   -0.511269
  C     18.365262  -32.131297    0.438862
  C     18.391478  -33.464155    1.213899
  C     17.786305  -33.362093    2.629581
  C     18.763206  -32.703529    3.624658
  C     20.104093  -33.383568    3.742704
  C     20.184991  -34.746568    4.054084
  C     21.416145  -35.372079    4.176367
  C     22.600553  -34.636437    4.006640
  C     22.527239  -33.293080    3.692654
  C     21.284694  -32.674999    3.556305
  C     17.774737  -34.588198    0.378562
  C     16.451887  -32.620549    2.720178
  O     19.362978  -32.334821   -4.410455
  O     22.908436  -31.951459   -1.238259
  O     22.018340  -32.294873   -3.921261
  O     23.815090  -35.244512    4.143899
  O     21.610515  -36.694797    4.457914
  C     22.061842  -33.488474   -4.738075
  C     22.925303  -34.575176   -4.077438
  C     22.354556  -35.071176   -2.771919
  C     22.642026  -33.017973   -6.060352
  O     21.815516  -32.034860   -6.675838
  C     23.109237  -34.959499   -1.605958
  C     22.586501  -35.365342   -0.387596
  C     21.303899  -35.923380   -0.335934
  C     20.563819  -36.071626   -1.495814
  C     21.083515  -35.634934   -2.708720
  C     23.796340  -31.171413   -2.047557
  C     17.972100  -32.411692   -4.711657
  C     20.463192  -37.531202    4.600591
  O     23.144139  -35.649273   -5.006893
  O     17.922967  -35.876615    0.981133
  O     15.398655  -33.182997    1.931970
  O     23.210194  -35.260189    0.817605
  O     20.777260  -36.318645    0.864995
  C     24.486758  -34.620704    0.862297
  H     17.785098  -32.272749   -2.215786
  H     21.081001  -31.897466    0.490533
  H     17.351238  -31.927254    0.087148
  H     18.630764  -31.322429    1.123404
  H     19.444472  -33.730664    1.346698
  H     17.608864  -34.386147    2.972791
  H     18.281575  -32.684505    4.608194
  H     18.924603  -31.658737    3.345773
  H     19.278126  -35.316717    4.196836
  H     23.444518  -32.735674    3.550772
  H     21.242249  -31.622865    3.302554
  H     16.704664  -34.428968    0.254222
  H     18.232982  -34.587231   -0.614887
  H     16.146279  -32.577954    3.772207
  H     16.557677  -31.591369    2.372491
  H     23.668324  -36.182985    4.335444
  H     21.049102  -33.859898   -4.897825
  H     23.915274  -34.154272   -3.893963
  H     22.713826  -33.855019   -6.750857
  H     23.651220  -32.622691   -5.886695
  H     21.578884  -31.396951   -5.988372
  H     24.092469  -34.516236   -1.652282
  H     19.574989  -36.507515   -1.438818
  H     20.475955  -35.728346   -3.600548
  H     24.601927  -30.856723   -1.385484
  H     24.200957  -31.757235   -2.870808
  H     23.287118  -30.291732   -2.445028
  H     17.443089  -31.523675   -4.357655
  H     17.907414  -32.467920   -5.795574
  H     17.521701  -33.303872   -4.269956
  H     19.866785  -37.531678    3.685366
  H     20.843942  -38.531038    4.792411
  H     19.845040  -37.204252    5.439903
  H     22.324151  -36.152762   -5.096349
  H     18.873374  -36.064662    1.049265
  H     15.238725  -34.083958    2.239591
  H     21.380813  -36.049990    1.575628
  H     24.417413  -33.598696    0.485851
  H     24.777574  -34.617793    1.907996
  H     25.218674  -35.179958    0.274763

----------------------------
CARTESIAN COORDINATES (A.U.)
----------------------------
  NO LB      ZA    FRAG     MASS         X           Y           Z
   0 C     6.0000    0    12.011   40.796255  -60.550150   -2.970054
   1 C     6.0000    0    12.011   39.922863  -60.892374   -5.437345
   2 C     6.0000    0    12.011   37.303487  -60.951367   -5.868710
   3 C     6.0000    0    12.011   35.619624  -60.885707   -3.852180
   4 C     6.0000    0    12.011   36.507565  -60.688746   -1.377679
   5 C     6.0000    0    12.011   39.088784  -60.484111   -0.966158
   6 C     6.0000    0    12.011   34.705316  -60.719352    0.829328
   7 C     6.0000    0    12.011   34.754857  -63.238088    2.293936
   8 C     6.0000    0    12.011   33.611245  -63.045219    4.969189
   9 C     6.0000    0    12.011   35.457320  -61.800713    6.849611
  10 C     6.0000    0    12.011   37.991229  -63.085802    7.072685
  11 C     6.0000    0    12.011   38.144106  -65.661498    7.661109
  12 C     6.0000    0    12.011   40.470648  -66.843541    7.892191
  13 C     6.0000    0    12.011   42.708856  -65.453379    7.571452
  14 C     6.0000    0    12.011   42.570312  -62.914803    6.978105
  15 C     6.0000    0    12.011   40.222242  -61.746800    6.720442
  16 C     6.0000    0    12.011   33.589385  -65.362221    0.715378
  17 C     6.0000    0    12.011   31.089561  -61.643905    5.140391
  18 O     8.0000    0    15.999   36.590726  -61.103956   -8.334551
  19 O     8.0000    0    15.999   43.290671  -60.379507   -2.339970
  20 O     8.0000    0    15.999   41.608633  -61.028465   -7.410110
  21 O     8.0000    0    15.999   45.003999  -66.602475    7.830835
  22 O     8.0000    0    15.999   40.837955  -69.343117    8.424236
  23 C     6.0000    0    12.011   41.690839  -63.284044   -8.953663
  24 C     6.0000    0    12.011   43.322544  -65.337613   -7.705240
  25 C     6.0000    0    12.011   42.243989  -66.274918   -5.238168
  26 C     6.0000    0    12.011   42.787229  -62.394927  -11.452406
  27 O     8.0000    0    15.999   41.225351  -60.537111  -12.615506
  28 C     6.0000    0    12.011   43.670129  -66.063880   -3.034820
  29 C     6.0000    0    12.011   42.682301  -66.830811   -0.732450
  30 C     6.0000    0    12.011   40.258534  -67.885351   -0.634824
  31 C     6.0000    0    12.011   38.859986  -68.165495   -2.826678
  32 C     6.0000    0    12.011   39.842070  -67.340265   -5.118739
  33 C     6.0000    0    12.011   44.968566  -58.905434   -3.869321
  34 C     6.0000    0    12.011   33.962347  -61.249222   -8.903741
  35 C     6.0000    0    12.011   38.669829  -70.923694    8.693858
  36 O     8.0000    0    15.999   43.736085  -67.367363   -9.461657
  37 O     8.0000    0    15.999   33.869500  -67.796977    1.854073
  38 O     8.0000    0    15.999   29.099240  -62.706776    3.650894
  39 O     8.0000    0    15.999   43.860910  -66.632101    1.545049
  40 O     8.0000    0    15.999   39.263331  -68.632293    1.634604
  41 C     6.0000    0    12.011   46.273266  -65.423649    1.629504
  42 H     1.0000    0     1.008   33.608965  -60.986656   -4.187228
  43 H     1.0000    0     1.008   39.837319  -60.277475    0.926973
  44 H     1.0000    0     1.008   32.789088  -60.333767    0.164685
  45 H     1.0000    0     1.008   35.207042  -59.190813    2.122926
  46 H     1.0000    0     1.008   36.744728  -63.741718    2.544891
  47 H     1.0000    0     1.008   33.275930  -64.980400    5.617761
  48 H     1.0000    0     1.008   34.547171  -61.764764    8.708224
  49 H     1.0000    0     1.008   35.762317  -59.826342    6.322594
  50 H     1.0000    0     1.008   36.430379  -66.738923    7.930870
  51 H     1.0000    0     1.008   44.303719  -61.861460    6.709986
  52 H     1.0000    0     1.008   40.142034  -59.758554    6.240922
  53 H     1.0000    0     1.008   31.567240  -65.061321    0.480409
  54 H     1.0000    0     1.008   34.455343  -65.360394   -1.161969
  55 H     1.0000    0     1.008   30.512045  -61.563411    7.128439
  56 H     1.0000    0     1.008   31.289475  -59.699035    4.483358
  57 H     1.0000    0     1.008   44.726650  -68.375932    8.192803
  58 H     1.0000    0     1.008   39.777039  -63.985934   -9.255547
  59 H     1.0000    0     1.008   45.193318  -64.542221   -7.358523
  60 H     1.0000    0     1.008   42.922910  -63.976715  -12.757270
  61 H     1.0000    0     1.008   44.694329  -61.647952  -11.124241
  62 H     1.0000    0     1.008   40.778182  -59.331639  -11.316384
  63 H     1.0000    0     1.008   45.528168  -65.226232   -3.122360
  64 H     1.0000    0     1.008   36.991368  -68.989205   -2.718972
  65 H     1.0000    0     1.008   38.693947  -67.516789   -6.804049
  66 H     1.0000    0     1.008   46.490905  -58.310757   -2.618185
  67 H     1.0000    0     1.008   45.733180  -60.012478   -5.425041
  68 H     1.0000    0     1.008   44.006276  -57.243078   -4.620434
  69 H     1.0000    0     1.008   32.962662  -59.571113   -8.234774
  70 H     1.0000    0     1.008   33.840108  -61.355478  -10.952048
  71 H     1.0000    0     1.008   33.111217  -62.935197   -8.069047
  72 H     1.0000    0     1.008   37.542783  -70.924594    6.964332
  73 H     1.0000    0     1.008   39.389343  -72.813109    9.056344
  74 H     1.0000    0     1.008   37.501690  -70.305848   10.279927
  75 H     1.0000    0     1.008   42.186531  -68.318820   -9.630705
  76 H     1.0000    0     1.008   35.665509  -68.152334    1.982823
  77 H     1.0000    0     1.008   28.797017  -64.409346    4.232213
  78 H     1.0000    0     1.008   40.403881  -68.124608    2.977505
  79 H     1.0000    0     1.008   46.142223  -63.492335    0.918126
  80 H     1.0000    0     1.008   46.822830  -65.418149    3.605589
  81 H     1.0000    0     1.008   47.656387  -66.480486    0.519226

--------------------------------
INTERNAL COORDINATES (ANGSTROEM)
--------------------------------
 C      0   0   0     0.000000000000     0.00000000     0.00000000
 C      1   0   0     1.396813299317     0.00000000     0.00000000
 C      2   1   0     1.405130864012   118.75939575     0.00000000
 C      3   2   1     1.390649288977   120.45545446   354.60946056
 C      4   3   2     1.395100542026   120.41687903     1.80834600
 C      5   4   3     1.387405409718   118.99581849     1.89377235
 C      5   4   3     1.507915527677   120.87316847   182.43164093
 C      7   5   4     1.542037489905   112.81800278   105.68644269
 C      8   7   5     1.542987205533   113.40933390   161.87178992
 C      9   8   7     1.542147742128   111.82742258   282.31899850
 C     10   9   8     1.508100133028   114.90868630   303.38769316
 C     11  10   9     1.400453946041   120.50609389   305.10312476
 C     12  11  10     1.386345710115   120.66637979   180.63841404
 C     13  12  11     1.404564051302   120.12497657     0.89795699
 C     14  13  12     1.381510113678   119.47216454   358.78618768
 C     11  10   9     1.389472408797   120.99841924   125.59767093
 C      8   7   5     1.530238713203   110.71333476   290.16171611
 C      9   8   7     1.529301879922   115.38220367    46.14070984
 O      3   2   1     1.360683756035   115.50266090   175.36124843
 O      1   2   3     1.364439537640   123.85539901   182.22745059
 O      2   1   3     1.375060726956   120.11719664   176.50464484
 O     14  13  12     1.365172578379   120.31621149   179.11782867
 O     13  12  11     1.366247567868   125.54451475   180.93587705
 C     21   2   1     1.446983167629   119.42394864   120.12568710
 C     24  21   2     1.537181693968   110.94272567   277.09236716
 C     25  24  21     1.508690177894   113.06721718    64.59019452
 C     24  21   2     1.518685020693   104.32474341   156.01913350
 O     27  24  21     1.424238344433   111.61789095   298.80783847
 C     26  25  24     1.393370704397   119.52835816   238.85025375
 C     29  26  25     1.386494626153   120.50782038   177.71826251
 C     30  29  26     1.399694043775   119.64427166     1.66910252
 C     31  30  29     1.383840866409   120.12156215     0.15356874
 C     32  31  30     1.389937680689   119.85372414   358.41987761
 C     20   1   2     1.432413237231   119.84439886    42.66791183
 C     19   3   2     1.425192773480   118.45024759   178.11222066
 C     23  13  12     1.426982761132   118.27348906     2.11623169
 O     25  24  21     1.437171721427   109.62944672   190.08445286
 O     17   8   7     1.430064108406   112.95488237   172.71144745
 O     18   9   8     1.430705363018   114.77724461    59.00792862
 O     30  29  26     1.361087294797   125.64183265   182.47667597
 O     31  30  29     1.369603662611   119.98515957   180.42456217
 C     40  30  29     1.428479738242   118.15042141     3.25647449
 H      4   3   2     1.079987924824   120.26863269   181.80191134
 H      6   5   4     1.082803975250   120.88072237   178.34040156
 H      7   5   4     1.092511171888   109.61422064   342.97639917
 H      7   5   4     1.092408801859   108.88481540   226.47674762
 H      8   7   5     1.094284710873   106.73010405    45.05056121
 H      9   8   7     1.094515506400   106.82191429   165.02137359
 H     10   9   8     1.095295227659   107.95554447   181.29867338
 H     10   9   8     1.093351231984   109.69423404    66.10557043
 H     12  11  10     1.080672145914   119.62835671     0.86090890
 H     15  14  13     1.082697167139   119.04099687   180.78477695
 H     16  11  10     1.083133361457   119.57041778   358.74546617
 H     17   8   7     1.088977012848   110.54624290   291.75380966
 H     17   8   7     1.094043224837   109.04018645    50.24690887
 H     18   9   8     1.096347359188   108.59725157   182.30163014
 H     18   9   8     1.091462733785   110.71850863   299.76853823
 H     22  14  13     0.969000764723   108.45215776     1.40336166
 H     24  21   2     1.090466165717   109.61766890    38.91343783
 H     25  24  21     1.091267761614   108.00887213   303.97172444
 H     27  24  21     1.087472998905   109.85270028   180.07551086
 H     27  24  21     1.097668480731   108.96909326    61.36289215
 H     28  27  24     0.967228830760   106.86212748    46.28481084
 H     29  26  25     1.079524714355   119.36107325     0.17795638
 H     32  31  30     1.082142345408   119.18893964   179.82555220
 H     33  32  31     1.083149076704   118.79474131   182.07387002
 H     34  20   1     1.089192677899   105.80524680   153.61424670
 H     34  20   1     1.088414192502   111.38751022   273.00196942
 H     34  20   1     1.091388362738   110.82268517    35.02135552
 H     35  19   3     1.092585786808   111.11310086    61.10475941
 H     35  19   3     1.087300583870   105.75551444   180.01413904
 H     35  19   3     1.092677005515   111.15431719   298.94643104
 H     36  23  13     1.092400916328   110.82097755    59.46187782
 H     36  23  13     1.086938735147   105.97183538   178.52397653
 H     36  23  13     1.092452645378   110.87584285   297.55903148
 H     37  25  24     0.966377224073   108.66583565   286.64495519
 H     38  17   8     0.971224430858   107.78405089   297.84839838
 H     39  18   9     0.965369812136   108.25820675    60.81837272
 H     41  31  30     0.970284020397   108.85076901     6.24188353
 H     42  40  30     1.091338096701   110.58847541    58.75708159
 H     42  40  30     1.085388938285   105.71102400   178.13382002
 H     42  40  30     1.092548554593   110.65221810   297.04478078

---------------------------
INTERNAL COORDINATES (A.U.)
---------------------------
 C      0   0   0     0.000000000000     0.00000000     0.00000000
 C      1   0   0     2.639594595928     0.00000000     0.00000000
 C      2   1   0     2.655312515303   118.75939575     0.00000000
 C      3   2   1     2.627946304498   120.45545446   354.60946056
 C      4   3   2     2.636357953715   120.41687903     1.80834600
 C      5   4   3     2.621816261087   118.99581849     1.89377235
 C      5   4   3     2.849547380397   120.87316847   182.43164093
 C      7   5   4     2.914028544160   112.81800278   105.68644269
 C      8   7   5     2.915823246601   113.40933390   161.87178992
 C      9   8   7     2.914236890667   111.82742258   282.31899850
 C     10   9   8     2.849896233954   114.90868630   303.38769316
 C     11  10   9     2.646474421187   120.50609389   305.10312476
 C     12  11  10     2.619813719054   120.66637979   180.63841404
 C     13  12  11     2.654241394512   120.12497657     0.89795699
 C     14  13  12     2.610675766093   119.47216454   358.78618768
 C     11  10   9     2.625722323265   120.99841924   125.59767093
 C      8   7   5     2.891732087478   110.71333476   290.16171611
 C      9   8   7     2.889961729144   115.38220367    46.14070984
 O      3   2   1     2.571319653782   115.50266090   175.36124843
 O      1   2   3     2.578417052433   123.85539901   182.22745059
 O      2   1   3     2.598488191457   120.11719664   176.50464484
 O     14  13  12     2.579802298675   120.31621149   179.11782867
 O     13  12  11     2.581833734406   125.54451475   180.93587705
 C     21   2   1     2.734401907212   119.42394864   120.12568710
 C     24  21   2     2.904852419676   110.94272567   277.09236716
 C     25  24  21     2.851011257156   113.06721718    64.59019452
 C     24  21   2     2.869898772798   104.32474341   156.01913350
 O     27  24  21     2.691420420408   111.61789095   298.80783847
 C     26  25  24     2.633089034339   119.52835816   238.85025375
 C     29  26  25     2.620095129582   120.50782038   177.71826251
 C     30  29  26     2.645038414015   119.64427166     1.66910252
 C     31  30  29     2.615080250441   120.12156215     0.15356874
 C     32  31  30     2.626601559719   119.85372414   358.41987761
 C     20   1   2     2.706868728970   119.84439886    42.66791183
 C     19   3   2     2.693224029921   118.45024759   178.11222066
 C     23  13  12     2.696606616366   118.27348906     2.11623169
 O     25  24  21     2.715860960913   109.62944672   190.08445286
 O     17   8   7     2.702429518838   112.95488237   172.71144745
 O     18   9   8     2.703641314436   114.77724461    59.00792862
 O     30  29  26     2.572082231526   125.64183265   182.47667597
 O     31  30  29     2.588175834351   119.98515957   180.42456217
 C     40  30  29     2.699435493132   118.15042141     3.25647449
 H      4   3   2     2.040881405860   120.26863269   181.80191134
 H      6   5   4     2.046202969943   120.88072237   178.34040156
 H      7   5   4     2.064546913118   109.61422064   342.97639917
 H      7   5   4     2.064353461799   108.88481540   226.47674762
 H      8   7   5     2.067898416087   106.73010405    45.05056121
 H      9   8   7     2.068334556427   106.82191429   165.02137359
 H     10   9   8     2.069808016066   107.95554447   181.29867338
 H     10   9   8     2.066134396636   109.69423404    66.10557043
 H     12  11  10     2.042174396334   119.62835671     0.86090890
 H     15  14  13     2.046001131865   119.04099687   180.78477695
 H     16  11  10     2.046825419668   119.57041778   358.74546617
 H     17   8   7     2.057868320419   110.54624290   291.75380966
 H     17   8   7     2.067442073615   109.04018645    50.24690887
 H     18   9   8     2.071796256512   108.59725157   182.30163014
 H     18   9   8     2.062565652235   110.71850863   299.76853823
 H     22  14  13     1.831146068887   108.45215776     1.40336166
 H     24  21   2     2.060682411511   109.61766890    38.91343783
 H     25  24  21     2.062197208227   108.00887213   303.97172444
 H     27  24  21     2.055026145965   109.85270028   180.07551086
 H     27  24  21     2.074292814420   108.96909326    61.36289215
 H     28  27  24     1.827797598969   106.86212748    46.28481084
 H     29  26  25     2.040006064930   119.36107325     0.17795638
 H     32  31  30     2.044952670740   119.18893964   179.82555220
 H     33  32  31     2.046855117180   118.79474131   182.07387002
 H     34  20   1     2.058275868301   105.80524680   153.61424670
 H     34  20   1     2.056804744102   111.38751022   273.00196942
 H     34  20   1     2.062425111323   110.82268517    35.02135552
 H     35  19   3     2.064687914883   111.11310086    61.10475941
 H     35  19   3     2.054700328766   105.75551444   180.01413904
 H     35  19   3     2.064860293256   111.15431719   298.94643104
 H     36  23  13     2.064338560305   110.82097755    59.46187782
 H     36  23  13     2.054016533778   105.97183538   178.52397653
 H     36  23  13     2.064436314042   110.87584285   297.55903148
 H     37  25  24     1.826188295557   108.66583565   286.64495519
 H     38  17   8     1.835348188894   107.78405089   297.84839838
 H     39  18   9     1.824284562892   108.25820675    60.81837272
 H     41  31  30     1.833571070670   108.85076901     6.24188353
 H     42  40  30     2.062330122280   110.58847541    58.75708159
 H     42  40  30     2.051087842146   105.71102400   178.13382002
 H     42  40  30     2.064617556193   110.65221810   297.04478078

---------------------
BASIS SET INFORMATION
---------------------
There are 3 groups of distinct atoms

 Group   1 Type C   : 11s7p2d1f contracted to 4s5p2d1f pattern {7211/31111/11/1}
 Group   2 Type O   : 11s7p2d1f contracted to 4s5p2d1f pattern {7211/31111/11/1}
 Group   3 Type H   : 6s3p1d contracted to 3s2p1d pattern {411/21/1}

Atom   0C    basis set group =>   1
Atom   1C    basis set group =>   1
Atom   2C    basis set group =>   1
Atom   3C    basis set group =>   1
Atom   4C    basis set group =>   1
Atom   5C    basis set group =>   1
Atom   6C    basis set group =>   1
Atom   7C    basis set group =>   1
Atom   8C    basis set group =>   1
Atom   9C    basis set group =>   1
Atom  10C    basis set group =>   1
Atom  11C    basis set group =>   1
Atom  12C    basis set group =>   1
Atom  13C    basis set group =>   1
Atom  14C    basis set group =>   1
Atom  15C    basis set group =>   1
Atom  16C    basis set group =>   1
Atom  17C    basis set group =>   1
Atom  18O    basis set group =>   2
Atom  19O    basis set group =>   2
Atom  20O    basis set group =>   2
Atom  21O    basis set group =>   2
Atom  22O    basis set group =>   2
Atom  23C    basis set group =>   1
Atom  24C    basis set group =>   1
Atom  25C    basis set group =>   1
Atom  26C    basis set group =>   1
Atom  27O    basis set group =>   2
Atom  28C    basis set group =>   1
Atom  29C    basis set group =>   1
Atom  30C    basis set group =>   1
Atom  31C    basis set group =>   1
Atom  32C    basis set group =>   1
Atom  33C    basis set group =>   1
Atom  34C    basis set group =>   1
Atom  35C    basis set group =>   1
Atom  36O    basis set group =>   2
Atom  37O    basis set group =>   2
Atom  38O    basis set group =>   2
Atom  39O    basis set group =>   2
Atom  40O    basis set group =>   2
Atom  41C    basis set group =>   1
Atom  42H    basis set group =>   3
Atom  43H    basis set group =>   3
Atom  44H    basis set group =>   3
Atom  45H    basis set group =>   3
Atom  46H    basis set group =>   3
Atom  47H    basis set group =>   3
Atom  48H    basis set group =>   3
Atom  49H    basis set group =>   3
Atom  50H    basis set group =>   3
Atom  51H    basis set group =>   3
Atom  52H    basis set group =>   3
Atom  53H    basis set group =>   3
Atom  54H    basis set group =>   3
Atom  55H    basis set group =>   3
Atom  56H    basis set group =>   3
Atom  57H    basis set group =>   3
Atom  58H    basis set group =>   3
Atom  59H    basis set group =>   3
Atom  60H    basis set group =>   3
Atom  61H    basis set group =>   3
Atom  62H    basis set group =>   3
Atom  63H    basis set group =>   3
Atom  64H    basis set group =>   3
Atom  65H    basis set group =>   3
Atom  66H    basis set group =>   3
Atom  67H    basis set group =>   3
Atom  68H    basis set group =>   3
Atom  69H    basis set group =>   3
Atom  70H    basis set group =>   3
Atom  71H    basis set group =>   3
Atom  72H    basis set group =>   3
Atom  73H    basis set group =>   3
Atom  74H    basis set group =>   3
Atom  75H    basis set group =>   3
Atom  76H    basis set group =>   3
Atom  77H    basis set group =>   3
Atom  78H    basis set group =>   3
Atom  79H    basis set group =>   3
Atom  80H    basis set group =>   3
Atom  81H    basis set group =>   3
---------------------------------
AUXILIARY/J BASIS SET INFORMATION
---------------------------------
There are 3 groups of distinct atoms

 Group   1 Type C   : 15s13p12d5f5g contracted to 15s13p12d5f5g pattern {111111111111111/1111111111111/111111111111/11111/11111}
 Group   2 Type O   : 15s13p12d5f5g contracted to 15s13p12d5f5g pattern {111111111111111/1111111111111/111111111111/11111/11111}
 Group   3 Type H   : 12s4p3d2f contracted to 12s4p3d2f pattern {111111111111/1111/111/11}

Atom   0C    basis set group =>   1
Atom   1C    basis set group =>   1
Atom   2C    basis set group =>   1
Atom   3C    basis set group =>   1
Atom   4C    basis set group =>   1
Atom   5C    basis set group =>   1
Atom   6C    basis set group =>   1
Atom   7C    basis set group =>   1
Atom   8C    basis set group =>   1
Atom   9C    basis set group =>   1
Atom  10C    basis set group =>   1
Atom  11C    basis set group =>   1
Atom  12C    basis set group =>   1
Atom  13C    basis set group =>   1
Atom  14C    basis set group =>   1
Atom  15C    basis set group =>   1
Atom  16C    basis set group =>   1
Atom  17C    basis set group =>   1
Atom  18O    basis set group =>   2
Atom  19O    basis set group =>   2
Atom  20O    basis set group =>   2
Atom  21O    basis set group =>   2
Atom  22O    basis set group =>   2
Atom  23C    basis set group =>   1
Atom  24C    basis set group =>   1
Atom  25C    basis set group =>   1
Atom  26C    basis set group =>   1
Atom  27O    basis set group =>   2
Atom  28C    basis set group =>   1
Atom  29C    basis set group =>   1
Atom  30C    basis set group =>   1
Atom  31C    basis set group =>   1
Atom  32C    basis set group =>   1
Atom  33C    basis set group =>   1
Atom  34C    basis set group =>   1
Atom  35C    basis set group =>   1
Atom  36O    basis set group =>   2
Atom  37O    basis set group =>   2
Atom  38O    basis set group =>   2
Atom  39O    basis set group =>   2
Atom  40O    basis set group =>   2
Atom  41C    basis set group =>   1
Atom  42H    basis set group =>   3
Atom  43H    basis set group =>   3
Atom  44H    basis set group =>   3
Atom  45H    basis set group =>   3
Atom  46H    basis set group =>   3
Atom  47H    basis set group =>   3
Atom  48H    basis set group =>   3
Atom  49H    basis set group =>   3
Atom  50H    basis set group =>   3
Atom  51H    basis set group =>   3
Atom  52H    basis set group =>   3
Atom  53H    basis set group =>   3
Atom  54H    basis set group =>   3
Atom  55H    basis set group =>   3
Atom  56H    basis set group =>   3
Atom  57H    basis set group =>   3
Atom  58H    basis set group =>   3
Atom  59H    basis set group =>   3
Atom  60H    basis set group =>   3
Atom  61H    basis set group =>   3
Atom  62H    basis set group =>   3
Atom  63H    basis set group =>   3
Atom  64H    basis set group =>   3
Atom  65H    basis set group =>   3
Atom  66H    basis set group =>   3
Atom  67H    basis set group =>   3
Atom  68H    basis set group =>   3
Atom  69H    basis set group =>   3
Atom  70H    basis set group =>   3
Atom  71H    basis set group =>   3
Atom  72H    basis set group =>   3
Atom  73H    basis set group =>   3
Atom  74H    basis set group =>   3
Atom  75H    basis set group =>   3
Atom  76H    basis set group =>   3
Atom  77H    basis set group =>   3
Atom  78H    basis set group =>   3
Atom  79H    basis set group =>   3
Atom  80H    basis set group =>   3
Atom  81H    basis set group =>   3
---------------------------------
AUXILIARY/C BASIS SET INFORMATION
---------------------------------
There are 3 groups of distinct atoms

 Group   1 Type C   : 15s13p12d5f5g contracted to 15s13p12d5f5g pattern {111111111111111/1111111111111/111111111111/11111/11111}
 Group   2 Type O   : 15s13p12d5f5g contracted to 15s13p12d5f5g pattern {111111111111111/1111111111111/111111111111/11111/11111}
 Group   3 Type H   : 12s4p3d2f contracted to 12s4p3d2f pattern {111111111111/1111/111/11}

Atom   0C    basis set group =>   1
Atom   1C    basis set group =>   1
Atom   2C    basis set group =>   1
Atom   3C    basis set group =>   1
Atom   4C    basis set group =>   1
Atom   5C    basis set group =>   1
Atom   6C    basis set group =>   1
Atom   7C    basis set group =>   1
Atom   8C    basis set group =>   1
Atom   9C    basis set group =>   1
Atom  10C    basis set group =>   1
Atom  11C    basis set group =>   1
Atom  12C    basis set group =>   1
Atom  13C    basis set group =>   1
Atom  14C    basis set group =>   1
Atom  15C    basis set group =>   1
Atom  16C    basis set group =>   1
Atom  17C    basis set group =>   1
Atom  18O    basis set group =>   2
Atom  19O    basis set group =>   2
Atom  20O    basis set group =>   2
Atom  21O    basis set group =>   2
Atom  22O    basis set group =>   2
Atom  23C    basis set group =>   1
Atom  24C    basis set group =>   1
Atom  25C    basis set group =>   1
Atom  26C    basis set group =>   1
Atom  27O    basis set group =>   2
Atom  28C    basis set group =>   1
Atom  29C    basis set group =>   1
Atom  30C    basis set group =>   1
Atom  31C    basis set group =>   1
Atom  32C    basis set group =>   1
Atom  33C    basis set group =>   1
Atom  34C    basis set group =>   1
Atom  35C    basis set group =>   1
Atom  36O    basis set group =>   2
Atom  37O    basis set group =>   2
Atom  38O    basis set group =>   2
Atom  39O    basis set group =>   2
Atom  40O    basis set group =>   2
Atom  41C    basis set group =>   1
Atom  42H    basis set group =>   3
Atom  43H    basis set group =>   3
Atom  44H    basis set group =>   3
Atom  45H    basis set group =>   3
Atom  46H    basis set group =>   3
Atom  47H    basis set group =>   3
Atom  48H    basis set group =>   3
Atom  49H    basis set group =>   3
Atom  50H    basis set group =>   3
Atom  51H    basis set group =>   3
Atom  52H    basis set group =>   3
Atom  53H    basis set group =>   3
Atom  54H    basis set group =>   3
Atom  55H    basis set group =>   3
Atom  56H    basis set group =>   3
Atom  57H    basis set group =>   3
Atom  58H    basis set group =>   3
Atom  59H    basis set group =>   3
Atom  60H    basis set group =>   3
Atom  61H    basis set group =>   3
Atom  62H    basis set group =>   3
Atom  63H    basis set group =>   3
Atom  64H    basis set group =>   3
Atom  65H    basis set group =>   3
Atom  66H    basis set group =>   3
Atom  67H    basis set group =>   3
Atom  68H    basis set group =>   3
Atom  69H    basis set group =>   3
Atom  70H    basis set group =>   3
Atom  71H    basis set group =>   3
Atom  72H    basis set group =>   3
Atom  73H    basis set group =>   3
Atom  74H    basis set group =>   3
Atom  75H    basis set group =>   3
Atom  76H    basis set group =>   3
Atom  77H    basis set group =>   3
Atom  78H    basis set group =>   3
Atom  79H    basis set group =>   3
Atom  80H    basis set group =>   3
Atom  81H    basis set group =>   3
----------------------------------
AUXILIARY/JK BASIS SET INFORMATION
----------------------------------
There are 3 groups of distinct atoms

 Group   1 Type C   : 15s13p12d5f5g contracted to 15s13p12d5f5g pattern {111111111111111/1111111111111/111111111111/11111/11111}
 Group   2 Type O   : 15s13p12d5f5g contracted to 15s13p12d5f5g pattern {111111111111111/1111111111111/111111111111/11111/11111}
 Group   3 Type H   : 12s4p3d2f contracted to 12s4p3d2f pattern {111111111111/1111/111/11}

Atom   0C    basis set group =>   1
Atom   1C    basis set group =>   1
Atom   2C    basis set group =>   1
Atom   3C    basis set group =>   1
Atom   4C    basis set group =>   1
Atom   5C    basis set group =>   1
Atom   6C    basis set group =>   1
Atom   7C    basis set group =>   1
Atom   8C    basis set group =>   1
Atom   9C    basis set group =>   1
Atom  10C    basis set group =>   1
Atom  11C    basis set group =>   1
Atom  12C    basis set group =>   1
Atom  13C    basis set group =>   1
Atom  14C    basis set group =>   1
Atom  15C    basis set group =>   1
Atom  16C    basis set group =>   1
Atom  17C    basis set group =>   1
Atom  18O    basis set group =>   2
Atom  19O    basis set group =>   2
Atom  20O    basis set group =>   2
Atom  21O    basis set group =>   2
Atom  22O    basis set group =>   2
Atom  23C    basis set group =>   1
Atom  24C    basis set group =>   1
Atom  25C    basis set group =>   1
Atom  26C    basis set group =>   1
Atom  27O    basis set group =>   2
Atom  28C    basis set group =>   1
Atom  29C    basis set group =>   1
Atom  30C    basis set group =>   1
Atom  31C    basis set group =>   1
Atom  32C    basis set group =>   1
Atom  33C    basis set group =>   1
Atom  34C    basis set group =>   1
Atom  35C    basis set group =>   1
Atom  36O    basis set group =>   2
Atom  37O    basis set group =>   2
Atom  38O    basis set group =>   2
Atom  39O    basis set group =>   2
Atom  40O    basis set group =>   2
Atom  41C    basis set group =>   1
Atom  42H    basis set group =>   3
Atom  43H    basis set group =>   3
Atom  44H    basis set group =>   3
Atom  45H    basis set group =>   3
Atom  46H    basis set group =>   3
Atom  47H    basis set group =>   3
Atom  48H    basis set group =>   3
Atom  49H    basis set group =>   3
Atom  50H    basis set group =>   3
Atom  51H    basis set group =>   3
Atom  52H    basis set group =>   3
Atom  53H    basis set group =>   3
Atom  54H    basis set group =>   3
Atom  55H    basis set group =>   3
Atom  56H    basis set group =>   3
Atom  57H    basis set group =>   3
Atom  58H    basis set group =>   3
Atom  59H    basis set group =>   3
Atom  60H    basis set group =>   3
Atom  61H    basis set group =>   3
Atom  62H    basis set group =>   3
Atom  63H    basis set group =>   3
Atom  64H    basis set group =>   3
Atom  65H    basis set group =>   3
Atom  66H    basis set group =>   3
Atom  67H    basis set group =>   3
Atom  68H    basis set group =>   3
Atom  69H    basis set group =>   3
Atom  70H    basis set group =>   3
Atom  71H    basis set group =>   3
Atom  72H    basis set group =>   3
Atom  73H    basis set group =>   3
Atom  74H    basis set group =>   3
Atom  75H    basis set group =>   3
Atom  76H    basis set group =>   3
Atom  77H    basis set group =>   3
Atom  78H    basis set group =>   3
Atom  79H    basis set group =>   3
Atom  80H    basis set group =>   3
Atom  81H    basis set group =>   3
---------------------------------
AUXILIARY/X BASIS SET INFORMATION
---------------------------------
There are 3 groups of distinct atoms

 Group   1 Type C   : 15s13p12d5f5g contracted to 15s13p12d5f5g pattern {111111111111111/1111111111111/111111111111/11111/11111}
 Group   2 Type O   : 15s13p12d5f5g contracted to 15s13p12d5f5g pattern {111111111111111/1111111111111/111111111111/11111/11111}
 Group   3 Type H   : 12s4p3d2f contracted to 12s4p3d2f pattern {111111111111/1111/111/11}

Atom   0C    basis set group =>   1
Atom   1C    basis set group =>   1
Atom   2C    basis set group =>   1
Atom   3C    basis set group =>   1
Atom   4C    basis set group =>   1
Atom   5C    basis set group =>   1
Atom   6C    basis set group =>   1
Atom   7C    basis set group =>   1
Atom   8C    basis set group =>   1
Atom   9C    basis set group =>   1
Atom  10C    basis set group =>   1
Atom  11C    basis set group =>   1
Atom  12C    basis set group =>   1
Atom  13C    basis set group =>   1
Atom  14C    basis set group =>   1
Atom  15C    basis set group =>   1
Atom  16C    basis set group =>   1
Atom  17C    basis set group =>   1
Atom  18O    basis set group =>   2
Atom  19O    basis set group =>   2
Atom  20O    basis set group =>   2
Atom  21O    basis set group =>   2
Atom  22O    basis set group =>   2
Atom  23C    basis set group =>   1
Atom  24C    basis set group =>   1
Atom  25C    basis set group =>   1
Atom  26C    basis set group =>   1
Atom  27O    basis set group =>   2
Atom  28C    basis set group =>   1
Atom  29C    basis set group =>   1
Atom  30C    basis set group =>   1
Atom  31C    basis set group =>   1
Atom  32C    basis set group =>   1
Atom  33C    basis set group =>   1
Atom  34C    basis set group =>   1
Atom  35C    basis set group =>   1
Atom  36O    basis set group =>   2
Atom  37O    basis set group =>   2
Atom  38O    basis set group =>   2
Atom  39O    basis set group =>   2
Atom  40O    basis set group =>   2
Atom  41C    basis set group =>   1
Atom  42H    basis set group =>   3
Atom  43H    basis set group =>   3
Atom  44H    basis set group =>   3
Atom  45H    basis set group =>   3
Atom  46H    basis set group =>   3
Atom  47H    basis set group =>   3
Atom  48H    basis set group =>   3
Atom  49H    basis set group =>   3
Atom  50H    basis set group =>   3
Atom  51H    basis set group =>   3
Atom  52H    basis set group =>   3
Atom  53H    basis set group =>   3
Atom  54H    basis set group =>   3
Atom  55H    basis set group =>   3
Atom  56H    basis set group =>   3
Atom  57H    basis set group =>   3
Atom  58H    basis set group =>   3
Atom  59H    basis set group =>   3
Atom  60H    basis set group =>   3
Atom  61H    basis set group =>   3
Atom  62H    basis set group =>   3
Atom  63H    basis set group =>   3
Atom  64H    basis set group =>   3
Atom  65H    basis set group =>   3
Atom  66H    basis set group =>   3
Atom  67H    basis set group =>   3
Atom  68H    basis set group =>   3
Atom  69H    basis set group =>   3
Atom  70H    basis set group =>   3
Atom  71H    basis set group =>   3
Atom  72H    basis set group =>   3
Atom  73H    basis set group =>   3
Atom  74H    basis set group =>   3
Atom  75H    basis set group =>   3
Atom  76H    basis set group =>   3
Atom  77H    basis set group =>   3
Atom  78H    basis set group =>   3
Atom  79H    basis set group =>   3
Atom  80H    basis set group =>   3
Atom  81H    basis set group =>   3
--------------------------------------------------------------------------
WARNING: There was an error initializing an OpenFabrics device.

  Local host:   c01b01n07
  Local device: mlx5_0
--------------------------------------------------------------------------
--------------------------------------------------------------------------
WARNING: There is at least one non-excluded one OpenFabrics device found,
but there are no active ports detected (or Open MPI was unable to use
them).  This is most certainly not what you wanted.  Check your
cables, subnet manager configuration, etc.  The openib BTL will be
ignored for this job.

  Local host: c01b01n07
--------------------------------------------------------------------------


           ************************************************************
           *        Program running with 60 parallel MPI-processes    *
           *              working on a common directory               *
           ************************************************************
------------------------------------------------------------------------------
                             ORCA STARTUP CALCULATIONS
                           -- RI-GTO INTEGRALS CHOSEN --
------------------------------------------------------------------------------
------------------------------------------------------------------------------
                   ___                                                        
                  /   \      - P O W E R E D   B Y -                         
                 /     \                                                     
                 |  |  |   _    _      __       _____    __    __             
                 |  |  |  | |  | |    /  \     |  _  \  |  |  /  |          
                  \  \/   | |  | |   /    \    | | | |  |  | /  /          
                 / \  \   | |__| |  /  /\  \   | |_| |  |  |/  /          
                |  |  |   |  __  | /  /__\  \  |    /   |      \           
                |  |  |   | |  | | |   __   |  |    \   |  |\   \          
                \     /   | |  | | |  |  |  |  | |\  \  |  | \   \       
                 \___/    |_|  |_| |__|  |__|  |_| \__\ |__|  \__/        
                                                                              
                      - O R C A' S   B I G   F R I E N D -                    
                                      &                                       
                       - I N T E G R A L  F E E D E R -                       
                                                                              
 v1 FN, 2020, v2 2021, v3 2022-2024                                           
------------------------------------------------------------------------------


[c01b01n07:535750] 55 more processes have sent help message help-mpi-btl-openib.txt / error in device init
[c01b01n07:535750] Set MCA parameter "orte_base_help_aggregate" to 0 to see all help / error messages
[c01b01n07:535750] 3 more processes have sent help message help-mpi-btl-openib.txt / no active ports found
----------------------
SHARK INTEGRAL PACKAGE
----------------------

Number of atoms                             ...     82
Number of basis functions                   ...   2072
Number of shells                            ...    744
Maximum angular momentum                    ...      3
Integral batch strategy                     ... SHARK/LIBINT Hybrid
RI-J (if used) integral strategy            ... SPLIT-RIJ (Revised 2003 algorithm where possible)
Printlevel                                  ...      1
Contraction scheme used                     ... SEGMENTED contraction
Prescreening option                         ... SCHWARTZ
   Thresh                                   ... 1.000e-10
   Tcut                                     ... 1.000e-11
   Tpresel                                  ... 1.000e-11 
Coulomb Range Separation                    ... NOT USED
Exchange Range Separation                   ... NOT USED
Multipole approximations                    ... NOT USED
Finite Nucleus Model                        ... NOT USED
CABS basis                                  ... NOT available
Auxiliary Coulomb fitting basis             ... AVAILABLE
   # of basis functions in Aux-J            ...  10268
   # of shells in Aux-J                     ...   2940
   Maximum angular momentum in Aux-J        ...      4
Auxiliary J/K fitting basis                 ... AVAILABLE
   # of basis functions in Aux-JK           ...  10268
   # of shells in Aux-JK                    ...   2940
   Maximum angular momentum in Aux-JK       ...      4
Auxiliary Correlation fitting basis         ... AVAILABLE
   # of basis functions in Aux-C            ...  10268
   # of shells in Aux-C                     ...   2940
   Maximum angular momentum in Aux-C        ...      4
Auxiliary 'external' fitting basis          ... NOT available

Checking pre-screening integrals            ... done (  0.0 sec) Dimension = 744
   => SHARK Basis and OBASIS are compatible. Storing Pre-screening
Shell pair information
Shell pair cut-off parameter TPreSel        ...   1.0e-11
Total number of shell pairs                 ...    277140
Shell pairs after pre-screening             ...    148756
Total number of primitive shell pairs       ...    823733
Primitive shell pairs kept                  ...    272403
          la=0 lb=0:  28310 shell pairs
          la=1 lb=0:  49443 shell pairs
          la=1 lb=1:  20236 shell pairs
          la=2 lb=0:  19416 shell pairs
          la=2 lb=1:  14784 shell pairs
          la=2 lb=2:   2638 shell pairs
          la=3 lb=0:   6726 shell pairs
          la=3 lb=1:   5082 shell pairs
          la=3 lb=2:   1783 shell pairs
          la=3 lb=3:    338 shell pairs

Checking whether 4 symmetric matrices of dimension 2072 fit in memory
:Max Core in MB      =   5000.00
 MB in use           =    183.87
 MB left             =   4816.13
 MB needed           =     65.54
 Data fit in memory  = YES
Calculating RI/J V-Matrix + Cholesky decomp.... done (  6.1 sec)
Calculating RI/JK V-Matrix + Cholesky decomp.... done (  3.9 sec)
Calculating RI/C V-Matrix + Cholesky decomp.... done (  4.0 sec)
Calculating Nuclear repulsion               ... done (  0.0 sec) ENN=   5678.075526307637 Eh

Diagonalization of the overlap matrix:
Smallest eigenvalue                        ... 7.802e-06
Time for diagonalization                   ...    2.145 sec
Threshold for overlap eigenvalues          ... 1.000e-07
Number of eigenvalues below threshold      ... 0
Time for construction of square roots      ...    0.363 sec
Total time needed                          ...    2.570 sec

-------------------
DFT GRID GENERATION
-------------------

General Integration Accuracy     IntAcc      ... 4.388
Radial Grid Type                 RadialGrid  ... OptM3 with GC (2021)
Angular Grid (max. ang.)         AngularGrid ... 4 (Lebedev-302)
Angular grid pruning method      GridPruning ... 4 (adaptive)
Weight generation scheme         WeightScheme... mBecke (2022)
Basis function cutoff            BFCut       ... 1.0000e-10
Integration weight cutoff        WCut        ... 1.0000e-14
Partially contracted basis set               ... off
Rotationally invariant grid construction     ... off
Angular grids for H and He will be reduced by one unit
Diffuse basis detected: some atoms will have their outermost
                        angular grid increased by 1.

Total number of grid points                  ...   376973
Total number of batches                      ...     5936
Average number of points per batch           ...       63
Average number of grid points per atom       ...     4597
Grids setup in   3.9 sec
Initializing property integral containers    ... done (  0.3 sec)

SHARK setup successfully completed in  25.0 seconds

Maximum memory used throughout the entire STARTUP-calculation: 255.8 MB
--------------------------------------------------------------------------
WARNING: There was an error initializing an OpenFabrics device.

  Local host:   c01b01n07
  Local device: mlx5_0
--------------------------------------------------------------------------
--------------------------------------------------------------------------
WARNING: There is at least one non-excluded one OpenFabrics device found,
but there are no active ports detected (or Open MPI was unable to use
them).  This is most certainly not what you wanted.  Check your
cables, subnet manager configuration, etc.  The openib BTL will be
ignored for this job.

  Local host: c01b01n07
--------------------------------------------------------------------------


           ************************************************************
           *        Program running with 60 parallel MPI-processes    *
           *              working on a common directory               *
           ************************************************************
-------------------------------------------------------------------------------
                                 ORCA GUESS
                   Start orbitals & Density for SCF / CASSCF
-------------------------------------------------------------------------------

------------
SCF SETTINGS
------------
Hamiltonian:
 Density Functional     Method          .... DFT(GTOs)
 Exchange Functional    Exchange        .... TPSS
 Correlation Functional Correlation     .... TPSS
 LDA part of GGA corr.  LDAOpt          .... PW91-LDA
 Gradients option       PostSCFGGA      .... off
   NL short-range parameter             ....  5.000000
 RI-approximation to the Coulomb term is turned on
   Number of AuxJ basis functions       .... 10268


General Settings:
 Integral files         IntName         .... nmr-conf-8
 Hartree-Fock type      HFTyp           .... RHF
 Total Charge           Charge          ....    0
 Multiplicity           Mult            ....    1
 Number of Electrons    NEL             ....  314
 Basis Dimension        Dim             .... 2072
 Nuclear Repulsion      ENuc            ....   5678.0755263076 Eh

Convergence Acceleration:
 AO-DIIS                CNVDIIS         .... on
   Start iteration      DIISMaxIt       ....    12
   Startup error        DIISStart       ....  0.200000
   # of expansion vecs  DIISMaxEq       ....     5
   Bias factor          DIISBfac        ....   1.050
   Max. coefficient     DIISMaxC        ....  10.000
 MO-DIIS                CNVKDIIS        .... off
 Trust-Rad. Augm. Hess. CNVTRAH         .... auto
   Auto Start mean grad. ratio tolernc. ....  1.125000
   Auto Start start iteration           ....    50
   Auto Start num. interpolation iter.  ....    10
   Max. Number of Micro iterations      ....    24
   Max. Number of Macro iterations      .... Maxiter - #DIIS iter
   Number of Davidson start vectors     ....     2
   Converg. threshold    (grad. norm)   ....   5.000e-05
   Grad. Scal. Fac. for Micro threshold ....   0.100
   Minimum threshold for Micro iter.    ....   1.000e-02
   NR start threshold (gradient norm)   ....   1.000e-04
   Initial trust radius                 ....   0.400
   Minimum AH scaling param. (alpha)    ....   1.000
   Maximum AH scaling param. (alpha)    .... 1000.000
   Quad. conv. algorithm                .... NR
   White noise on init. David. guess    .... on
   Maximum white noise                  ....   0.010
   Pseudo random numbers                .... off
   Inactive MOs                         .... canonical
   Orbital update algorithm             .... Taylor
   Preconditioner                       .... Diag
   Full preconditioner red. dimension   ....   250
 SOSCF                 CNVSOSCF           .... on
   Start iteration     SOSCFMaxIt         ....   150
   Startup grad/error  SOSCFStart         ....  0.003300
   Hessian update      SOSCFHessUp        .... L-BFGS
   Autom. constraints  SOSCFAutoConstrain .... off
 Level Shifting         CNVShift        .... on
   Level shift para.    LevelShift      ....    0.2500
   Turn off err/grad.   ShiftErr        ....    0.0010
 Zerner damping         CNVZerner       .... off
 Static damping         CNVDamp         .... on
   Fraction old density DampFac         ....    0.7000
   Max. Damping (<1)    DampMax         ....    0.9800
   Min. Damping (>=0)   DampMin         ....    0.0000
   Turn off err/grad.   DampErr         ....    0.1000

SCF Procedure:
 Maximum # iterations   MaxIter         ....   125
 SCF integral mode      SCFMode         .... Direct
   Integral package                     .... SHARK and LIBINT hybrid scheme
 Reset frequency        DirectResetFreq ....    20
 Integral Threshold     Thresh          ....  1.000e-10 Eh
 Primitive CutOff       TCut            ....  1.000e-11 Eh

Convergence Tolerance:
 Convergence Check Mode ConvCheckMode   .... Total+1el-Energy
 Convergence forced     ConvForced      .... 0
 Energy Change          TolE            ....  1.000e-06 Eh
 1-El. energy change                    ....  1.000e-03 Eh
 Orbital Gradient       TolG            ....  5.000e-05
 Orbital Rotation angle TolX            ....  5.000e-05
 DIIS Error             TolErr          ....  1.000e-06

------------------------------
INITIAL GUESS: MODEL POTENTIAL
------------------------------
Loading Hartree-Fock densities                     ... done
Calculating cut-offs                               ... done
Initializing the effective Hamiltonian             ... done
Setting up the integral package (SHARK)            ... done
Starting the Coulomb interaction                   ... done (   1.6 sec)
Making the grid                                    ... done (   0.6 sec)
Mapping shells                                     ... done
Starting the XC term evaluation                    ... done (   0.2 sec)
  promolecular density results
     # of electrons  =    313.983072095
     EX              =   -260.281693730
     EC              =    -10.630949780
     EX+EC           =   -270.912643510
Transforming the Hamiltonian                       ... [c01b01n07:536152] 53 more processes have sent help message help-mpi-btl-openib.txt / error in device init
[c01b01n07:536152] Set MCA parameter "orte_base_help_aggregate" to 0 to see all help / error messages
[c01b01n07:536152] 5 more processes have sent help message help-mpi-btl-openib.txt / no active ports found
done (   0.3 sec)
Diagonalizing the Hamiltonian                      ... done (   0.6 sec)
Back transforming the eigenvectors                 ... done (   0.2 sec)
Now organizing SCF variables                       ... done
                      ------------------
                      INITIAL GUESS DONE (   4.0 sec)
                      ------------------
             **** ENERGY FILE WAS UPDATED (nmr-conf-8.en.tmp) ****
Finished Guess after   8.0 sec
Maximum memory used throughout the entire GUESS-calculation: 287.0 MB
--------------------------------------------------------------------------
WARNING: There was an error initializing an OpenFabrics device.

  Local host:   c01b01n07
  Local device: mlx5_0
--------------------------------------------------------------------------
--------------------------------------------------------------------------
WARNING: There is at least one non-excluded one OpenFabrics device found,
but there are no active ports detected (or Open MPI was unable to use
them).  This is most certainly not what you wanted.  Check your
cables, subnet manager configuration, etc.  The openib BTL will be
ignored for this job.

  Local host: c01b01n07
--------------------------------------------------------------------------
[c01b01n07:536598] [[23547,0],0] ORTE_ERROR_LOG: Out of resource in file util/show_help.c at line 501


           ************************************************************
           *        Program running with 60 parallel MPI-processes    *
           *              working on a common directory               *
           ************************************************************

-------------------------------------------------------------------------------------------
                                      ORCA LEAN-SCF
                              memory conserving SCF solver
-------------------------------------------------------------------------------------------

--------------------
CPCM SOLVATION MODEL
--------------------
CPCM parameters:
  Epsilon                                         ...      33.4280
  Refrac                                          ...       1.3288
  Rsolv                                           ...       1.3000
  Surface type                                    ... GAUSSIAN VDW
  Discretization scheme                           ... Constant charge density
    Threshold for H atoms                         ...       5.0000 (charges/Ang^2)
    Threshold for non-H atoms                     ...       5.0000 (charges/Ang^2)
  Epsilon function type                           ...         CPCM
Solvent:                                          ... METHANOL
Radii:
  Scheme                                          ... Element-dependent radii
  Radius for C  used is    3.8550 Bohr (=   2.0400 Ang.)
  Radius for O  used is    3.4469 Bohr (=   1.8240 Ang.)
  Radius for H  used is    2.4944 Bohr (=   1.3200 Ang.)
Calculating surface                               ...        done! (  0.1s)
Cavity surface points                             ...         6259
Cavity Volume                                     ...    4520.4536
Cavity Surface-area                               ...    2086.8623
Calculating surface distance matrix               ...        done! (  0.2s)
Performing Cholesky decomposition & store         ...        done! (  0.7s)
Overall time for CPCM initialization              ...                 1.0s

----------------------------------------D-I-I-S--------------------------------------------
Iteration    Energy (Eh)           Delta-E    RMSDP     MaxDP     DIISErr   Damp  Time(sec)
-------------------------------------------------------------------------------------------
               ***  Starting incremental Fock matrix formation  ***
[c01b01n07:536598] 47 more processes have sent help message help-mpi-btl-openib.txt / error in device init
[c01b01n07:536598] Set MCA parameter "orte_base_help_aggregate" to 0 to see all help / error messages
[c01b01n07:536598] 10 more processes have sent help message help-mpi-btl-openib.txt / no active ports found
    1    -2033.0065122660516863     0.00e+00  8.07e-03  3.16e-01  2.37e-01  0.700  14.4
    2    -2033.4180283059949943    -4.12e-01  6.47e-03  2.04e-01  8.45e-02  0.700   8.5
                               ***Turning on AO-DIIS***
    3    -2033.5715346938859511    -1.54e-01  2.73e-03  7.07e-02  2.51e-02  0.700   6.9
    4    -2033.6642659442804870    -9.27e-02  4.66e-03  8.38e-02  1.22e-02  0.000   6.7
    5    -2033.8696989038990068    -2.05e-01  1.21e-03  3.14e-02  4.91e-03  0.000   6.8
                              *** Initializing SOSCF ***
---------------------------------------S-O-S-C-F--------------------------------------
Iteration    Energy (Eh)           Delta-E    RMSDP     MaxDP     MaxGrad    Time(sec)
--------------------------------------------------------------------------------------
    6    -2033.8711043959501694    -1.41e-03  3.95e-04  6.43e-03  1.49e-03     8.3
               *** Restarting incremental Fock matrix formation ***
    7    -2033.8712153064971062    -1.11e-04  3.07e-04  5.57e-03  1.32e-04     6.8
    8    -2033.8711933201821012     2.20e-05  7.96e-05  2.47e-03  6.05e-04     5.7
    9    -2033.8712309660531901    -3.76e-05  6.82e-05  1.09e-03  1.17e-04     5.8
   10    -2033.8712309496295347     1.64e-08  2.33e-05  7.03e-04  1.06e-04     6.2
                 **** Energy Check signals convergence ****

               *****************************************************
               *                     SUCCESS                       *
               *           SCF CONVERGED AFTER  10 CYCLES          *
               *****************************************************

             **** ENERGY FILE WAS UPDATED (nmr-conf-8.en.tmp) ****

----------------
TOTAL SCF ENERGY
----------------

Total Energy       :      -2033.87123169815368 Eh          -55344.44987 eV

Components:
Nuclear Repulsion  :       5678.07552630763712 Eh          154508.29012 eV
Electronic Energy  :      -7711.90448272513822 Eh         -209851.58962 eV
One Electron Energy:     -14084.73019142402336 Eh         -383264.99332 eV
Two Electron Energy:       6372.82570869888514 Eh          173413.40370 eV
CPCM Dielectric    :         -0.04227528065218 Eh              -1.15037 eV

Virial components:
Potential Energy   :      -4061.11238064632653 Eh         -110508.48602 eV
Kinetic Energy     :       2027.24114894817262 Eh           55164.03615 eV
Virial Ratio       :          2.00327049534952

DFT components:
N(Alpha)           :      157.000215997407 electrons
N(Beta)            :      157.000215997407 electrons
N(Total)           :      314.000431994814 electrons
E(X)               :     -268.087071950967 Eh       
E(C)               :      -10.599435824073 Eh       
E(XC)              :     -278.686507775040 Eh       

CPCM Solvation Model Properties:
Surface-charge          :         -0.04304883188539
Corrected charge        :         -0.00000000000000
Outlying charge corr.   :          0.00007932794915 Eh               0.00216 eV
Free-energy (cav+disp)  :  This term is not implemented in the current solvation scheme

---------------
SCF CONVERGENCE
---------------

  Last Energy change         ...   -1.6424e-08  Tolerance :   1.0000e-06
  Last MAX-Density change    ...    7.0318e-04  Tolerance :   1.0000e-05
  Last RMS-Density change    ...    2.3251e-05  Tolerance :   1.0000e-06
  Last DIIS Error            ...    1.4916e-03  Tolerance :   1.0000e-06
  Last Orbital Gradient      ...    1.0577e-04  Tolerance :   5.0000e-05
  Last Orbital Rotation      ...    2.0184e-04  Tolerance :   5.0000e-05


----------------
ORBITAL ENERGIES
----------------

  NO   OCC          E(Eh)            E(eV) 
   0   2.0000     -18.920261      -514.8465 
   1   2.0000     -18.919158      -514.8165 
   2   2.0000     -18.917584      -514.7736 
   3   2.0000     -18.912297      -514.6298 
   4   2.0000     -18.910178      -514.5721 
   5   2.0000     -18.903521      -514.3910 
   6   2.0000     -18.900763      -514.3159 
   7   2.0000     -18.885754      -513.9075 
   8   2.0000     -18.878949      -513.7223 
   9   2.0000     -18.877436      -513.6811 
  10   2.0000     -18.866951      -513.3958 
  11   2.0000     -10.046861      -273.3890 
  12   2.0000     -10.045459      -273.3508 
  13   2.0000     -10.045416      -273.3497 
  14   2.0000     -10.044010      -273.3114 
  15   2.0000     -10.043642      -273.3014 
  16   2.0000     -10.042598      -273.2730 
  17   2.0000     -10.040915      -273.2272 
  18   2.0000     -10.040587      -273.2183 
  19   2.0000     -10.036753      -273.1139 
  20   2.0000     -10.035813      -273.0883 
  21   2.0000     -10.033751      -273.0322 
  22   2.0000     -10.032216      -272.9905 
  23   2.0000     -10.028975      -272.9023 
  24   2.0000     -10.027481      -272.8616 
  25   2.0000     -10.024696      -272.7859 
  26   2.0000     -10.015829      -272.5446 
  27   2.0000      -9.989993      -271.8415 
  28   2.0000      -9.989939      -271.8401 
  29   2.0000      -9.988136      -271.7910 
  30   2.0000      -9.987420      -271.7715 
  31   2.0000      -9.986867      -271.7565 
  32   2.0000      -9.985372      -271.7158 
  33   2.0000      -9.984603      -271.6949 
  34   2.0000      -9.983382      -271.6616 
  35   2.0000      -9.983163      -271.6557 
  36   2.0000      -9.983071      -271.6532 
  37   2.0000      -9.982431      -271.6358 
  38   2.0000      -9.981172      -271.6015 
  39   2.0000      -9.979511      -271.5563 
  40   2.0000      -9.976965      -271.4870 
  41   2.0000      -9.972640      -271.3693 
  42   2.0000      -1.015046       -27.6208 
  43   2.0000      -1.011857       -27.5340 
  44   2.0000      -1.007311       -27.4103 
  45   2.0000      -0.991589       -26.9825 
  46   2.0000      -0.989291       -26.9200 
  47   2.0000      -0.984190       -26.7812 
  48   2.0000      -0.978645       -26.6303 
  49   2.0000      -0.958433       -26.0803 
  50   2.0000      -0.949640       -25.8410 
  51   2.0000      -0.949365       -25.8335 
  52   2.0000      -0.939523       -25.5657 
  53   2.0000      -0.798514       -21.7287 
  54   2.0000      -0.797719       -21.7070 
  55   2.0000      -0.794298       -21.6139 
  56   2.0000      -0.758654       -20.6440 
  57   2.0000      -0.733727       -19.9657 
  58   2.0000      -0.718058       -19.5394 
  59   2.0000      -0.702605       -19.1189 
  60   2.0000      -0.700531       -19.0624 
  61   2.0000      -0.699192       -19.0260 
  62   2.0000      -0.697074       -18.9683 
  63   2.0000      -0.687788       -18.7157 
  64   2.0000      -0.669229       -18.2106 
  65   2.0000      -0.649884       -17.6842 
  66   2.0000      -0.649151       -17.6643 
  67   2.0000      -0.643832       -17.5195 
  68   2.0000      -0.633722       -17.2445 
  69   2.0000      -0.622302       -16.9337 
  70   2.0000      -0.615700       -16.7540 
  71   2.0000      -0.614074       -16.7098 
  72   2.0000      -0.577558       -15.7162 
  73   2.0000      -0.569524       -15.4975 
  74   2.0000      -0.563007       -15.3202 
  75   2.0000      -0.558817       -15.2062 
  76   2.0000      -0.550538       -14.9809 
  77   2.0000      -0.543947       -14.8015 
  78   2.0000      -0.542432       -14.7603 
  79   2.0000      -0.532949       -14.5023 
  80   2.0000      -0.513380       -13.9698 
  81   2.0000      -0.511793       -13.9266 
  82   2.0000      -0.504661       -13.7325 
  83   2.0000      -0.497108       -13.5270 
  84   2.0000      -0.482553       -13.1309 
  85   2.0000      -0.476281       -12.9603 
  86   2.0000      -0.471796       -12.8382 
  87   2.0000      -0.470466       -12.8020 
  88   2.0000      -0.462379       -12.5820 
  89   2.0000      -0.454813       -12.3761 
  90   2.0000      -0.451515       -12.2863 
  91   2.0000      -0.445874       -12.1328 
  92   2.0000      -0.444952       -12.1078 
  93   2.0000      -0.443370       -12.0647 
  94   2.0000      -0.431772       -11.7491 
  95   2.0000      -0.431451       -11.7404 
  96   2.0000      -0.429066       -11.6755 
  97   2.0000      -0.425667       -11.5830 
  98   2.0000      -0.424844       -11.5606 
  99   2.0000      -0.422172       -11.4879 
 100   2.0000      -0.414688       -11.2842 
 101   2.0000      -0.413214       -11.2441 
 102   2.0000      -0.407178       -11.0799 
 103   2.0000      -0.404988       -11.0203 
 104   2.0000      -0.401290       -10.9196 
 105   2.0000      -0.399285       -10.8651 
 106   2.0000      -0.396709       -10.7950 
 107   2.0000      -0.391194       -10.6449 
 108   2.0000      -0.386215       -10.5094 
 109   2.0000      -0.383742       -10.4422 
 110   2.0000      -0.381584       -10.3834 
 111   2.0000      -0.379296       -10.3212 
 112   2.0000      -0.377356       -10.2684 
 113   2.0000      -0.376567       -10.2469 
 114   2.0000      -0.375039       -10.2053 
 115   2.0000      -0.372690       -10.1414 
[...]
  X          -0.6452456   -0.0278545   -0.7634673
  Y           0.5277765    0.7062850   -0.4718194
  Z           0.5523677   -0.7073794   -0.4410263

 --------------
 Nucleus  73H :
 --------------

Diamagnetic contribution to the shielding tensor (ppm) : 
           -72.931         12.433        10.954
           -60.339         49.394       -11.437
            38.554       -110.324      -156.553

Paramagnetic contribution to the shielding tensor (ppm): 
            98.871         -9.896       -11.218
            60.759        -17.057         8.160
           -38.474        107.495       180.579

Total shielding tensor (ppm): 
            25.940          2.537        -0.264
             0.420         32.338        -3.278
             0.079         -2.829        24.026


 Diagonalized sT*s matrix:
 
 sDSO          -174.379          -57.426           51.716  iso=     -60.030
 sPSO           197.355           83.150          -18.112  iso=      87.464
        ---------------  ---------------  ---------------
 Total           22.975           25.724           33.605  iso=      27.435

 Orientation: 
  X          -0.1377904   -0.9763774   -0.1664359
  Y           0.3271892    0.1137349   -0.9380893
  Z           0.9348588   -0.1837157    0.3037886

 --------------
 Nucleus  74H :
 --------------

Diamagnetic contribution to the shielding tensor (ppm) : 
            -0.831         61.734        -5.809
           -16.603         56.477        -2.199
            53.650       -179.374       -34.633

Paramagnetic contribution to the shielding tensor (ppm): 
            29.673        -61.077         1.969
            19.096        -30.601        -1.217
           -57.347        176.262        63.121

Total shielding tensor (ppm): 
            28.843          0.657        -3.839
             2.494         25.876        -3.417
            -3.697         -3.112        28.488


 Diagonalized sT*s matrix:
 
 sDSO           -53.718           44.741           29.990  iso=       7.004
 sPSO            77.179          -18.899            3.913  iso=      20.731
        ---------------  ---------------  ---------------
 Total           23.461           25.842           33.903  iso=      27.735

 Orientation: 
  X           0.2594322    0.7318804   -0.6301158
  Y           0.7144537   -0.5844464   -0.3846795
  Z           0.6498084    0.3503903    0.6745189

 --------------
 Nucleus  75H :
 --------------

Diamagnetic contribution to the shielding tensor (ppm) : 
           -64.102        -12.541       -11.544
           -54.020         14.455        16.400
           -90.025        232.476      -171.387

Paramagnetic contribution to the shielding tensor (ppm): 
            96.542         19.234        11.600
            61.005         17.365       -10.024
            90.076       -228.539       197.950

Total shielding tensor (ppm): 
            32.439          6.693         0.056
             6.986         31.820         6.376
             0.051          3.937        26.563


 Diagonalized sT*s matrix:
 
 sDSO          -193.456            4.938          -32.517  iso=     -73.678
 sPSO           215.306           24.027           72.524  iso=     103.952
        ---------------  ---------------  ---------------
 Total           21.850           28.965           40.007  iso=      30.274

 Orientation: 
  X           0.3986830   -0.6503008   -0.6466535
  Y          -0.6365748    0.3113487   -0.7055739
  Z           0.6601700    0.6929436   -0.2898357

 --------------
 Nucleus  76H :
 --------------

Diamagnetic contribution to the shielding tensor (ppm) : 
           -60.780         71.342        43.720
           -78.880         92.962        20.683
           -25.023        -92.665       -96.356

Paramagnetic contribution to the shielding tensor (ppm): 
           104.415        -77.116       -43.455
            72.046        -69.917       -22.575
            27.434         91.867       116.129

Total shielding tensor (ppm): 
            43.635         -5.774         0.264
            -6.833         23.045        -1.892
             2.410         -0.797        19.773


 Diagonalized sT*s matrix:
 
 sDSO           -87.641           69.760          -46.293  iso=     -21.391
 sPSO           106.884          -48.062           91.804  iso=      50.209
        ---------------  ---------------  ---------------
 Total           19.244           21.698           45.511  iso=      28.818

 Orientation: 
  X           0.0716488    0.2598414   -0.9629896
  Y           0.4336460    0.8613348    0.2646764
  Z           0.8982303   -0.4365603   -0.0509656

 --------------
 Nucleus  77H :
 --------------

Diamagnetic contribution to the shielding tensor (ppm) : 
           -14.539        143.075       -17.271
           -21.758        122.741        -9.364
            -2.333        -81.911        67.674

Paramagnetic contribution to the shielding tensor (ppm): 
            44.689       -137.273        17.053
            26.278        -85.866         4.801
             2.642         78.613       -43.190

Total shielding tensor (ppm): 
            30.150          5.801        -0.218
             4.520         36.875        -4.564
             0.309         -3.298        24.485


 Diagonalized sT*s matrix:
 
 sDSO            33.432          -17.611          160.055  iso=      58.625
 sPSO           -10.483           45.749         -119.633  iso=     -28.122
        ---------------  ---------------  ---------------
 Total           22.949           28.138           40.422  iso=      30.503

 Orientation: 
  X          -0.2572987   -0.8660628   -0.4286404
  Y           0.3560915    0.3273838   -0.8752250
  Z           0.8983297   -0.3778295    0.2241621

 --------------
 Nucleus  78H :
 --------------

Diamagnetic contribution to the shielding tensor (ppm) : 
           -21.606          9.750        20.973
           -47.250         55.752        10.202
             8.964       -101.016       -78.944

Paramagnetic contribution to the shielding tensor (ppm): 
            48.883         -4.853       -17.662
            51.745        -38.092        -9.353
            -4.359        105.434       114.003

Total shielding tensor (ppm): 
            27.276          4.897         3.310
             4.495         17.660         0.849
             4.606          4.418        35.058


 Diagonalized sT*s matrix:
 
 sDSO            64.911          -37.818          -71.892  iso=     -14.933
 sPSO           -49.199           64.458          109.534  iso=      41.598
        ---------------  ---------------  ---------------
 Total           15.712           26.639           37.643  iso=      26.665

 Orientation: 
  X           0.3644817    0.8222946    0.4370180
  Y          -0.9277628    0.2803131    0.2463345
  Z           0.0800576   -0.4952335    0.8650633

 --------------
 Nucleus  79H :
 --------------

Diamagnetic contribution to the shielding tensor (ppm) : 
           110.849       -158.714        -3.076
            41.668        -47.283        -8.156
            -0.591        -55.774        39.441

Paramagnetic contribution to the shielding tensor (ppm): 
           -83.804        162.259         2.780
           -39.655         76.512         6.319
             0.978         54.175       -12.204

Total shielding tensor (ppm): 
            27.044          3.545        -0.295
             2.013         29.229        -1.837
             0.387         -1.599        27.237


 Diagonalized sT*s matrix:
 
 sDSO            79.517           54.138          -30.648  iso=      34.336
 sPSO           -54.818          -26.913           62.234  iso=      -6.499
        ---------------  ---------------  ---------------
 Total           24.699           27.226           31.585  iso=      27.837

 Orientation: 
  X           0.7049749    0.5218743   -0.4802683
  Y          -0.5761288    0.0264633   -0.8169304
  Z          -0.4136255    0.8526118    0.3193227

 --------------
 Nucleus  80H :
 --------------

Diamagnetic contribution to the shielding tensor (ppm) : 
            17.761       -104.394        -2.838
           -17.747        -31.465       -11.258
            14.608        -91.189       -91.948

Paramagnetic contribution to the shielding tensor (ppm): 
            11.045        106.436         5.524
            19.012         53.573        11.490
           -15.676         90.458       122.187

Total shielding tensor (ppm): 
            28.806          2.042         2.686
             1.264         22.108         0.232
            -1.068         -0.731        30.240


 Diagonalized sT*s matrix:
 
 sDSO            -5.226          -24.179          -76.248  iso=     -35.217
 sPSO            26.927           53.001          106.878  iso=      62.269
        ---------------  ---------------  ---------------
 Total           21.702           28.822           30.630  iso=      27.051

 Orientation: 
  X          -0.2409983   -0.8740427    0.4218639
  Y           0.9692870   -0.2387157    0.0591394
  Z           0.0490152    0.4231597    0.9047284

 --------------
 Nucleus  81H :
 --------------

Diamagnetic contribution to the shielding tensor (ppm) : 
           -14.289       -217.611        -3.430
           -49.696        -97.244         3.850
           -19.604        -23.358      -138.793

Paramagnetic contribution to the shielding tensor (ppm): 
            47.871        216.144         1.432
            47.667        120.884        -4.905
            18.665         23.512       165.287

Total shielding tensor (ppm): 
            33.581         -1.467        -1.999
            -2.029         23.640        -1.055
            -0.939          0.154        26.493


 Diagonalized sT*s matrix:
 
 sDSO          -148.975         -123.733           22.381  iso=     -83.442
 sPSO           172.164          150.131           11.746  iso=     111.347
        ---------------  ---------------  ---------------
 Total           23.190           26.398           34.127  iso=      27.905

 Orientation: 
  X          -0.1879835    0.1468925   -0.9711255
  Y          -0.9611297   -0.2310846    0.1510947
  Z          -0.2022175    0.9617809    0.1846228



--------------------------------
CHEMICAL SHIELDING SUMMARY (ppm)
--------------------------------


  Nucleus  Element    Isotropic     Anisotropy
  -------  -------  ------------   ------------
      0       C           23.596        122.284 
      1       C           41.099         92.123 
      2       C           25.362        118.815 
      3       C           74.133        127.040 
      4       C           39.482        192.263 
      5       C           67.282        121.773 
      6       C          147.574         31.653 
      7       C          133.067         19.240 
      8       C          138.976         25.241 
      9       C          143.953         36.801 
     10       C           44.459        182.868 
     11       C           70.172        154.827 
     12       C           30.768        118.124 
     13       C           32.005        123.643 
     14       C           67.174        145.052 
     15       C           56.225        147.284 
     16       C          112.113         63.565 
     17       C          107.798         72.619 
     23       C           92.000         43.726 
     24       C           99.145         37.351 
     25       C           44.051        180.031 
     26       C          110.810         57.173 
     28       C           66.569        142.491 
     29       C           32.634        117.499 
     30       C           33.239        119.643 
     31       C           67.216        148.322 
     32       C           63.756        173.230 
     33       C          117.805         88.555 
     34       C          125.136         78.907 
     35       C          124.127         79.496 
     41       C          125.046         77.776 
     42       H           25.504         10.034 
     43       H           25.923          7.500 
     44       H           29.666          6.791 
     45       H           28.973          4.727 
     46       H           30.791          5.266 
     47       H           28.683          3.827 
     48       H           28.944          8.397 
     49       H           29.343          4.449 
     50       H           24.541          9.857 
     51       H           24.584          2.889 
     52       H           24.699          5.798 
     53       H           27.845          4.901 
     54       H           28.216          7.255 
     55       H           27.522          6.565 
     56       H           27.928          4.032 
     57       H           25.242         13.097 
     58       H           26.698          2.279 
     59       H           27.424          4.311 
     60       H           27.254          4.259 
     61       H           27.641          5.933 
     62       H           29.046         13.844 
     63       H           24.771          8.883 
     64       H           25.203          5.569 
     65       H           25.145          6.043 
     66       H           27.774          9.814 
     67       H           26.818          6.092 
     68       H           28.208          9.582 
     69       H           28.037          9.640 
     70       H           27.516          9.436 
     71       H           27.958          7.467 
     72       H           27.836          6.071 
     73       H           27.435          9.255 
     74       H           27.735          9.251 
     75       H           30.274         14.600 
     76       H           28.818         25.040 
     77       H           30.503         14.879 
     78       H           26.665         16.467 
     79       H           27.837          5.623 
     80       H           27.051          5.368 
     81       H           27.905          9.334 


NMR shielding tensor and spin rotation calculation done in   2.4 sec 

Maximum memory used throughout the entire PROP-calculation: 364.8 MB
[c01b01n07:537899] 53 more processes have sent help message help-mpi-btl-openib.txt / error in device init
[c01b01n07:537899] Set MCA parameter "orte_base_help_aggregate" to 0 to see all help / error messages
[c01b01n07:537899] 5 more processes have sent help message help-mpi-btl-openib.txt / no active ports found
--------------------------------------------------------------------------
WARNING: There is at least one non-excluded one OpenFabrics device found,
but there are no active ports detected (or Open MPI was unable to use
them).  This is most certainly not what you wanted.  Check your
cables, subnet manager configuration, etc.  The openib BTL will be
ignored for this job.

  Local host: c01b01n07
--------------------------------------------------------------------------
--------------------------------------------------------------------------
WARNING: There was an error initializing an OpenFabrics device.

  Local host:   c01b01n07
  Local device: mlx5_0
--------------------------------------------------------------------------
[c01b01n07:538346] 10 more processes have sent help message help-mpi-btl-openib.txt / no active ports found
[c01b01n07:538346] Set MCA parameter "orte_base_help_aggregate" to 0 to see all help / error messages
[c01b01n07:538346] 48 more processes have sent help message help-mpi-btl-openib.txt / error in device init

--------------------------------
SUGGESTED CITATIONS FOR THIS RUN
--------------------------------

Below you find a list of papers that are relevant to this ORCA run
We neither can nor want to force you to cite these papers, but we appreciate if you do
You receive ORCA, which is the product of decades of hard work by many enthusiastic individuals, for free
The only thing we kindly ask in return is that you cite our papers,
We deeply appreciate it, if you show your appreciation for ORCA by not just citing the generic ORCA reference.

Please note that relegating all ORCA citations to the supporting information does *not* help us.
SI sections are not indexed - citations you put there will not count into any citation statistics
But we need these citations in order to attract the funding resources that allow us to do what we are doing

Therefore, if you are a happy ORCA user, please consider citing a few of the papers listed below in the main body of your paper

In addition to the list printed below, the program has created the file nmr-conf-8.bibtex that contains the list in bibtex format
You can import this file easily into all common literature databanks and citation aid programs


List of essential papers. We consider these as the minimum necessary citations

  1. Neese, F.
     Software update: the ORCA program system, version 6.0
     WIRES Comput. Molec. Sci. 2025 15(1), e70019
     doi.org/10.1002/wcms.7019

List of papers to cite with high priority. The work reported in these papers was absolutely
necessary for this run to complete.
Our perspective: the developers of density functionals and basis sets usually get cited in chemistry papers
Good! But without the algorithms to do something with them, the functionals or basis sets would not do anything.
Hence, in our opinion, the algorithm design and method developments papers are equally worthy of getting cited

  1. Neese, F.
     An improvement of the resolution of the identity approximation for the formation of the Coulomb matrix
     J. Comp. Chem. 2003 24(14), 1740-1747
     doi.org/10.1002/jcc.10318
  2. Stoychev, G.L.; Auer, A.A.; Neese, F.
     Automatic Generation of Auxiliary Basis Sets
     J. Theo. Comp. Chem. 2017 13 , 554-562
     doi.org/10.1021/acs.jctc.6b01041
  3. Stoychev, G.L.; Auer, A.A.; Izsak, R.; Neese, F.
     Self-Consistent Field Calculation of Nuclear Magnetic Resonance Chemical Shielding Constants Using Gauge-Including Atomic Orbitals and Approximate Two-Electron Integrals
     J. Chem. Theory Comput. 2018 14(2), 619-637
     doi.org/10.1021/acs.jctc.7b01006
  4. Garcia-Rates, M.; Neese, F.
     Effect of the Solute Cavity on the Solvation Energy and its Derivatives within the Framework of the Gaussian Charge Scheme
     J. Comput. Chem. 2020 41 , 922-939
     doi.org/10.1002/jcc.26139
  5. Neese, F.
     The SHARK Integral Generation and Digestion System
     J. Comp. Chem. 2022 44(3), 381
     doi.org/10.1002/jcc.26942

List of suggested additional citations. These are papers that are important in the 'surrounding' of 
of this run, or papers that preceded the highly important papers. If you like your results we are grateful for a citation.

  1. Neese, F.
     The ORCA program system
     WIRES Comput. Molec. Sci. 2012 2(1), 73-78
     doi.org/10.1002/wcms.81
  2. Neese, F.
     Software update: the ORCA program system, version 4.0
     WIRES Comput. Molec. Sci. 2018 8(1), 1-6
     doi.org/10.1002/wcms.1327
  3. Neese, F.; Wennmohs, F.; Becker, U.; Riplinger, C.
     The ORCA quantum chemistry program package
     J. Chem. Phys. 2020 152(22), 224108
     doi.org/10.1063/5.0004608
  4. Neese, F.
     Software update: The ORCA program system—Version 5.0
     WIRES Comput. Molec. Sci. 2022 12(1), e1606
     doi.org/10.1002/wcms.1606

List of optional additional citations

  1. Neese, F.
     Approximate second-order SCF convergence for spin unrestricted wavefunctions
     Chem. Phys. Lett. 2000 325(1-3), 93-98
     doi.org/10.1016/s0009-2614(00)00662-x

Timings for individual modules:

Sum of individual times          ...      254.263 sec (=   4.238 min)
Startup calculation              ...       49.012 sec (=   0.817 min)  19.3 %
SCF iterations                   ...      100.743 sec (=   1.679 min)  39.6 %
Property integrals               ...       87.070 sec (=   1.451 min)  34.2 %
SCF Response                     ...       11.135 sec (=   0.186 min)   4.4 %
Property calculations            ...        6.303 sec (=   0.105 min)   2.5 %
                             ****ORCA TERMINATED NORMALLY****
TOTAL RUN TIME: 0 days 0 hours 4 minutes 25 seconds 712 msec
