
                                 *****************
                                 * O   R   C   A *
                                 *****************

                                            #,                                       
                                            ###                                      
                                            ####                                     
                                            #####                                    
                                            ######                                   
                                           ########,                                 
                                     ,,################,,,,,                         
                               ,,#################################,,                 
                          ,,##########################################,,             
                       ,#########################################, ''#####,          
                    ,#############################################,,   '####,        
                  ,##################################################,,,,####,       
                ,###########''''           ''''###############################       
              ,#####''   ,,,,##########,,,,          '''####'''          '####       
            ,##' ,,,,###########################,,,                        '##       
           ' ,,###''''                  '''############,,,                           
         ,,##''                                '''############,,,,        ,,,,,,###''
      ,#''                                            '''#######################'''  
     '                                                          ''''####''''         
             ,#######,   #######,   ,#######,      ##                                
            ,#'     '#,  ##    ##  ,#'     '#,    #''#        ,####,    ,#,          
            ##       ##  ##   ,#'  ##            #'  '#       #'       ,# #          
            ##       ##  #######   ##           ,######,      #####,      #          
            '#,     ,#'  ##    ##  '#,     ,#' ,#      #,     #,   #      #          
             '#######'   ##     ##  '#######'  #'      '#     '####' #    #          



                #########################################################
                #                        -***-                          #
                #          Department of theory and spectroscopy        #
                #                                                       #
                #                      Frank Neese                      #
                #                                                       #
                #     Directorship, Architecture, Infrastructure        #
                #                    SHARK, DRIVERS                     #
                #        Core code/Algorithms in most modules           #
                #                                                       #
                #        Max Planck Institute fuer Kohlenforschung      #
                #                Kaiser Wilhelm Platz 1                 #
                #                 D-45470 Muelheim/Ruhr                 #
                #                      Germany                          #
                #                                                       #
                #                  All rights reserved                  #
                #                        -***-                          #
                #########################################################


                         Program Version 6.1.0-f.0  -   RELEASE   -


 With contributions from (in alphabetic order):
[Max-Planck-Institut fuer Kohlenforschung]                               
  Daniel Aravena         : Magnetic Suceptibility                        
  Michael Atanasov       : Ab Initio Ligand Field Theory (pilot matlab implementation)
  Alexander A. Auer      : GIAO ZORA, VPT2 properties, NMR spectrum      
  Ute Becker             : All parallelization in ORCA, NUMFREQ, NUMCALC 
  Giovanni Bistoni       : ED, misc. LED, open-shell LED, HFLD           
  Dmytro Bykov           : pre 5.0 version of the SCF Hessian            
  Marcos Casanova-Páez   : Triplet and SCS-CIS(D). UHF-(DLPNO)-IP/EA/STEOM-CCSD. UHF-CVS-IP/STEOM-CCSD   
  Vijay G. Chilkuri      : MRCI spin determinant printing, contributions to CSF-ICE 
  Pauline Colinet        : FMM embedding                                 
  Dipayan Datta          : RHF DLPNO-CCSD density                        
  Achintya Kumar Dutta   : EOM-CC, STEOM-CC                              
  Nicolas Foglia         : Exact transition moments, OPA infrastructure, MCD improvements    
  Dmitry Ganyushin       : Spin-Orbit,Spin-Spin,Magnetic field MRCI      
  Miquel Garcia-Rates    : C-PCM and meta-GGA Hessian, CCSD/C-PCM, Gaussian charge scheme 
  Tiago L. C. Gouveia    : GS-ROHF, GS-ROCIS                             
  Yang Guo               : DLPNO-NEVPT2, F12-NEVPT2, CIM, IAO-localization        
  Andreas Hansen         : Spin unrestricted coupled pair/coupled cluster methods 
  Ingolf Harden          : AUTO-CI MPn and infrastructure                
  Benjamin Helmich-Paris : MC-RPA, TRAH-(SCF,CASSCF), AVAS, COSX integrals, SCF dyn. polar., MC-PDFT, srDFT 
  Lee Huntington         : MR-EOM, pCC                                   
  Robert Izsak           : Overlap fitted RIJCOSX, COSX-SCS-MP3, EOM     
  Riya Kayal             : Wick's Theorem for AUTO-CI, AUTO-CI UHF-CCSDT 
  Emily Kempfer          : AUTO-CI RHF CISDT and CCSDT, approximate NEVPT4
  Christian Kollmar      : KDIIS, OOCD, Brueckner-CCSD(T), CCSD density, CASPT2, CASPT2-K, improved NEVPT2 
  Axel Koslowski         : Symmetry handling                             
  Simone Kossmann        : meta-GGA functionals, TD-DFT gradient, OOMP2, (MP2 Hessian; deprecated post 5.0) 
  Lucas Lang             : DCDCAS, Hyperfine gauge corrections, ICE-SOC+SSC
  Marvin Lechner         : AUTO-CI (C++ implementation), FIC-MRCC        
  Spencer Leger          : CASSCF response                               
  Dagmar Lenk            : GEPOL surface, SMD, ORCA-2-JSON               
  Dimitrios Liakos       : Extrapolation schemes; Compound Job, Property file
  Dimitrios Manganas     : Further ROCIS development; embedding schemes. LFT, Crystal Embedding 
  Dimitrios Pantazis     : SARC Basis sets                               
  Anastasios Papadopoulos: AUTO-CI, single reference methods and gradients 
  Taras Petrenko         : pre 6.0 DFT Hessian and TD-DFT gradient,  ECA, NRVS 
  Petra Pikulova         : Analytic Raman intensities                    
  Peter Pinski           : DLPNO-MP2, DLPNO-MP2 Gradient                 
  Shashank Vittal Rao    : ES-AILFT, MagRelax                            
  Christoph Reimann      : Effective Core Potentials                     
  Marius Retegan         : Local ZFS, SOC                                
  Christoph Riplinger    : Optimizer, TS searches, QM/MM, DLPNO-CCSD(T), (RO)-DLPNO pert. Triples 
  Michael Roemelt        : Original ROCIS implementation, recursive CI coupling coefficients
  Masaaki Saitow         : Open-shell DLPNO-CCSD energy and density      
  Barbara Sandhoefer     : DKH picture change effects                    
  Yorick L. A. Schmerwitz: GMF and freeze-and-release deltaSCF, NEB S-IDPP initial path                    
  Kantharuban Sivalingam : CASSCF convergence/infrastructure, NEVPT2, NEVPT3, NEVPT4(SD), FIC-MRCI and CEPA variants
  Bernardo de Souza      : ESD, SOC TD-DFT                               
  Georgi L. Stoychev     : AutoAux, RI-MP2 NMR, DLPNO-MP2 response, X2C  
  Van Anh Tran           : RI-MP2 g-tensors                              
  Willem Van den Heuvel  : Paramagnetic NMR                              
  Zikuan Wang            : NOTCH, Electric field optimization            
  Frank Wennmohs         : Technical directorship and infrastructure     
  Hang Xu                : AUTO-CI-Response properties                   
                                                                         
[FACCTs GmbH]                                                            
  Markus Bursch, Nicolas Foglia, Miquel Garcia-Rates, Ingolf Harden, Hagen Neugebauer, Anastasios Papadopoulos, 
  Christoph Riplinger, Bernardo de Souza, Georgi L. Stoychev                                                    
                                                                 
  APM, various basis sets, CI-OPT, improved COSX, DLPNO-Multilevel,           
  DOCKER, DRACO, updates on ESD, Fragmentator, GOAT, IRC, LR-CPCM, L-BFGS, MBIS, meta-GGA TD-DFT gradient, ML-optimized integration grids, 
  MM, NACMEs, nearIR, NEB, NEB-TS, NL-DFT gradient (VV10), 2- and 3-layer-ONIOM, interface openCOSMO-RS, QMMM,   
  Crystal-QMMM, RESP, rigid body optimization, SF, symmetry and pop. for TD-DFT, various functionals, SOLVATOR                                   
                                                                         
[Other institutions]                                                     
  V. Asgeirsson          : NEB                                           
  Christoph Bannwarth    : sTDA-DFT, sTD-DFT, PBEh-3c, B97-3c, D3        
  Giovanni Bistoni       : ETS/NOCV, ADLD/ADEX, COVALED                  
  Martin Brehm           : Molecular dynamics                            
  Ronald Cardenas        : ETS/NOCV                                      
  Martina Colucci        : COVALED                                       
  Sebastian Ehlert       : rSCAN, r2SCAN, r2SCAN-3c, D4, dhf basis sets  
  Marvin Friede          : D4 for Fr, Ra, Ac-Lr                          
  Lars Goerigk           : TD-DFT with DH, B97 family of functionals     
  Stefan Grimme          : VdW corrections, initial TS optimization, DFT functionals, gCP, sTDA/sTD-DF 
  Waldemar Hujo          : DFT-NL                                        
  H. Jonsson             : NEB                                           
  Holger Kruse           : gCP                                           
  Marcel Mueller         : wB97X-3c, vDZP basis set                      
  Hagen Neugebauer       : wr2SCAN, Native XTB                           
  Gianluca Regni         : ADLD/ADEX                                     
  Tobias Risthaus        : pre 6.0 range-separated hybrid DFT and stability analysis
  Lukas Wittmann         : regularized MP2, r2SCAN double-hybrids, wr2SCAN        
                                                                         
We gratefully acknowledge several colleagues who have allowed us to      
interface, adapt or use parts of their codes:                            
  Ed Valeev, F. Pavosevic, A. Kumar             : LibInt (2-el integral package), F12 methods 
  Garnet Chan, S. Sharma, J. Yang, R. Olivares  : DMRG                   
  Ulf Ekstrom                                   : XCFun DFT Library      
  Mihaly Kallay                                 : mrcc  (arbitrary order and MRCC methods)
  Frank Weinhold                                : gennbo (NPA and NBO analysis)           
  Simon Mueller                                 : openCOSMO-RS                            
  Christopher J. Cramer and Donald G. Truhlar   : smd solvation model                     
  S Lehtola, MJT Oliveira, MAL Marques          : LibXC Library                           
  Liviu Ungur et al                             : ANISO software                          


 Your calculation uses the libint2 library for the computation of 2-el integrals
 For citations please refer to: http://libint.valeyev.net

 Your ORCA version has been built with support for libXC version: 7.0.0
 For citations please refer to: https://libxc.gitlab.io

 This ORCA versions uses:
   CBLAS   interface :  Fast vector & matrix operations
   LAPACKE interface :  Fast linear algebra routines
   SCALAPACK package :  Parallel linear algebra routines
   Shared memory     :  Shared parallel matrices
   BLAS/LAPACK       :  OpenBLAS 0.3.29  USE64BITINT DYNAMIC_ARCH NO_AFFINITY Cooperlake SINGLE_THREADED
        Core in use  :  Cooperlake
   Copyright (c) 2011-2014, The OpenBLAS Project


  ***********************************
  * Starting time: Wed Mar  4 13:49:25 2026
  * Host name:     c03b01n05
  * Process ID:    635447
  * Working dir.:  /lustre1/jiangy/jiangy_liuxy/NMR/B9D7C2-RSSR-NMR/opt_conf
  ***********************************

NOTE: MaxCore=5000 MB was set to SCF,MP2,MDCI,CIPSI,MRCI,RASCI and CIS
      => If you want to overwrite this, your respective input block should be placed after the MaxCore statement


***************************************
The coordinates will be read from file: opt-conf-12.xyz
***************************************



Warning: The global flag for NMR shieldings has been found
         but shieldings for certain elements have also been explicitly requested in the EPRNMR block
         ==>> only the requested shieldings will be calculated

================================================================================

----- Orbital basis set information -----
Your calculation utilizes the basis: pcSseg-2
   F. Jensen, J. Chem. Theory Comput. 11, 132 (2015).

----- AuxJ basis set information -----
Your calculation utilizes the AutoAux generation procedure.
  G. L. Stoychev, A. A. Auer, F. Neese, J. Chem. Theory Comput. 13, 554 (2017)

----- AuxC basis set information -----
Your calculation utilizes the AutoAux generation procedure.
  G. L. Stoychev, A. A. Auer, F. Neese, J. Chem. Theory Comput. 13, 554 (2017)

----- AuxJK basis set information -----
Your calculation utilizes the AutoAux generation procedure.
  G. L. Stoychev, A. A. Auer, F. Neese, J. Chem. Theory Comput. 13, 554 (2017)

----- AuxX basis set information -----
Your calculation utilizes the AutoAux generation procedure.
  G. L. Stoychev, A. A. Auer, F. Neese, J. Chem. Theory Comput. 13, 554 (2017)

================================================================================
                                        WARNINGS
                       Please study these warnings very carefully!
================================================================================


================================================================================
                                       INPUT FILE
================================================================================
NAME = nmr-conf-12.inp
|  1> !TPSS PCSSEG-2 AUTOAUX NMR CPCM(Methanol)
|  2> 
|  3> %pal nprocs 60 end
|  4> %maxcore 5000
|  5> 
|  6> *XYZFILE 0 1 opt-conf-12.xyz
|  7> 
|  8> %EPRNMR
|  9>    NUCLEI = ALL C {SHIFT}
| 10>    NUCLEI = ALL H {SHIFT}
| 11>    TAU DOBSON
| 12> END
| 13> 
| 14> 
| 15>                          ****END OF INPUT****
================================================================================

                       ****************************
                       * Single Point Calculation *
                       ****************************

---------------------------------
CARTESIAN COORDINATES (ANGSTROEM)
---------------------------------
  C     21.453667  -32.016641   -1.718036
  C     20.989855  -32.201821   -3.025912
  C     19.613172  -32.277483   -3.257123
  C     18.718623  -32.249091   -2.186991
  C     19.187388  -32.112481   -0.884918
  C     20.554747  -31.980052   -0.656284
  C     18.243432  -32.130876    0.290757
  C     18.314765  -33.449369    1.092301
  C     17.792515  -33.321884    2.536861
  C     18.773968  -32.566814    3.450708
  C     20.154007  -33.170052    3.534586
  C     20.323360  -34.507967    3.914882
  C     21.590182  -35.061589    4.008995
  C     22.724275  -34.277574    3.742934
  C     22.564554  -32.961954    3.353837
  C     21.285052  -32.416127    3.246096
  C     17.629441  -34.581217    0.326000
  C     16.400494  -32.694542    2.614467
  O     19.234791  -32.384629   -4.561029
  O     22.797720  -31.883048   -1.577668
  O     21.900834  -32.215365   -4.053177
  O     23.975055  -34.811868    3.866091
  O     21.868617  -36.354026    4.352853
  C     21.993538  -33.383523   -4.893377
  C     22.834614  -34.476453   -4.221051
  C     22.247385  -34.999537   -2.933398
  C     22.596494  -32.884128   -6.195798
  O     23.891669  -32.312131   -6.022989
  C     23.035078  -35.016804   -1.782453
  C     22.518469  -35.478797   -0.580740
  C     21.197501  -35.937618   -0.528495
  C     20.421222  -35.953952   -1.674799
  C     20.944703  -35.484927   -2.872738
  C     23.313682  -31.717175   -0.260221
  C     17.845460  -32.507380   -4.855380
  C     20.775992  -37.238789    4.596056
  O     22.945106  -35.523127   -5.203270
  O     17.839781  -35.864736    0.916229
  O     15.806903  -32.826912    3.911667
  O     23.187694  -35.527337    0.606351
  O     20.670820  -36.380716    0.655214
  C     24.597182  -35.295668    0.594858
  H     17.656329  -32.332658   -2.361990
  H     20.911780  -31.863429    0.356061
  H     17.220209  -31.961224   -0.054010
  H     18.493669  -31.300556    0.954331
  H     19.371270  -33.722486    1.165824
  H     17.695752  -34.343917    2.918240
  H     18.332778  -32.525359    4.450484
  H     18.863686  -31.531014    3.113130
  H     19.456133  -35.113502    4.136572
  H     23.443268  -32.368219    3.135036
  H     21.175243  -31.383909    2.936626
  H     16.547799  -34.433695    0.299423
  H     17.983137  -34.579702   -0.709404
  H     16.450702  -31.620518    2.426608
  H     15.740367  -33.133596    1.860109
  H     23.886166  -35.740611    4.127866
  H     20.998740  -33.773091   -5.108630
  H     23.825749  -34.063862   -4.011653
  H     21.908415  -32.153074   -6.633111
  H     22.709226  -33.714455   -6.889647
  H     23.805291  -31.575959   -5.403193
  H     24.047598  -34.642517   -1.829532
  H     19.407549  -36.328730   -1.619287
  H     20.321841  -35.490832   -3.757359
  H     23.051675  -32.563022    0.377945
  H     24.394207  -31.661392   -0.368127
  H     22.942025  -30.795913    0.195580
  H     17.423176  -33.405332   -4.398003
  H     17.291234  -31.629873   -4.513959
  H     17.777846  -32.583076   -5.937950
  H     20.138971  -37.319396    3.712237
  H     21.218102  -38.205973    4.820959
  H     20.180631  -36.898310    5.446381
  H     23.353924  -36.285852   -4.775093
  H     18.793665  -36.048754    0.907255
  H     15.716650  -33.769315    4.102348
  H     21.337714  -36.282950    1.352274
  H     24.928856  -35.445986    1.617134
  H     25.094758  -36.000125   -0.075713
  H     24.824516  -34.274342    0.285089

----------------------------
CARTESIAN COORDINATES (A.U.)
----------------------------
  NO LB      ZA    FRAG     MASS         X           Y           Z
   0 C     6.0000    0    12.011   40.541555  -60.502683   -3.246618
   1 C     6.0000    0    12.011   39.665077  -60.852623   -5.718145
   2 C     6.0000    0    12.011   37.063523  -60.995603   -6.155071
   3 C     6.0000    0    12.011   35.373071  -60.941949   -4.132813
   4 C     6.0000    0    12.011   36.258908  -60.683795   -1.672252
   5 C     6.0000    0    12.011   38.842843  -60.433540   -1.240197
   6 C     6.0000    0    12.011   34.475090  -60.718557    0.549450
   7 C     6.0000    0    12.011   34.609889  -63.210147    2.064149
   8 C     6.0000    0    12.011   33.622981  -62.969235    4.793972
   9 C     6.0000    0    12.011   35.477658  -61.542359    6.520893
  10 C     6.0000    0    12.011   38.085554  -62.682315    6.679399
  11 C     6.0000    0    12.011   38.405584  -65.210607    7.398054
  12 C     6.0000    0    12.011   40.799531  -66.256801    7.575903
  13 C     6.0000    0    12.011   42.942657  -64.775228    7.073120
  14 C     6.0000    0    12.011   42.640827  -62.289065    6.337832
  15 C     6.0000    0    12.011   40.222918  -61.257602    6.134232
  16 C     6.0000    0    12.011   33.314815  -65.349029    0.616051
  17 C     6.0000    0    12.011   30.992442  -61.783731    4.940627
  18 O     8.0000    0    15.999   36.348487  -61.198081   -8.619095
  19 O     8.0000    0    15.999   43.081447  -60.250229   -2.981361
  20 O     8.0000    0    15.999   41.386578  -60.878218   -7.659395
  21 O     8.0000    0    15.999   45.306287  -65.784897    7.305853
  22 O     8.0000    0    15.999   41.325698  -68.699154    8.225701
  23 C     6.0000    0    12.011   41.561764  -63.085715   -9.247143
  24 C     6.0000    0    12.011   43.151167  -65.151054   -7.976630
  25 C     6.0000    0    12.011   42.041464  -66.139539   -5.543318
  26 C     6.0000    0    12.011   42.701186  -62.141995  -11.708362
  27 O     8.0000    0    15.999   45.148711  -61.061079  -11.381799
  28 C     6.0000    0    12.011   43.529988  -66.172170   -3.368348
  29 C     6.0000    0    12.011   42.553740  -67.045209   -1.097439
  30 C     6.0000    0    12.011   40.057472  -67.912256   -0.998711
  31 C     6.0000    0    12.011   38.590517  -67.943122   -3.164912
  32 C     6.0000    0    12.011   39.579752  -67.056795   -5.428689
  33 C     6.0000    0    12.011   44.056474  -59.936774   -0.491746
  34 C     6.0000    0    12.011   33.723032  -61.430045   -9.175339
  35 C     6.0000    0    12.011   39.260935  -70.371114    8.685287
  36 O     8.0000    0    15.999   43.359966  -67.128982   -9.832756
  37 O     8.0000    0    15.999   33.712300  -67.774530    1.731422
  38 O     8.0000    0    15.999   29.870717  -62.033873    7.391979
  39 O     8.0000    0    15.999   43.818391  -67.136938    1.145837
  40 O     8.0000    0    15.999   39.062188  -68.749590    1.238175
  41 C     6.0000    0    12.011   46.481938  -66.699146    1.124120
  42 H     1.0000    0     1.008   33.365626  -61.099869   -4.463514
  43 H     1.0000    0     1.008   39.517538  -60.213155    0.672858
  44 H     1.0000    0     1.008   32.541479  -60.397961   -0.102064
  45 H     1.0000    0     1.008   34.947969  -59.149479    1.803423
  46 H     1.0000    0     1.008   36.606396  -63.726263    2.203088
  47 H     1.0000    0     1.008   33.440125  -64.900598    5.514675
  48 H     1.0000    0     1.008   34.643930  -61.464020    8.410195
  49 H     1.0000    0     1.008   35.647201  -59.584981    5.882962
  50 H     1.0000    0     1.008   36.766763  -66.354903    7.816988
  51 H     1.0000    0     1.008   44.301356  -61.167069    5.924359
  52 H     1.0000    0     1.008   40.015411  -59.306993    5.549419
  53 H     1.0000    0     1.008   31.270809  -65.070254    0.565827
  54 H     1.0000    0     1.008   33.983203  -65.346166   -1.340580
  55 H     1.0000    0     1.008   31.087321  -59.754120    4.585625
  56 H     1.0000    0     1.008   29.744982  -62.613422    3.515097
  57 H     1.0000    0     1.008   45.138313  -67.539966    7.800536
  58 H     1.0000    0     1.008   39.681868  -63.821893   -9.653912
  59 H     1.0000    0     1.008   45.024140  -64.371369   -7.580926
  60 H     1.0000    0     1.008   41.400905  -60.760504  -12.534762
  61 H     1.0000    0     1.008   42.914217  -63.711086  -13.019546
  62 H     1.0000    0     1.008   44.985480  -59.669915  -10.210555
  63 H     1.0000    0     1.008   45.443375  -65.464870   -3.457314
  64 H     1.0000    0     1.008   36.674952  -68.651351   -3.060009
  65 H     1.0000    0     1.008   38.402714  -67.067953   -7.100380
  66 H     1.0000    0     1.008   43.561352  -61.535193    0.714213
  67 H     1.0000    0     1.008   46.098370  -59.831360   -0.695660
  68 H     1.0000    0     1.008   43.354145  -58.195842    0.369592
  69 H     1.0000    0     1.008   32.925030  -63.126929   -8.311021
  70 H     1.0000    0     1.008   32.675697  -59.771798   -8.530146
  71 H     1.0000    0     1.008   33.595261  -61.573090  -11.221100
  72 H     1.0000    0     1.008   38.057140  -70.523438    7.015111
  73 H     1.0000    0     1.008   40.096402  -72.198826    9.110293
  74 H     1.0000    0     1.008   38.135866  -69.727700   10.292169
  75 H     1.0000    0     1.008   44.132520  -68.570322   -9.023619
  76 H     1.0000    0     1.008   35.514880  -68.122273    1.714463
  77 H     1.0000    0     1.008   29.700165  -63.814758    7.752314
  78 H     1.0000    0     1.008   40.322435  -68.564839    2.555428
  79 H     1.0000    0     1.008   47.108711  -66.983206    3.055941
  80 H     1.0000    0     1.008   47.422219  -68.030377   -0.143077
  81 H     1.0000    0     1.008   46.911537  -64.769119    0.538741

--------------------------------
INTERNAL COORDINATES (ANGSTROEM)
--------------------------------
 C      0   0   0     0.000000000000     0.00000000     0.00000000
 C      1   0   0     1.399983182246     0.00000000     0.00000000
 C      2   1   0     1.398012539176   119.20311066     0.00000000
 C      3   2   1     1.395065560395   120.23011749   356.18635849
 C      4   3   2     1.390609978585   120.27114903     1.57463568
 C      1   2   3     1.391658232955   120.14736298     3.37393535
 C      5   4   3     1.507846719781   121.18703134   182.30365353
 C      7   5   4     1.544663239800   112.71209465   106.01013912
 C      8   7   5     1.541347311993   113.58322384   158.64683195
 C      9   8   7     1.538992485099   112.39629846   286.00593501
 C     10   9   8     1.508456153974   114.85025707   302.52338390
 C     11  10   9     1.401185650021   120.49831463   304.55879676
 C     12  11  10     1.385710045177   120.69108655   180.78997429
 C     13  12  11     1.404149628716   120.16113819     0.99464273
 C     14  13  12     1.381218667727   119.46013986   358.33908939
 C     11  10   9     1.389565270022   121.07401954   124.93746675
 C      8   7   5     1.529040242596   110.55400451   285.90469295
 C      9   8   7     1.528824255919   112.95583944    51.78857174
 O      3   2   1     1.361918327869   115.86098512   176.53711538
 O      1   2   3     1.357950386467   115.94367811   183.29475396
 O      2   1   3     1.373077207530   118.71338617   175.76975368
 O     14  13  12     1.365681600118   120.27738040   178.42657523
 O     13  12  11     1.366074765433   125.55023309   180.86224827
 C     21   2   1     1.441915719055   119.11672552   121.15933073
 C     24  21   2     1.534251690843   110.91661587   279.22544162
 C     25  24  21     1.508809045961   114.05315343    63.02217823
 C     24  21   2     1.519622260472   104.99196153   156.74742853
 O     27  24  21     1.426365901731   112.84473140    60.56092344
 C     26  25  24     1.394787446042   119.25642326   232.87747725
 C     29  26  25     1.387240467248   120.57273156   179.32000849
 C     30  29  26     1.399357831718   119.54284538     0.35759024
 C     31  30  29     1.384517953236   120.14790168     1.24860891
 C     32  31  30     1.388911235713   119.92048999   358.50451174
 C     20   1   2     1.424569700002   117.74457759   181.12261988
 C     19   3   2     1.425464832522   118.37632806   178.08070660
 C     23  13  12     1.426808860550   118.26140483     2.26867881
 O     25  24  21     1.439614973368   105.13002399   184.97147835
 O     17   8   7     1.428298406253   113.08486869   170.94603113
 O     18   9   8     1.432689382777   112.66199421   167.96651071
 O     30  29  26     1.363598981638   125.67729122   180.80152565
 O     31  30  29     1.369268443386   120.09765216   180.80401467
 C     40  30  29     1.428446883335   118.13088942   349.09364247
 H      4   3   2     1.079850194075   120.32542649   181.55693347
 H      6   1   2     1.079776052137   120.30172356   178.38491040
 H      7   5   4     1.092991446094   109.76904080   343.23019377
 H      7   5   4     1.091961965510   108.72819759   226.79306714
 H      8   7   5     1.093710333447   107.01635819    41.33999627
 H      9   8   7     1.095154935241   106.20795333   168.22709726
 H     10   9   8     1.093580788819   107.70875436   180.27470830
 H     10   9   8     1.093110184573   109.50367023    65.16277919
 H     12  11  10     1.080695199350   119.58441389     0.80849239
 H     15  14  13     1.082835821181   119.03580838   180.97146253
 H     16  11  10     1.083191137211   119.59266674   358.76588658
 H     17   8   7     1.091978580637   110.86440452   289.96397978
 H     17   8   7     1.094150382908   109.16831406    47.93157227
 H     18   9   8     1.091484952971   110.68058618   285.70889304
 H     18   9   8     1.094345211131   110.46392057    44.88942805
 H     22  14  13     0.969015045693   108.38003182     1.03539266
 H     24  21   2     1.089826309312   110.24258222    40.56570144
 H     25  24  21     1.093812846576   108.17531932   301.99559410
 H     27  24  21     1.095050086130   108.20083316   297.89703725
 H     27  24  21     1.087923654398   109.68885444   179.51442414
 H     28  27  24     0.966207198412   107.58275427   300.97584299
 H     29  26  25     1.080511526987   119.27238253     0.84953206
 H     32  31  30     1.082161438967   119.13146401   178.91013781
 H     33  32  31     1.081917781239   119.10374730   180.85500127
 H     34  20   1     1.091494680952   111.31733853    59.16305367
 H     34  20   1     1.087331545225   105.90939693   178.28242084
 H     34  20   1     1.092980134900   111.14026928   297.28630360
 H     35  19   3     1.092628345308   111.16273164   299.20196186
 H     35  19   3     1.092590246543   111.14395189    61.39647591
 H     35  19   3     1.087317343272   105.79501154   180.29287855
 H     36  23  13     1.092441671758   110.75630189    59.30060534
 H     36  23  13     1.086962533680   105.99547309   178.35773591
 H     36  23  13     1.092444016845   110.90050659   297.42096786
 H     37  25  24     0.965513139468   107.71450373   188.36955080
 H     38  17   8     0.971513384253   108.11893982   298.49892117
 H     39  18   9     0.965727317066   107.91806047   298.86389961
 H     41  31  30     0.969638505181   108.92243651     1.61965792
 H     42  40  30     1.085196139780   105.75559528   183.68363591
 H     42  40  30     1.092477624746   110.47323147   303.23353826
 H     42  40  30     1.091212713334   111.07847181    64.99892847

---------------------------
INTERNAL COORDINATES (A.U.)
---------------------------
 C      0   0   0     0.000000000000     0.00000000     0.00000000
 C      1   0   0     2.645584806541     0.00000000     0.00000000
 C      2   1   0     2.641860830830   119.20311066     0.00000000
 C      3   2   1     2.636291848011   120.23011749   356.18635849
 C      4   3   2     2.627872018624   120.27114903     1.57463568
 C      1   2   3     2.629852932301   120.14736298     3.37393535
 C      5   4   3     2.849417352318   121.18703134   182.30365353
 C      7   5   4     2.918990492358   112.71209465   106.01013912
 C      8   7   5     2.912724296922   113.58322384   158.64683195
 C      9   8   7     2.908274319000   112.39629846   286.00593501
 C     10   9   8     2.850569016039   114.85025707   302.52338390
 C     11  10   9     2.647857141320   120.49831463   304.55879676
 C     12  11  10     2.618612486409   120.69108655   180.78997429
 C     13  12  11     2.653458249321   120.16113819     0.99464273
 C     14  13  12     2.610125013064   119.46013986   358.33908939
 C     11  10   9     2.625897805550   121.07401954   124.93746675
 C      8   7   5     2.889467306251   110.55400451   285.90469295
 C      9   8   7     2.889059150583   112.95583944    51.78857174
 O      3   2   1     2.573652656441   115.86098512   176.53711538
 O      1   2   3     2.566154333875   115.94367811   183.29475396
 O      2   1   3     2.594739882960   118.71338617   175.76975368
 O     14  13  12     2.580764210359   120.27738040   178.42657523
 O     13  12  11     2.581507185129   125.55023309   180.86224827
 C     21   2   1     2.724825817211   119.11672552   121.15933073
 C     24  21   2     2.899315516199   110.91661587   279.22544162
 C     25  24  21     2.851235885250   114.05315343    63.02217823
 C     24  21   2     2.871669899302   104.99196153   156.74742853
 O     27  24  21     2.695440921036   112.84473140    60.56092344
 C     26  25  24     2.635766288051   119.25642326   232.87747725
 C     29  26  25     2.621504564992   120.57273156   179.32000849
 C     30  29  26     2.644403065306   119.54284538     0.35759024
 C     31  30  29     2.616359759114   120.14790168     1.24860891
 C     32  31  30     2.624661859824   119.92048999   358.50451174
 C     20   1   2     2.692046591685   117.74457759   181.12261988
 C     19   3   2     2.693738147002   118.37632806   178.08070660
 C     23  13  12     2.696277991891   118.26140483     2.26867881
 O     25  24  21     2.720478037959   105.13002399   184.97147835
 O     17   8   7     2.699092825333   113.08486869   170.94603113
 O     18   9   8     2.707390568425   112.66199421   167.96651071
 O     30  29  26     2.576828631790   125.67729122   180.80152565
 O     31  30  29     2.587542361820   120.09765216   180.80401467
 C     40  30  29     2.699373406357   118.13088942   349.09364247
 H      4   3   2     2.040621132463   120.32542649   181.55693347
 H      6   1   2     2.040481024506   120.30172356   178.38491040
 H      7   5   4     2.065454499836   109.76904080   343.23019377
 H      7   5   4     2.063509063473   108.72819759   226.79306714
 H      8   7   5     2.066813000054   107.01635819    41.33999627
 H      9   8   7     2.069542901819   106.20795333   168.22709726
 H     10   9   8     2.066568196186   107.70875436   180.27470830
 H     10   9   8     2.065678883044   109.50367023    65.16277919
 H     12  11  10     2.042217961016   119.58441389     0.80849239
 H     15  14  13     2.046263150031   119.03580838   180.97146253
 H     16  11  10     2.046934600019   119.59266674   358.76588658
 H     17   8   7     2.063540461511   110.86440452   289.96397978
 H     17   8   7     2.067644573021   109.16831406    47.93157227
 H     18   9   8     2.062607640412   110.68058618   285.70889304
 H     18   9   8     2.068012745005   110.46392057    44.88942805
 H     22  14  13     1.831173056009   108.38003182     1.03539266
 H     24  21   2     2.059473258141   110.24258222    40.56570144
 H     25  24  21     2.067006721793   108.17531932   301.99559410
 H     27  24  21     2.069344765713   108.20083316   297.89703725
 H     27  24  21     2.055877761427   109.68885444   179.51442414
 H     28  27  24     1.825866993622   107.58275427   300.97584299
 H     29  26  25     2.041870870550   119.27238253     0.84953206
 H     32  31  30     2.044988752337   119.13146401   178.91013781
 H     33  32  31     2.044528305961   119.10374730   180.85500127
 H     34  20   1     2.062626023630   111.31733853    59.16305367
 H     34  20   1     2.054758837248   105.90939693   178.28242084
 H     34  20   1     2.065433124778   111.14026928   297.28630360
 H     35  19   3     2.064768338791   111.16273164   299.20196186
 H     35  19   3     2.064696342560   111.14395189    61.39647591
 H     35  19   3     2.054731999447   105.79501154   180.29287855
 H     36  23  13     2.064415576905   110.75630189    59.30060534
 H     36  23  13     2.054061506488   105.99547309   178.35773591
 H     36  23  13     2.064420008478   110.90050659   297.42096786
 H     37  25  24     1.824555412297   107.71450373   188.36955080
 H     38  17   8     1.835894231677   108.11893982   298.49892117
 H     39  18   9     1.824960149302   107.91806047   298.86389961
 H     41  31  30     1.832351223697   108.92243651     1.61965792
 H     42  40  30     2.050723505772   105.75559528   183.68363591
 H     42  40  30     2.064483518207   110.47323147   303.23353826
 H     42  40  30     2.062093182054   111.07847181    64.99892847

---------------------
BASIS SET INFORMATION
---------------------
There are 3 groups of distinct atoms

 Group   1 Type C   : 11s7p2d1f contracted to 4s5p2d1f pattern {7211/31111/11/1}
 Group   2 Type O   : 11s7p2d1f contracted to 4s5p2d1f pattern {7211/31111/11/1}
 Group   3 Type H   : 6s3p1d contracted to 3s2p1d pattern {411/21/1}

Atom   0C    basis set group =>   1
Atom   1C    basis set group =>   1
Atom   2C    basis set group =>   1
Atom   3C    basis set group =>   1
Atom   4C    basis set group =>   1
Atom   5C    basis set group =>   1
Atom   6C    basis set group =>   1
Atom   7C    basis set group =>   1
Atom   8C    basis set group =>   1
Atom   9C    basis set group =>   1
Atom  10C    basis set group =>   1
Atom  11C    basis set group =>   1
Atom  12C    basis set group =>   1
Atom  13C    basis set group =>   1
Atom  14C    basis set group =>   1
Atom  15C    basis set group =>   1
Atom  16C    basis set group =>   1
Atom  17C    basis set group =>   1
Atom  18O    basis set group =>   2
Atom  19O    basis set group =>   2
Atom  20O    basis set group =>   2
Atom  21O    basis set group =>   2
Atom  22O    basis set group =>   2
Atom  23C    basis set group =>   1
Atom  24C    basis set group =>   1
Atom  25C    basis set group =>   1
Atom  26C    basis set group =>   1
Atom  27O    basis set group =>   2
Atom  28C    basis set group =>   1
Atom  29C    basis set group =>   1
Atom  30C    basis set group =>   1
Atom  31C    basis set group =>   1
Atom  32C    basis set group =>   1
Atom  33C    basis set group =>   1
Atom  34C    basis set group =>   1
Atom  35C    basis set group =>   1
Atom  36O    basis set group =>   2
Atom  37O    basis set group =>   2
Atom  38O    basis set group =>   2
Atom  39O    basis set group =>   2
Atom  40O    basis set group =>   2
Atom  41C    basis set group =>   1
Atom  42H    basis set group =>   3
Atom  43H    basis set group =>   3
Atom  44H    basis set group =>   3
Atom  45H    basis set group =>   3
Atom  46H    basis set group =>   3
Atom  47H    basis set group =>   3
Atom  48H    basis set group =>   3
Atom  49H    basis set group =>   3
Atom  50H    basis set group =>   3
Atom  51H    basis set group =>   3
Atom  52H    basis set group =>   3
Atom  53H    basis set group =>   3
Atom  54H    basis set group =>   3
Atom  55H    basis set group =>   3
Atom  56H    basis set group =>   3
Atom  57H    basis set group =>   3
Atom  58H    basis set group =>   3
Atom  59H    basis set group =>   3
Atom  60H    basis set group =>   3
Atom  61H    basis set group =>   3
Atom  62H    basis set group =>   3
Atom  63H    basis set group =>   3
Atom  64H    basis set group =>   3
Atom  65H    basis set group =>   3
Atom  66H    basis set group =>   3
Atom  67H    basis set group =>   3
Atom  68H    basis set group =>   3
Atom  69H    basis set group =>   3
Atom  70H    basis set group =>   3
Atom  71H    basis set group =>   3
Atom  72H    basis set group =>   3
Atom  73H    basis set group =>   3
Atom  74H    basis set group =>   3
Atom  75H    basis set group =>   3
Atom  76H    basis set group =>   3
Atom  77H    basis set group =>   3
Atom  78H    basis set group =>   3
Atom  79H    basis set group =>   3
Atom  80H    basis set group =>   3
Atom  81H    basis set group =>   3
---------------------------------
AUXILIARY/J BASIS SET INFORMATION
---------------------------------
There are 3 groups of distinct atoms

 Group   1 Type C   : 15s13p12d5f5g contracted to 15s13p12d5f5g pattern {111111111111111/1111111111111/111111111111/11111/11111}
 Group   2 Type O   : 15s13p12d5f5g contracted to 15s13p12d5f5g pattern {111111111111111/1111111111111/111111111111/11111/11111}
 Group   3 Type H   : 12s4p3d2f contracted to 12s4p3d2f pattern {111111111111/1111/111/11}

Atom   0C    basis set group =>   1
Atom   1C    basis set group =>   1
Atom   2C    basis set group =>   1
Atom   3C    basis set group =>   1
Atom   4C    basis set group =>   1
Atom   5C    basis set group =>   1
Atom   6C    basis set group =>   1
Atom   7C    basis set group =>   1
Atom   8C    basis set group =>   1
Atom   9C    basis set group =>   1
Atom  10C    basis set group =>   1
Atom  11C    basis set group =>   1
Atom  12C    basis set group =>   1
Atom  13C    basis set group =>   1
Atom  14C    basis set group =>   1
Atom  15C    basis set group =>   1
Atom  16C    basis set group =>   1
Atom  17C    basis set group =>   1
Atom  18O    basis set group =>   2
Atom  19O    basis set group =>   2
Atom  20O    basis set group =>   2
Atom  21O    basis set group =>   2
Atom  22O    basis set group =>   2
Atom  23C    basis set group =>   1
Atom  24C    basis set group =>   1
Atom  25C    basis set group =>   1
Atom  26C    basis set group =>   1
Atom  27O    basis set group =>   2
Atom  28C    basis set group =>   1
Atom  29C    basis set group =>   1
Atom  30C    basis set group =>   1
Atom  31C    basis set group =>   1
Atom  32C    basis set group =>   1
Atom  33C    basis set group =>   1
Atom  34C    basis set group =>   1
Atom  35C    basis set group =>   1
Atom  36O    basis set group =>   2
Atom  37O    basis set group =>   2
Atom  38O    basis set group =>   2
Atom  39O    basis set group =>   2
Atom  40O    basis set group =>   2
Atom  41C    basis set group =>   1
Atom  42H    basis set group =>   3
Atom  43H    basis set group =>   3
Atom  44H    basis set group =>   3
Atom  45H    basis set group =>   3
Atom  46H    basis set group =>   3
Atom  47H    basis set group =>   3
Atom  48H    basis set group =>   3
Atom  49H    basis set group =>   3
Atom  50H    basis set group =>   3
Atom  51H    basis set group =>   3
Atom  52H    basis set group =>   3
Atom  53H    basis set group =>   3
Atom  54H    basis set group =>   3
Atom  55H    basis set group =>   3
Atom  56H    basis set group =>   3
Atom  57H    basis set group =>   3
Atom  58H    basis set group =>   3
Atom  59H    basis set group =>   3
Atom  60H    basis set group =>   3
Atom  61H    basis set group =>   3
Atom  62H    basis set group =>   3
Atom  63H    basis set group =>   3
Atom  64H    basis set group =>   3
Atom  65H    basis set group =>   3
Atom  66H    basis set group =>   3
Atom  67H    basis set group =>   3
Atom  68H    basis set group =>   3
Atom  69H    basis set group =>   3
Atom  70H    basis set group =>   3
Atom  71H    basis set group =>   3
Atom  72H    basis set group =>   3
Atom  73H    basis set group =>   3
Atom  74H    basis set group =>   3
Atom  75H    basis set group =>   3
Atom  76H    basis set group =>   3
Atom  77H    basis set group =>   3
Atom  78H    basis set group =>   3
Atom  79H    basis set group =>   3
Atom  80H    basis set group =>   3
Atom  81H    basis set group =>   3
---------------------------------
AUXILIARY/C BASIS SET INFORMATION
---------------------------------
There are 3 groups of distinct atoms

 Group   1 Type C   : 15s13p12d5f5g contracted to 15s13p12d5f5g pattern {111111111111111/1111111111111/111111111111/11111/11111}
 Group   2 Type O   : 15s13p12d5f5g contracted to 15s13p12d5f5g pattern {111111111111111/1111111111111/111111111111/11111/11111}
 Group   3 Type H   : 12s4p3d2f contracted to 12s4p3d2f pattern {111111111111/1111/111/11}

Atom   0C    basis set group =>   1
Atom   1C    basis set group =>   1
Atom   2C    basis set group =>   1
Atom   3C    basis set group =>   1
Atom   4C    basis set group =>   1
Atom   5C    basis set group =>   1
Atom   6C    basis set group =>   1
Atom   7C    basis set group =>   1
Atom   8C    basis set group =>   1
Atom   9C    basis set group =>   1
Atom  10C    basis set group =>   1
Atom  11C    basis set group =>   1
Atom  12C    basis set group =>   1
Atom  13C    basis set group =>   1
Atom  14C    basis set group =>   1
Atom  15C    basis set group =>   1
Atom  16C    basis set group =>   1
Atom  17C    basis set group =>   1
Atom  18O    basis set group =>   2
Atom  19O    basis set group =>   2
Atom  20O    basis set group =>   2
Atom  21O    basis set group =>   2
Atom  22O    basis set group =>   2
Atom  23C    basis set group =>   1
Atom  24C    basis set group =>   1
Atom  25C    basis set group =>   1
Atom  26C    basis set group =>   1
Atom  27O    basis set group =>   2
Atom  28C    basis set group =>   1
Atom  29C    basis set group =>   1
Atom  30C    basis set group =>   1
Atom  31C    basis set group =>   1
Atom  32C    basis set group =>   1
Atom  33C    basis set group =>   1
Atom  34C    basis set group =>   1
Atom  35C    basis set group =>   1
Atom  36O    basis set group =>   2
Atom  37O    basis set group =>   2
Atom  38O    basis set group =>   2
Atom  39O    basis set group =>   2
Atom  40O    basis set group =>   2
Atom  41C    basis set group =>   1
Atom  42H    basis set group =>   3
Atom  43H    basis set group =>   3
Atom  44H    basis set group =>   3
Atom  45H    basis set group =>   3
Atom  46H    basis set group =>   3
Atom  47H    basis set group =>   3
Atom  48H    basis set group =>   3
Atom  49H    basis set group =>   3
Atom  50H    basis set group =>   3
Atom  51H    basis set group =>   3
Atom  52H    basis set group =>   3
Atom  53H    basis set group =>   3
Atom  54H    basis set group =>   3
Atom  55H    basis set group =>   3
Atom  56H    basis set group =>   3
Atom  57H    basis set group =>   3
Atom  58H    basis set group =>   3
Atom  59H    basis set group =>   3
Atom  60H    basis set group =>   3
Atom  61H    basis set group =>   3
Atom  62H    basis set group =>   3
Atom  63H    basis set group =>   3
Atom  64H    basis set group =>   3
Atom  65H    basis set group =>   3
Atom  66H    basis set group =>   3
Atom  67H    basis set group =>   3
Atom  68H    basis set group =>   3
Atom  69H    basis set group =>   3
Atom  70H    basis set group =>   3
Atom  71H    basis set group =>   3
Atom  72H    basis set group =>   3
Atom  73H    basis set group =>   3
Atom  74H    basis set group =>   3
Atom  75H    basis set group =>   3
Atom  76H    basis set group =>   3
Atom  77H    basis set group =>   3
Atom  78H    basis set group =>   3
Atom  79H    basis set group =>   3
Atom  80H    basis set group =>   3
Atom  81H    basis set group =>   3
----------------------------------
AUXILIARY/JK BASIS SET INFORMATION
----------------------------------
There are 3 groups of distinct atoms

 Group   1 Type C   : 15s13p12d5f5g contracted to 15s13p12d5f5g pattern {111111111111111/1111111111111/111111111111/11111/11111}
 Group   2 Type O   : 15s13p12d5f5g contracted to 15s13p12d5f5g pattern {111111111111111/1111111111111/111111111111/11111/11111}
 Group   3 Type H   : 12s4p3d2f contracted to 12s4p3d2f pattern {111111111111/1111/111/11}

Atom   0C    basis set group =>   1
Atom   1C    basis set group =>   1
Atom   2C    basis set group =>   1
Atom   3C    basis set group =>   1
Atom   4C    basis set group =>   1
Atom   5C    basis set group =>   1
Atom   6C    basis set group =>   1
Atom   7C    basis set group =>   1
Atom   8C    basis set group =>   1
Atom   9C    basis set group =>   1
Atom  10C    basis set group =>   1
Atom  11C    basis set group =>   1
Atom  12C    basis set group =>   1
Atom  13C    basis set group =>   1
Atom  14C    basis set group =>   1
Atom  15C    basis set group =>   1
Atom  16C    basis set group =>   1
Atom  17C    basis set group =>   1
Atom  18O    basis set group =>   2
Atom  19O    basis set group =>   2
Atom  20O    basis set group =>   2
Atom  21O    basis set group =>   2
Atom  22O    basis set group =>   2
Atom  23C    basis set group =>   1
Atom  24C    basis set group =>   1
Atom  25C    basis set group =>   1
Atom  26C    basis set group =>   1
Atom  27O    basis set group =>   2
Atom  28C    basis set group =>   1
Atom  29C    basis set group =>   1
Atom  30C    basis set group =>   1
Atom  31C    basis set group =>   1
Atom  32C    basis set group =>   1
Atom  33C    basis set group =>   1
Atom  34C    basis set group =>   1
Atom  35C    basis set group =>   1
Atom  36O    basis set group =>   2
Atom  37O    basis set group =>   2
Atom  38O    basis set group =>   2
Atom  39O    basis set group =>   2
Atom  40O    basis set group =>   2
Atom  41C    basis set group =>   1
Atom  42H    basis set group =>   3
Atom  43H    basis set group =>   3
Atom  44H    basis set group =>   3
Atom  45H    basis set group =>   3
Atom  46H    basis set group =>   3
Atom  47H    basis set group =>   3
Atom  48H    basis set group =>   3
Atom  49H    basis set group =>   3
Atom  50H    basis set group =>   3
Atom  51H    basis set group =>   3
Atom  52H    basis set group =>   3
Atom  53H    basis set group =>   3
Atom  54H    basis set group =>   3
Atom  55H    basis set group =>   3
Atom  56H    basis set group =>   3
Atom  57H    basis set group =>   3
Atom  58H    basis set group =>   3
Atom  59H    basis set group =>   3
Atom  60H    basis set group =>   3
Atom  61H    basis set group =>   3
Atom  62H    basis set group =>   3
Atom  63H    basis set group =>   3
Atom  64H    basis set group =>   3
Atom  65H    basis set group =>   3
Atom  66H    basis set group =>   3
Atom  67H    basis set group =>   3
Atom  68H    basis set group =>   3
Atom  69H    basis set group =>   3
Atom  70H    basis set group =>   3
Atom  71H    basis set group =>   3
Atom  72H    basis set group =>   3
Atom  73H    basis set group =>   3
Atom  74H    basis set group =>   3
Atom  75H    basis set group =>   3
Atom  76H    basis set group =>   3
Atom  77H    basis set group =>   3
Atom  78H    basis set group =>   3
Atom  79H    basis set group =>   3
Atom  80H    basis set group =>   3
Atom  81H    basis set group =>   3
---------------------------------
AUXILIARY/X BASIS SET INFORMATION
---------------------------------
There are 3 groups of distinct atoms

 Group   1 Type C   : 15s13p12d5f5g contracted to 15s13p12d5f5g pattern {111111111111111/1111111111111/111111111111/11111/11111}
 Group   2 Type O   : 15s13p12d5f5g contracted to 15s13p12d5f5g pattern {111111111111111/1111111111111/111111111111/11111/11111}
 Group   3 Type H   : 12s4p3d2f contracted to 12s4p3d2f pattern {111111111111/1111/111/11}

Atom   0C    basis set group =>   1
Atom   1C    basis set group =>   1
Atom   2C    basis set group =>   1
Atom   3C    basis set group =>   1
Atom   4C    basis set group =>   1
Atom   5C    basis set group =>   1
Atom   6C    basis set group =>   1
Atom   7C    basis set group =>   1
Atom   8C    basis set group =>   1
Atom   9C    basis set group =>   1
Atom  10C    basis set group =>   1
Atom  11C    basis set group =>   1
Atom  12C    basis set group =>   1
Atom  13C    basis set group =>   1
Atom  14C    basis set group =>   1
Atom  15C    basis set group =>   1
Atom  16C    basis set group =>   1
Atom  17C    basis set group =>   1
Atom  18O    basis set group =>   2
Atom  19O    basis set group =>   2
Atom  20O    basis set group =>   2
Atom  21O    basis set group =>   2
Atom  22O    basis set group =>   2
Atom  23C    basis set group =>   1
Atom  24C    basis set group =>   1
Atom  25C    basis set group =>   1
Atom  26C    basis set group =>   1
Atom  27O    basis set group =>   2
Atom  28C    basis set group =>   1
Atom  29C    basis set group =>   1
Atom  30C    basis set group =>   1
Atom  31C    basis set group =>   1
Atom  32C    basis set group =>   1
Atom  33C    basis set group =>   1
Atom  34C    basis set group =>   1
Atom  35C    basis set group =>   1
Atom  36O    basis set group =>   2
Atom  37O    basis set group =>   2
Atom  38O    basis set group =>   2
Atom  39O    basis set group =>   2
Atom  40O    basis set group =>   2
Atom  41C    basis set group =>   1
Atom  42H    basis set group =>   3
Atom  43H    basis set group =>   3
Atom  44H    basis set group =>   3
Atom  45H    basis set group =>   3
Atom  46H    basis set group =>   3
Atom  47H    basis set group =>   3
Atom  48H    basis set group =>   3
Atom  49H    basis set group =>   3
Atom  50H    basis set group =>   3
Atom  51H    basis set group =>   3
Atom  52H    basis set group =>   3
Atom  53H    basis set group =>   3
Atom  54H    basis set group =>   3
Atom  55H    basis set group =>   3
Atom  56H    basis set group =>   3
Atom  57H    basis set group =>   3
Atom  58H    basis set group =>   3
Atom  59H    basis set group =>   3
Atom  60H    basis set group =>   3
Atom  61H    basis set group =>   3
Atom  62H    basis set group =>   3
Atom  63H    basis set group =>   3
Atom  64H    basis set group =>   3
Atom  65H    basis set group =>   3
Atom  66H    basis set group =>   3
Atom  67H    basis set group =>   3
Atom  68H    basis set group =>   3
Atom  69H    basis set group =>   3
Atom  70H    basis set group =>   3
Atom  71H    basis set group =>   3
Atom  72H    basis set group =>   3
Atom  73H    basis set group =>   3
Atom  74H    basis set group =>   3
Atom  75H    basis set group =>   3
Atom  76H    basis set group =>   3
Atom  77H    basis set group =>   3
Atom  78H    basis set group =>   3
Atom  79H    basis set group =>   3
Atom  80H    basis set group =>   3
Atom  81H    basis set group =>   3
--------------------------------------------------------------------------
WARNING: There was an error initializing an OpenFabrics device.

  Local host:   c03b01n05
  Local device: mlx5_0
--------------------------------------------------------------------------
--------------------------------------------------------------------------
WARNING: There is at least one non-excluded one OpenFabrics device found,
but there are no active ports detected (or Open MPI was unable to use
them).  This is most certainly not what you wanted.  Check your
cables, subnet manager configuration, etc.  The openib BTL will be
ignored for this job.

  Local host: c03b01n05
--------------------------------------------------------------------------


           ************************************************************
           *        Program running with 60 parallel MPI-processes    *
           *              working on a common directory               *
           ************************************************************
------------------------------------------------------------------------------
                             ORCA STARTUP CALCULATIONS
                           -- RI-GTO INTEGRALS CHOSEN --
------------------------------------------------------------------------------
------------------------------------------------------------------------------
                   ___                                                        
                  /   \      - P O W E R E D   B Y -                         
                 /     \                                                     
                 |  |  |   _    _      __       _____    __    __             
                 |  |  |  | |  | |    /  \     |  _  \  |  |  /  |          
                  \  \/   | |  | |   /    \    | | | |  |  | /  /          
                 / \  \   | |__| |  /  /\  \   | |_| |  |  |/  /          
                |  |  |   |  __  | /  /__\  \  |    /   |      \           
                |  |  |   | |  | | |   __   |  |    \   |  |\   \          
                \     /   | |  | | |  |  |  |  | |\  \  |  | \   \       
                 \___/    |_|  |_| |__|  |__|  |_| \__\ |__|  \__/        
                                                                              
                      - O R C A' S   B I G   F R I E N D -                    
                                      &                                       
                       - I N T E G R A L  F E E D E R -                       
                                                                              
 v1 FN, 2020, v2 2021, v3 2022-2024                                           
------------------------------------------------------------------------------


[c03b01n05:635448] 54 more processes have sent help message help-mpi-btl-openib.txt / error in device init
[c03b01n05:635448] Set MCA parameter "orte_base_help_aggregate" to 0 to see all help / error messages
[c03b01n05:635448] 4 more processes have sent help message help-mpi-btl-openib.txt / no active ports found
----------------------
SHARK INTEGRAL PACKAGE
----------------------

Number of atoms                             ...     82
Number of basis functions                   ...   2072
Number of shells                            ...    744
Maximum angular momentum                    ...      3
Integral batch strategy                     ... SHARK/LIBINT Hybrid
RI-J (if used) integral strategy            ... SPLIT-RIJ (Revised 2003 algorithm where possible)
Printlevel                                  ...      1
Contraction scheme used                     ... SEGMENTED contraction
Prescreening option                         ... SCHWARTZ
   Thresh                                   ... 1.000e-10
   Tcut                                     ... 1.000e-11
   Tpresel                                  ... 1.000e-11 
Coulomb Range Separation                    ... NOT USED
Exchange Range Separation                   ... NOT USED
Multipole approximations                    ... NOT USED
Finite Nucleus Model                        ... NOT USED
CABS basis                                  ... NOT available
Auxiliary Coulomb fitting basis             ... AVAILABLE
   # of basis functions in Aux-J            ...  10268
   # of shells in Aux-J                     ...   2940
   Maximum angular momentum in Aux-J        ...      4
Auxiliary J/K fitting basis                 ... AVAILABLE
   # of basis functions in Aux-JK           ...  10268
   # of shells in Aux-JK                    ...   2940
   Maximum angular momentum in Aux-JK       ...      4
Auxiliary Correlation fitting basis         ... AVAILABLE
   # of basis functions in Aux-C            ...  10268
   # of shells in Aux-C                     ...   2940
   Maximum angular momentum in Aux-C        ...      4
Auxiliary 'external' fitting basis          ... NOT available

Checking pre-screening integrals            ... done (  0.0 sec) Dimension = 744
   => SHARK Basis and OBASIS are compatible. Storing Pre-screening
Shell pair information
Shell pair cut-off parameter TPreSel        ...   1.0e-11
Total number of shell pairs                 ...    277140
Shell pairs after pre-screening             ...    149502
Total number of primitive shell pairs       ...    823733
Primitive shell pairs kept                  ...    273422
          la=0 lb=0:  28412 shell pairs
          la=1 lb=0:  49699 shell pairs
          la=1 lb=1:  20318 shell pairs
          la=2 lb=0:  19584 shell pairs
          la=2 lb=1:  14862 shell pairs
          la=2 lb=2:   2635 shell pairs
          la=3 lb=0:   6763 shell pairs
          la=3 lb=1:   5106 shell pairs
          la=3 lb=2:   1790 shell pairs
          la=3 lb=3:    333 shell pairs

Checking whether 4 symmetric matrices of dimension 2072 fit in memory
:Max Core in MB      =   5000.00
 MB in use           =    184.64
 MB left             =   4815.36
 MB needed           =     65.54
 Data fit in memory  = YES
Calculating RI/J V-Matrix + Cholesky decomp.... done (  6.4 sec)
Calculating RI/JK V-Matrix + Cholesky decomp.... done (  4.0 sec)
Calculating RI/C V-Matrix + Cholesky decomp.... done (  4.0 sec)
Calculating Nuclear repulsion               ... done (  0.0 sec) ENN=   5675.417555748727 Eh

Diagonalization of the overlap matrix:
Smallest eigenvalue                        ... 7.234e-06
Time for diagonalization                   ...    1.819 sec
Threshold for overlap eigenvalues          ... 1.000e-07
Number of eigenvalues below threshold      ... 0
Time for construction of square roots      ...    0.380 sec
Total time needed                          ...    2.267 sec

-------------------
DFT GRID GENERATION
-------------------

General Integration Accuracy     IntAcc      ... 4.388
Radial Grid Type                 RadialGrid  ... OptM3 with GC (2021)
Angular Grid (max. ang.)         AngularGrid ... 4 (Lebedev-302)
Angular grid pruning method      GridPruning ... 4 (adaptive)
Weight generation scheme         WeightScheme... mBecke (2022)
Basis function cutoff            BFCut       ... 1.0000e-10
Integration weight cutoff        WCut        ... 1.0000e-14
Partially contracted basis set               ... off
Rotationally invariant grid construction     ... off
Angular grids for H and He will be reduced by one unit
Diffuse basis detected: some atoms will have their outermost
                        angular grid increased by 1.

Total number of grid points                  ...   376870
Total number of batches                      ...     5930
Average number of points per batch           ...       63
Average number of grid points per atom       ...     4596
Grids setup in   3.9 sec
Initializing property integral containers    ... done (  0.2 sec)

SHARK setup successfully completed in  25.0 seconds

Maximum memory used throughout the entire STARTUP-calculation: 256.6 MB
--------------------------------------------------------------------------
WARNING: There was an error initializing an OpenFabrics device.

  Local host:   c03b01n05
  Local device: mlx5_0
--------------------------------------------------------------------------
--------------------------------------------------------------------------
WARNING: There is at least one non-excluded one OpenFabrics device found,
but there are no active ports detected (or Open MPI was unable to use
them).  This is most certainly not what you wanted.  Check your
cables, subnet manager configuration, etc.  The openib BTL will be
ignored for this job.

  Local host: c03b01n05
--------------------------------------------------------------------------


           ************************************************************
           *        Program running with 60 parallel MPI-processes    *
           *              working on a common directory               *
           ************************************************************
-------------------------------------------------------------------------------
                                 ORCA GUESS
                   Start orbitals & Density for SCF / CASSCF
-------------------------------------------------------------------------------

------------
SCF SETTINGS
------------
Hamiltonian:
 Density Functional     Method          .... DFT(GTOs)
 Exchange Functional    Exchange        .... TPSS
 Correlation Functional Correlation     .... TPSS
 LDA part of GGA corr.  LDAOpt          .... PW91-LDA
 Gradients option       PostSCFGGA      .... off
   NL short-range parameter             ....  5.000000
 RI-approximation to the Coulomb term is turned on
   Number of AuxJ basis functions       .... 10268


General Settings:
 Integral files         IntName         .... nmr-conf-12
 Hartree-Fock type      HFTyp           .... RHF
 Total Charge           Charge          ....    0
 Multiplicity           Mult            ....    1
 Number of Electrons    NEL             ....  314
 Basis Dimension        Dim             .... 2072
 Nuclear Repulsion      ENuc            ....   5675.4175557487 Eh

Convergence Acceleration:
 AO-DIIS                CNVDIIS         .... on
   Start iteration      DIISMaxIt       ....    12
   Startup error        DIISStart       ....  0.200000
   # of expansion vecs  DIISMaxEq       ....     5
   Bias factor          DIISBfac        ....   1.050
   Max. coefficient     DIISMaxC        ....  10.000
 MO-DIIS                CNVKDIIS        .... off
 Trust-Rad. Augm. Hess. CNVTRAH         .... auto
   Auto Start mean grad. ratio tolernc. ....  1.125000
   Auto Start start iteration           ....    50
   Auto Start num. interpolation iter.  ....    10
   Max. Number of Micro iterations      ....    24
   Max. Number of Macro iterations      .... Maxiter - #DIIS iter
   Number of Davidson start vectors     ....     2
   Converg. threshold    (grad. norm)   ....   5.000e-05
   Grad. Scal. Fac. for Micro threshold ....   0.100
   Minimum threshold for Micro iter.    ....   1.000e-02
   NR start threshold (gradient norm)   ....   1.000e-04
   Initial trust radius                 ....   0.400
   Minimum AH scaling param. (alpha)    ....   1.000
   Maximum AH scaling param. (alpha)    .... 1000.000
   Quad. conv. algorithm                .... NR
   White noise on init. David. guess    .... on
   Maximum white noise                  ....   0.010
   Pseudo random numbers                .... off
   Inactive MOs                         .... canonical
   Orbital update algorithm             .... Taylor
   Preconditioner                       .... Diag
   Full preconditioner red. dimension   ....   250
 SOSCF                 CNVSOSCF           .... on
   Start iteration     SOSCFMaxIt         ....   150
   Startup grad/error  SOSCFStart         ....  0.003300
   Hessian update      SOSCFHessUp        .... L-BFGS
   Autom. constraints  SOSCFAutoConstrain .... off
 Level Shifting         CNVShift        .... on
   Level shift para.    LevelShift      ....    0.2500
   Turn off err/grad.   ShiftErr        ....    0.0010
 Zerner damping         CNVZerner       .... off
 Static damping         CNVDamp         .... on
   Fraction old density DampFac         ....    0.7000
   Max. Damping (<1)    DampMax         ....    0.9800
   Min. Damping (>=0)   DampMin         ....    0.0000
   Turn off err/grad.   DampErr         ....    0.1000

SCF Procedure:
 Maximum # iterations   MaxIter         ....   125
 SCF integral mode      SCFMode         .... Direct
   Integral package                     .... SHARK and LIBINT hybrid scheme
 Reset frequency        DirectResetFreq ....    20
 Integral Threshold     Thresh          ....  1.000e-10 Eh
 Primitive CutOff       TCut            ....  1.000e-11 Eh

Convergence Tolerance:
 Convergence Check Mode ConvCheckMode   .... Total+1el-Energy
 Convergence forced     ConvForced      .... 0
 Energy Change          TolE            ....  1.000e-06 Eh
 1-El. energy change                    ....  1.000e-03 Eh
 Orbital Gradient       TolG            ....  5.000e-05
 Orbital Rotation angle TolX            ....  5.000e-05
 DIIS Error             TolErr          ....  1.000e-06

------------------------------
INITIAL GUESS: MODEL POTENTIAL
------------------------------
Loading Hartree-Fock densities                     ... done
Calculating cut-offs                               ... done
Initializing the effective Hamiltonian             ... done
Setting up the integral package (SHARK)            ... done
Starting the Coulomb interaction                   ... done (   1.8 sec)
Making the grid                                    ... done (   0.5 sec)
Mapping shells                                     ... done
Starting the XC term evaluation                    ... done (   0.2 sec)
  promolecular density results
     # of electrons  =    313.972428685
     EX              =   -260.286882911
     EC              =    -10.631986401
     EX+EC           =   -270.918869312
Transforming the Hamiltonian                       ... [c03b01n05:635845] 53 more processes have sent help message help-mpi-btl-openib.txt / error in device init
[c03b01n05:635845] Set MCA parameter "orte_base_help_aggregate" to 0 to see all help / error messages
[c03b01n05:635845] 5 more processes have sent help message help-mpi-btl-openib.txt / no active ports found
done (   0.3 sec)
Diagonalizing the Hamiltonian                      ... done (   0.6 sec)
Back transforming the eigenvectors                 ... done (   0.2 sec)
Now organizing SCF variables                       ... done
                      ------------------
                      INITIAL GUESS DONE (   4.2 sec)
                      ------------------
             **** ENERGY FILE WAS UPDATED (nmr-conf-12.en.tmp) ****
Finished Guess after   8.0 sec
Maximum memory used throughout the entire GUESS-calculation: 288.1 MB
--------------------------------------------------------------------------
WARNING: There was an error initializing an OpenFabrics device.

  Local host:   c03b01n05
  Local device: mlx5_0
--------------------------------------------------------------------------
--------------------------------------------------------------------------
WARNING: There is at least one non-excluded one OpenFabrics device found,
but there are no active ports detected (or Open MPI was unable to use
them).  This is most certainly not what you wanted.  Check your
cables, subnet manager configuration, etc.  The openib BTL will be
ignored for this job.

  Local host: c03b01n05
--------------------------------------------------------------------------


           ************************************************************
           *        Program running with 60 parallel MPI-processes    *
           *              working on a common directory               *
           ************************************************************

-------------------------------------------------------------------------------------------
                                      ORCA LEAN-SCF
                              memory conserving SCF solver
-------------------------------------------------------------------------------------------

--------------------
CPCM SOLVATION MODEL
--------------------
CPCM parameters:
  Epsilon                                         ...      33.4280
  Refrac                                          ...       1.3288
  Rsolv                                           ...       1.3000
  Surface type                                    ... GAUSSIAN VDW
  Discretization scheme                           ... Constant charge density
    Threshold for H atoms                         ...       5.0000 (charges/Ang^2)
    Threshold for non-H atoms                     ...       5.0000 (charges/Ang^2)
  Epsilon function type                           ...         CPCM
Solvent:                                          ... METHANOL
Radii:
  Scheme                                          ... Element-dependent radii
  Radius for C  used is    3.8550 Bohr (=   2.0400 Ang.)
  Radius for O  used is    3.4469 Bohr (=   1.8240 Ang.)
  Radius for H  used is    2.4944 Bohr (=   1.3200 Ang.)
Calculating surface                               ...        done! (  0.1s)
Cavity surface points                             ...         6307
Cavity Volume                                     ...    4516.1823
Cavity Surface-area                               ...    2098.5916
Calculating surface distance matrix               ...        done! (  0.2s)
Performing Cholesky decomposition & store         ...        done! (  0.8s)
Overall time for CPCM initialization              ...                 1.1s

----------------------------------------D-I-I-S--------------------------------------------
Iteration    Energy (Eh)           Delta-E    RMSDP     MaxDP     DIISErr   Damp  Time(sec)
-------------------------------------------------------------------------------------------
               ***  Starting incremental Fock matrix formation  ***
[c03b01n05:636277] 54 more processes have sent help message help-mpi-btl-openib.txt / error in device init
[c03b01n05:636277] Set MCA parameter "orte_base_help_aggregate" to 0 to see all help / error messages
[c03b01n05:636277] 4 more processes have sent help message help-mpi-btl-openib.txt / no active ports found
    1    -2033.0142039870697772     0.00e+00  8.04e-03  2.94e-01  2.37e-01  0.700  14.0
    2    -2033.4255492667762155    -4.11e-01  6.58e-03  2.35e-01  8.43e-02  0.700   8.8
                               ***Turning on AO-DIIS***
    3    -2033.5788658981564367    -1.53e-01  2.81e-03  7.51e-02  2.53e-02  0.700   7.2
    4    -2033.6715060375445319    -9.26e-02  4.74e-03  7.71e-02  1.19e-02  0.000   6.8
    5    -2033.8768539646107456    -2.05e-01  1.25e-03  3.16e-02  4.78e-03  0.000   6.8
                              *** Initializing SOSCF ***
---------------------------------------S-O-S-C-F--------------------------------------
Iteration    Energy (Eh)           Delta-E    RMSDP     MaxDP     MaxGrad    Time(sec)
--------------------------------------------------------------------------------------
    6    -2033.8782336310478058    -1.38e-03  4.03e-04  1.09e-02  1.44e-03     8.1
               *** Restarting incremental Fock matrix formation ***
    7    -2033.8783410416544939    -1.07e-04  3.01e-04  5.68e-03  1.24e-04     7.0
    8    -2033.8783182372062583     2.28e-05  7.90e-05  2.25e-03  6.80e-04     6.3
    9    -2033.8783567949612916    -3.86e-05  6.59e-05  1.13e-03  1.28e-04    10.0
   10    -2033.8783568321205166    -3.72e-08  2.04e-05  7.63e-04  1.09e-04     6.6
                 **** Energy Check signals convergence ****

               *****************************************************
               *                     SUCCESS                       *
               *           SCF CONVERGED AFTER  10 CYCLES          *
               *****************************************************

             **** ENERGY FILE WAS UPDATED (nmr-conf-12.en.tmp) ****

----------------
TOTAL SCF ENERGY
----------------

Total Energy       :      -2033.87835678682495 Eh          -55344.64376 eV

Components:
Nuclear Repulsion  :       5675.41755574872695 Eh          154435.96306 eV
Electronic Energy  :      -7709.24870357197233 Eh         -209779.32220 eV
One Electron Energy:     -14079.08429925205019 Eh         -383111.36079 eV
Two Electron Energy:       6369.83559568007786 Eh          173332.03859 eV
CPCM Dielectric    :         -0.04720896357990 Eh              -1.28462 eV

Virial components:
Potential Energy   :      -4061.11211334771906 Eh         -110508.47875 eV
Kinetic Energy     :       2027.23375656089411 Eh           55163.83499 eV
Virial Ratio       :          2.00327766849996

DFT components:
N(Alpha)           :      157.000052658348 electrons
N(Beta)            :      157.000052658348 electrons
N(Total)           :      314.000105316696 electrons
E(X)               :     -268.089237586823 Eh       
E(C)               :      -10.599732190498 Eh       
E(XC)              :     -278.688969777321 Eh       

CPCM Solvation Model Properties:
Surface-charge          :         -0.04253950789225
Corrected charge        :         -0.00000000000000
Outlying charge corr.   :          0.00007746396443 Eh               0.00211 eV
Free-energy (cav+disp)  :  This term is not implemented in the current solvation scheme

---------------
SCF CONVERGENCE
---------------

  Last Energy change         ...    3.7159e-08  Tolerance :   1.0000e-06
  Last MAX-Density change    ...    7.6326e-04  Tolerance :   1.0000e-05
  Last RMS-Density change    ...    2.0372e-05  Tolerance :   1.0000e-06
  Last DIIS Error            ...    1.4378e-03  Tolerance :   1.0000e-06
  Last Orbital Gradient      ...    1.0945e-04  Tolerance :   5.0000e-05
  Last Orbital Rotation      ...    2.2476e-04  Tolerance :   5.0000e-05


----------------
ORBITAL ENERGIES
----------------

  NO   OCC          E(Eh)            E(eV) 
   0   2.0000     -18.920991      -514.8663 
   1   2.0000     -18.918579      -514.8007 
   2   2.0000     -18.918068      -514.7868 
   3   2.0000     -18.911710      -514.6138 
   4   2.0000     -18.909229      -514.5463 
   5   2.0000     -18.909187      -514.5451 
   6   2.0000     -18.900978      -514.3217 
   7   2.0000     -18.883208      -513.8382 
   8   2.0000     -18.881097      -513.7808 
   9   2.0000     -18.878103      -513.6993 
  10   2.0000     -18.868832      -513.4470 
  11   2.0000     -10.047486      -273.4060 
  12   2.0000     -10.045994      -273.3654 
  13   2.0000     -10.044083      -273.3134 
  14   2.0000     -10.042798      -273.2784 
  15   2.0000     -10.041835      -273.2522 
  16   2.0000     -10.041206      -273.2351 
  17   2.0000     -10.040146      -273.2063 
  18   2.0000     -10.040006      -273.2025 
  19   2.0000     -10.036618      -273.1103 
  20   2.0000     -10.033833      -273.0345 
  21   2.0000     -10.033551      -273.0268 
  22   2.0000     -10.032631      -273.0018 
  23   2.0000     -10.031306      -272.9657 
  24   2.0000     -10.029180      -272.9079 
  25   2.0000     -10.024642      -272.7844 
  26   2.0000     -10.020647      -272.6757 
  27   2.0000      -9.990200      -271.8472 
  28   2.0000      -9.988919      -271.8123 
  29   2.0000      -9.987834      -271.7828 
  30   2.0000      -9.986943      -271.7585 
  31   2.0000      -9.986852      -271.7561 
  32   2.0000      -9.984223      -271.6845 
  33   2.0000      -9.983824      -271.6737 
  34   2.0000      -9.983640      -271.6687 
  35   2.0000      -9.983214      -271.6571 
  36   2.0000      -9.983026      -271.6520 
  37   2.0000      -9.982321      -271.6328 
  38   2.0000      -9.979607      -271.5589 
  39   2.0000      -9.978542      -271.5299 
  40   2.0000      -9.975848      -271.4566 
  41   2.0000      -9.973689      -271.3979 
  42   2.0000      -1.015251       -27.6264 
  43   2.0000      -1.011176       -27.5155 
  44   2.0000      -1.007415       -27.4132 
  45   2.0000      -0.996846       -27.1256 
  46   2.0000      -0.989757       -26.9327 
  47   2.0000      -0.983283       -26.7565 
  48   2.0000      -0.980680       -26.6857 
  49   2.0000      -0.955935       -26.0123 
  50   2.0000      -0.950764       -25.8716 
  51   2.0000      -0.949377       -25.8339 
  52   2.0000      -0.942038       -25.6342 
  53   2.0000      -0.798084       -21.7170 
  54   2.0000      -0.796935       -21.6857 
  55   2.0000      -0.793739       -21.5987 
  56   2.0000      -0.759967       -20.6798 
  57   2.0000      -0.733033       -19.9469 
  58   2.0000      -0.717084       -19.5129 
  59   2.0000      -0.703119       -19.1328 
  60   2.0000      -0.700478       -19.0610 
  61   2.0000      -0.697505       -18.9801 
  62   2.0000      -0.696191       -18.9443 
  63   2.0000      -0.687707       -18.7135 
  64   2.0000      -0.667894       -18.1743 
  65   2.0000      -0.650605       -17.7039 
  66   2.0000      -0.649158       -17.6645 
  67   2.0000      -0.648028       -17.6337 
  68   2.0000      -0.638223       -17.3669 
  69   2.0000      -0.623432       -16.9645 
  70   2.0000      -0.617728       -16.8092 
  71   2.0000      -0.613549       -16.6955 
  72   2.0000      -0.578092       -15.7307 
  73   2.0000      -0.568563       -15.4714 
  74   2.0000      -0.562814       -15.3149 
  75   2.0000      -0.558541       -15.1987 
  76   2.0000      -0.549850       -14.9622 
  77   2.0000      -0.541727       -14.7411 
  78   2.0000      -0.539910       -14.6917 
  79   2.0000      -0.530293       -14.4300 
  80   2.0000      -0.513702       -13.9785 
  81   2.0000      -0.511904       -13.9296 
  82   2.0000      -0.505014       -13.7421 
  83   2.0000      -0.500004       -13.6058 
  84   2.0000      -0.482579       -13.1316 
  85   2.0000      -0.474221       -12.9042 
  86   2.0000      -0.471426       -12.8282 
  87   2.0000      -0.465682       -12.6718 
  88   2.0000      -0.462219       -12.5776 
  89   2.0000      -0.456385       -12.4189 
  90   2.0000      -0.452016       -12.3000 
  91   2.0000      -0.448956       -12.2167 
  92   2.0000      -0.444929       -12.1071 
  93   2.0000      -0.440526       -11.9873 
  94   2.0000      -0.438782       -11.9399 
  95   2.0000      -0.433302       -11.7907 
  96   2.0000      -0.431061       -11.7298 
  97   2.0000      -0.427909       -11.6440 
  98   2.0000      -0.423613       -11.5271 
  99   2.0000      -0.420992       -11.4558 
 100   2.0000      -0.416784       -11.3413 
 101   2.0000      -0.412224       -11.2172 
 102   2.0000      -0.406645       -11.0654 
 103   2.0000      -0.402855       -10.9622 
 104   2.0000      -0.401288       -10.9196 
 105   2.0000      -0.399332       -10.8664 
 106   2.0000      -0.396799       -10.7975 
 107   2.0000      -0.391432       -10.6514 
 108   2.0000      -0.389489       -10.5985 
 109   2.0000      -0.386116       -10.5067 
 110   2.0000      -0.384208       -10.4548 
 111   2.0000      -0.382135       -10.3984 
 112   2.0000      -0.377777       -10.2798 
 113   2.0000      -0.376601       -10.2478 
 114   2.0000      -0.374249       -10.1838 
 115   2.0000      -0.371367       -10.1054 
 116   2.0000      -0.368820       -10.0361 
 117   2.0000      -0.365102        -9.9349 
[...]
  X          -0.6404617   -0.1046964   -0.7608203
  Y           0.5258784    0.6621918   -0.5338107
  Z           0.5596970   -0.7419843   -0.3690509

 --------------
 Nucleus  73H :
 --------------

Diamagnetic contribution to the shielding tensor (ppm) : 
           -61.554          6.710        10.490
           -54.478         44.637       -13.037
            26.694       -116.937      -156.819

Paramagnetic contribution to the shielding tensor (ppm): 
            87.375         -4.680       -10.896
            54.342        -12.607         9.327
           -26.547        113.593       181.140

Total shielding tensor (ppm): 
            25.822          2.030        -0.406
            -0.136         32.031        -3.709
             0.147         -3.344        24.321


 Diagonalized sT*s matrix:
 
 sDSO          -174.543          -54.167           54.974  iso=     -57.912
 sPSO           197.476           79.896          -21.464  iso=      85.303
        ---------------  ---------------  ---------------
 Total           22.933           25.730           33.510  iso=      27.391

 Orientation: 
  X          -0.0824410   -0.9914270   -0.1013702
  Y           0.3686883    0.0641593   -0.9273363
  Z           0.9258901   -0.1138245    0.3602382

 --------------
 Nucleus  74H :
 --------------

Diamagnetic contribution to the shielding tensor (ppm) : 
            10.849         57.164        -2.536
            -8.782         53.396        -1.330
            43.257       -181.896       -38.291

Paramagnetic contribution to the shielding tensor (ppm): 
            17.569        -56.716        -1.232
            10.953        -27.679        -2.222
           -46.924        178.726        67.380

Total shielding tensor (ppm): 
            28.417          0.448        -3.768
             2.171         25.717        -3.552
            -3.666         -3.170        29.089


 Diagonalized sT*s matrix:
 
 sDSO           -50.566           41.919           34.601  iso=       8.651
 sPSO            73.982          -16.013           -0.700  iso=      19.090
        ---------------  ---------------  ---------------
 Total           23.417           25.906           33.900  iso=      27.741

 Orientation: 
  X           0.2734599    0.7641263   -0.5842352
  Y           0.7428127   -0.5536473   -0.3764358
  Z           0.6111047    0.3310373    0.7190030

 --------------
 Nucleus  75H :
 --------------

Diamagnetic contribution to the shielding tensor (ppm) : 
          -115.831       -140.653        44.657
           -96.655        -48.813        42.196
           -94.283        186.693      -169.886

Paramagnetic contribution to the shielding tensor (ppm): 
           141.132        134.575       -44.297
            87.862         85.412       -41.622
            96.052       -188.673       198.611

Total shielding tensor (ppm): 
            25.301         -6.078         0.360
            -8.793         36.599         0.574
             1.769         -1.981        28.726


 Diagonalized sT*s matrix:
 
 sDSO          -203.773         -147.828           17.072  iso=    -111.510
 sPSO           225.339          176.511           23.306  iso=     141.718
        ---------------  ---------------  ---------------
 Total           21.565           28.683           40.377  iso=      30.209

 Orientation: 
  X           0.8839249    0.0425337    0.4656905
  Y           0.4596113    0.1045975   -0.8819392
  Z          -0.0862222    0.9936047    0.0729074

 --------------
 Nucleus  76H :
 --------------

Diamagnetic contribution to the shielding tensor (ppm) : 
           -61.658         71.832        69.882
           -77.167         92.735        36.659
           -32.290        -86.405      -129.373

Paramagnetic contribution to the shielding tensor (ppm): 
           105.282        -77.989       -71.240
            70.091        -69.553       -37.990
            32.834         85.881       148.631

Total shielding tensor (ppm): 
            43.623         -6.157        -1.358
            -7.076         23.181        -1.331
             0.544         -0.524        19.258


 Diagonalized sT*s matrix:
 
 sDSO          -108.885           59.895          -49.307  iso=     -32.766
 sPSO           127.722          -38.245           94.881  iso=      61.453
        ---------------  ---------------  ---------------
 Total           18.837           21.651           45.574  iso=      28.687

 Orientation: 
  X           0.1266040    0.2462892   -0.9608918
  Y           0.3842281    0.8808900    0.2764083
  Z           0.9145164   -0.4041961    0.0168930

 --------------
 Nucleus  77H :
 --------------

Diamagnetic contribution to the shielding tensor (ppm) : 
            -7.182        136.585         9.787
           -13.490        115.561         6.053
            36.154       -119.639        76.169

Paramagnetic contribution to the shielding tensor (ppm): 
            33.360       -133.627       -14.922
            16.389        -76.900       -10.431
           -40.830        113.497       -48.436

Total shielding tensor (ppm): 
            26.178          2.958        -5.135
             2.899         38.662        -4.377
            -4.676         -6.141        27.733


 Diagonalized sT*s matrix:
 
 sDSO            56.137          -35.828          164.239  iso=      61.516
 sPSO           -34.253           64.379         -122.102  iso=     -30.659
        ---------------  ---------------  ---------------
 Total           21.884           28.551           42.138  iso=      30.857

 Orientation: 
  X           0.7265306    0.6256855    0.2840264
  Y           0.0787065   -0.4864057    0.8701809
  Z           0.6826116   -0.6098583   -0.4026341

 --------------
 Nucleus  78H :
 --------------

Diamagnetic contribution to the shielding tensor (ppm) : 
           -27.353          0.582        31.769
           -49.875         47.686        13.386
             7.121        -91.804       -93.839

Paramagnetic contribution to the shielding tensor (ppm): 
            56.295          2.808       -27.760
            52.101        -30.747       -14.673
            -1.760         93.541       126.720

Total shielding tensor (ppm): 
            28.942          3.391         4.009
             2.226         16.939        -1.287
             5.361          1.737        32.880


 Diagonalized sT*s matrix:
 
 sDSO            52.331          -62.855          -62.983  iso=     -24.502
 sPSO           -36.045           89.192           99.121  iso=      50.756
        ---------------  ---------------  ---------------
 Total           16.286           26.337           36.139  iso=      26.254

 Orientation: 
  X           0.2460027    0.7814294    0.5734551
  Y          -0.9688473    0.2156959    0.1216973
  Z          -0.0285940   -0.5855283    0.8101475

 --------------
 Nucleus  79H :
 --------------

Diamagnetic contribution to the shielding tensor (ppm) : 
             7.524       -117.325       -23.693
           -25.722        -41.636       -26.817
             3.847       -118.205      -155.135

Paramagnetic contribution to the shielding tensor (ppm): 
            22.288        116.828        26.527
            24.605         63.652        26.704
            -4.372        117.985       184.963

Total shielding tensor (ppm): 
            29.812         -0.497         2.833
            -1.116         22.015        -0.113
            -0.524         -0.219        29.828


 Diagonalized sT*s matrix:
 
 sDSO           -55.969          -61.834          -71.444  iso=     -63.082
 sPSO            77.902           90.531          102.470  iso=      90.301
        ---------------  ---------------  ---------------
 Total           21.933           28.697           31.026  iso=      27.219

 Orientation: 
  X           0.0939846   -0.7140595    0.6937478
  Y           0.9955294    0.0608345   -0.0722524
  Z           0.0093887    0.6974369    0.7165847

 --------------
 Nucleus  80H :
 --------------

Diamagnetic contribution to the shielding tensor (ppm) : 
           -48.523       -196.744       -32.342
           -67.755        -81.086       -13.441
           -48.088        -11.168      -195.690

Paramagnetic contribution to the shielding tensor (ppm): 
            81.076        193.086        29.703
            63.232        107.008        13.096
            46.586         12.013       221.913

Total shielding tensor (ppm): 
            32.553         -3.658        -2.639
            -4.523         25.921        -0.345
            -1.502          0.846        26.224


 Diagonalized sT*s matrix:
 
 sDSO          -201.776         -170.608           47.085  iso=    -108.433
 sPSO           225.538          196.592          -12.133  iso=     136.666
        ---------------  ---------------  ---------------
 Total           23.762           25.984           34.952  iso=      28.233

 Orientation: 
  X           0.4557754   -0.0747186   -0.8869532
  Y           0.8426800    0.3571119    0.4029411
  Z           0.2866343   -0.9310683    0.2257266

 --------------
 Nucleus  81H :
 --------------

Diamagnetic contribution to the shielding tensor (ppm) : 
            96.934       -180.236       -49.249
            36.653        -68.030       -38.382
           -32.291        -60.388       -77.399

Paramagnetic contribution to the shielding tensor (ppm): 
           -67.459        183.852        48.682
           -35.137         95.433        37.307
            32.304         59.332       103.550

Total shielding tensor (ppm): 
            29.475          3.615        -0.567
             1.516         27.403        -1.075
             0.014         -1.056        26.150


 Diagonalized sT*s matrix:
 
 sDSO           -33.887           -4.073          -10.535  iso=     -16.165
 sPSO            58.993           30.659           41.873  iso=      43.841
        ---------------  ---------------  ---------------
 Total           25.105           26.585           31.338  iso=      27.676

 Orientation: 
  X           0.3774230    0.4743789   -0.7953091
  Y          -0.6881038   -0.4310848   -0.5836772
  Z          -0.6197298    0.7675484    0.1637206



--------------------------------
CHEMICAL SHIELDING SUMMARY (ppm)
--------------------------------


  Nucleus  Element    Isotropic     Anisotropy
  -------  -------  ------------   ------------
      0       C           25.118        124.874 
      1       C           44.458         93.614 
      2       C           26.258        117.586 
      3       C           76.425        124.371 
      4       C           39.385        192.837 
      5       C           76.722        135.622 
      6       C          146.984         34.104 
      7       C          133.198         18.696 
      8       C          135.824         24.703 
      9       C          143.545         41.078 
     10       C           43.692        182.866 
     11       C           70.907        153.352 
     12       C           29.970        118.459 
     13       C           32.092        123.601 
     14       C           67.440        144.518 
     15       C           56.272        147.390 
     16       C          115.373         73.079 
     17       C          112.515         64.304 
     23       C           95.488         45.847 
     24       C          103.383         45.424 
     25       C           44.340        181.085 
     26       C          113.282         55.286 
     28       C           66.801        143.998 
     29       C           32.536        117.200 
     30       C           33.056        120.730 
     31       C           68.007        147.201 
     32       C           60.392        177.357 
     33       C          123.415         74.298 
     34       C          124.971         79.511 
     35       C          124.152         79.707 
     41       C          124.917         78.541 
     42       H           25.589         10.017 
     43       H           25.934          8.424 
     44       H           30.118          6.843 
     45       H           28.906          4.825 
     46       H           30.698          4.387 
     47       H           28.999          2.987 
     48       H           28.137          8.078 
     49       H           29.109          4.377 
     50       H           24.567         10.302 
     51       H           24.811          2.918 
     52       H           24.609          5.662 
     53       H           28.233          5.555 
     54       H           28.049          7.515 
     55       H           28.428          5.082 
     56       H           27.480          6.260 
     57       H           25.296         12.662 
     58       H           26.725          4.825 
     59       H           26.785          3.886 
     60       H           27.398          7.789 
     61       H           27.369          5.777 
     62       H           29.638         15.681 
     63       H           24.819          8.713 
     64       H           25.299          5.238 
     65       H           25.046          5.648 
     66       H           28.680          8.801 
     67       H           27.582          6.973 
     68       H           28.195          7.952 
     69       H           27.933          7.488 
     70       H           27.995          9.659 
     71       H           27.545          9.665 
     72       H           27.818          5.962 
     73       H           27.391          9.178 
     74       H           27.741          9.239 
     75       H           30.209         15.253 
     76       H           28.687         25.330 
     77       H           30.857         16.920 
     78       H           26.254         14.827 
     79       H           27.219          5.711 
     80       H           28.233         10.079 
     81       H           27.676          5.492 


NMR shielding tensor and spin rotation calculation done in   2.3 sec 

Maximum memory used throughout the entire PROP-calculation: 365.6 MB
[c03b01n05:637700] 54 more processes have sent help message help-mpi-btl-openib.txt / error in device init
[c03b01n05:637700] Set MCA parameter "orte_base_help_aggregate" to 0 to see all help / error messages
[c03b01n05:637700] 4 more processes have sent help message help-mpi-btl-openib.txt / no active ports found
--------------------------------------------------------------------------
WARNING: There was an error initializing an OpenFabrics device.

  Local host:   c03b01n05
  Local device: mlx5_0
--------------------------------------------------------------------------
--------------------------------------------------------------------------
WARNING: There is at least one non-excluded one OpenFabrics device found,
but there are no active ports detected (or Open MPI was unable to use
them).  This is most certainly not what you wanted.  Check your
cables, subnet manager configuration, etc.  The openib BTL will be
ignored for this job.

  Local host: c03b01n05
--------------------------------------------------------------------------
[c03b01n05:638143] 54 more processes have sent help message help-mpi-btl-openib.txt / error in device init
[c03b01n05:638143] Set MCA parameter "orte_base_help_aggregate" to 0 to see all help / error messages
[c03b01n05:638143] 4 more processes have sent help message help-mpi-btl-openib.txt / no active ports found

--------------------------------
SUGGESTED CITATIONS FOR THIS RUN
--------------------------------

Below you find a list of papers that are relevant to this ORCA run
We neither can nor want to force you to cite these papers, but we appreciate if you do
You receive ORCA, which is the product of decades of hard work by many enthusiastic individuals, for free
The only thing we kindly ask in return is that you cite our papers,
We deeply appreciate it, if you show your appreciation for ORCA by not just citing the generic ORCA reference.

Please note that relegating all ORCA citations to the supporting information does *not* help us.
SI sections are not indexed - citations you put there will not count into any citation statistics
But we need these citations in order to attract the funding resources that allow us to do what we are doing

Therefore, if you are a happy ORCA user, please consider citing a few of the papers listed below in the main body of your paper

In addition to the list printed below, the program has created the file nmr-conf-12.bibtex that contains the list in bibtex format
You can import this file easily into all common literature databanks and citation aid programs


List of essential papers. We consider these as the minimum necessary citations

  1. Neese, F.
     Software update: the ORCA program system, version 6.0
     WIRES Comput. Molec. Sci. 2025 15(1), e70019
     doi.org/10.1002/wcms.7019

List of papers to cite with high priority. The work reported in these papers was absolutely
necessary for this run to complete.
Our perspective: the developers of density functionals and basis sets usually get cited in chemistry papers
Good! But without the algorithms to do something with them, the functionals or basis sets would not do anything.
Hence, in our opinion, the algorithm design and method developments papers are equally worthy of getting cited

  1. Neese, F.
     An improvement of the resolution of the identity approximation for the formation of the Coulomb matrix
     J. Comp. Chem. 2003 24(14), 1740-1747
     doi.org/10.1002/jcc.10318
  2. Stoychev, G.L.; Auer, A.A.; Neese, F.
     Automatic Generation of Auxiliary Basis Sets
     J. Theo. Comp. Chem. 2017 13 , 554-562
     doi.org/10.1021/acs.jctc.6b01041
  3. Stoychev, G.L.; Auer, A.A.; Izsak, R.; Neese, F.
     Self-Consistent Field Calculation of Nuclear Magnetic Resonance Chemical Shielding Constants Using Gauge-Including Atomic Orbitals and Approximate Two-Electron Integrals
     J. Chem. Theory Comput. 2018 14(2), 619-637
     doi.org/10.1021/acs.jctc.7b01006
  4. Garcia-Rates, M.; Neese, F.
     Effect of the Solute Cavity on the Solvation Energy and its Derivatives within the Framework of the Gaussian Charge Scheme
     J. Comput. Chem. 2020 41 , 922-939
     doi.org/10.1002/jcc.26139
  5. Neese, F.
     The SHARK Integral Generation and Digestion System
     J. Comp. Chem. 2022 44(3), 381
     doi.org/10.1002/jcc.26942

List of suggested additional citations. These are papers that are important in the 'surrounding' of 
of this run, or papers that preceded the highly important papers. If you like your results we are grateful for a citation.

  1. Neese, F.
     The ORCA program system
     WIRES Comput. Molec. Sci. 2012 2(1), 73-78
     doi.org/10.1002/wcms.81
  2. Neese, F.
     Software update: the ORCA program system, version 4.0
     WIRES Comput. Molec. Sci. 2018 8(1), 1-6
     doi.org/10.1002/wcms.1327
  3. Neese, F.; Wennmohs, F.; Becker, U.; Riplinger, C.
     The ORCA quantum chemistry program package
     J. Chem. Phys. 2020 152(22), 224108
     doi.org/10.1063/5.0004608
  4. Neese, F.
     Software update: The ORCA program system—Version 5.0
     WIRES Comput. Molec. Sci. 2022 12(1), e1606
     doi.org/10.1002/wcms.1606

List of optional additional citations

  1. Neese, F.
     Approximate second-order SCF convergence for spin unrestricted wavefunctions
     Chem. Phys. Lett. 2000 325(1-3), 93-98
     doi.org/10.1016/s0009-2614(00)00662-x

Timings for individual modules:

Sum of individual times          ...      222.848 sec (=   3.714 min)
Startup calculation              ...       48.998 sec (=   0.817 min)  22.0 %
SCF iterations                   ...      105.627 sec (=   1.760 min)  47.4 %
Property integrals               ...       49.705 sec (=   0.828 min)  22.3 %
SCF Response                     ...       12.283 sec (=   0.205 min)   5.5 %
Property calculations            ...        6.235 sec (=   0.104 min)   2.8 %
                             ****ORCA TERMINATED NORMALLY****
TOTAL RUN TIME: 0 days 0 hours 3 minutes 53 seconds 55 msec
