
                                 *****************
                                 * O   R   C   A *
                                 *****************

                                            #,                                       
                                            ###                                      
                                            ####                                     
                                            #####                                    
                                            ######                                   
                                           ########,                                 
                                     ,,################,,,,,                         
                               ,,#################################,,                 
                          ,,##########################################,,             
                       ,#########################################, ''#####,          
                    ,#############################################,,   '####,        
                  ,##################################################,,,,####,       
                ,###########''''           ''''###############################       
              ,#####''   ,,,,##########,,,,          '''####'''          '####       
            ,##' ,,,,###########################,,,                        '##       
           ' ,,###''''                  '''############,,,                           
         ,,##''                                '''############,,,,        ,,,,,,###''
      ,#''                                            '''#######################'''  
     '                                                          ''''####''''         
             ,#######,   #######,   ,#######,      ##                                
            ,#'     '#,  ##    ##  ,#'     '#,    #''#        ,####,    ,#,          
            ##       ##  ##   ,#'  ##            #'  '#       #'       ,# #          
            ##       ##  #######   ##           ,######,      #####,      #          
            '#,     ,#'  ##    ##  '#,     ,#' ,#      #,     #,   #      #          
             '#######'   ##     ##  '#######'  #'      '#     '####' #    #          



                #########################################################
                #                        -***-                          #
                #          Department of theory and spectroscopy        #
                #                                                       #
                #                      Frank Neese                      #
                #                                                       #
                #     Directorship, Architecture, Infrastructure        #
                #                    SHARK, DRIVERS                     #
                #        Core code/Algorithms in most modules           #
                #                                                       #
                #        Max Planck Institute fuer Kohlenforschung      #
                #                Kaiser Wilhelm Platz 1                 #
                #                 D-45470 Muelheim/Ruhr                 #
                #                      Germany                          #
                #                                                       #
                #                  All rights reserved                  #
                #                        -***-                          #
                #########################################################


                         Program Version 6.1.0-f.0  -   RELEASE   -


 With contributions from (in alphabetic order):
[Max-Planck-Institut fuer Kohlenforschung]                               
  Daniel Aravena         : Magnetic Suceptibility                        
  Michael Atanasov       : Ab Initio Ligand Field Theory (pilot matlab implementation)
  Alexander A. Auer      : GIAO ZORA, VPT2 properties, NMR spectrum      
  Ute Becker             : All parallelization in ORCA, NUMFREQ, NUMCALC 
  Giovanni Bistoni       : ED, misc. LED, open-shell LED, HFLD           
  Dmytro Bykov           : pre 5.0 version of the SCF Hessian            
  Marcos Casanova-Páez   : Triplet and SCS-CIS(D). UHF-(DLPNO)-IP/EA/STEOM-CCSD. UHF-CVS-IP/STEOM-CCSD   
  Vijay G. Chilkuri      : MRCI spin determinant printing, contributions to CSF-ICE 
  Pauline Colinet        : FMM embedding                                 
  Dipayan Datta          : RHF DLPNO-CCSD density                        
  Achintya Kumar Dutta   : EOM-CC, STEOM-CC                              
  Nicolas Foglia         : Exact transition moments, OPA infrastructure, MCD improvements    
  Dmitry Ganyushin       : Spin-Orbit,Spin-Spin,Magnetic field MRCI      
  Miquel Garcia-Rates    : C-PCM and meta-GGA Hessian, CCSD/C-PCM, Gaussian charge scheme 
  Tiago L. C. Gouveia    : GS-ROHF, GS-ROCIS                             
  Yang Guo               : DLPNO-NEVPT2, F12-NEVPT2, CIM, IAO-localization        
  Andreas Hansen         : Spin unrestricted coupled pair/coupled cluster methods 
  Ingolf Harden          : AUTO-CI MPn and infrastructure                
  Benjamin Helmich-Paris : MC-RPA, TRAH-(SCF,CASSCF), AVAS, COSX integrals, SCF dyn. polar., MC-PDFT, srDFT 
  Lee Huntington         : MR-EOM, pCC                                   
  Robert Izsak           : Overlap fitted RIJCOSX, COSX-SCS-MP3, EOM     
  Riya Kayal             : Wick's Theorem for AUTO-CI, AUTO-CI UHF-CCSDT 
  Emily Kempfer          : AUTO-CI RHF CISDT and CCSDT, approximate NEVPT4
  Christian Kollmar      : KDIIS, OOCD, Brueckner-CCSD(T), CCSD density, CASPT2, CASPT2-K, improved NEVPT2 
  Axel Koslowski         : Symmetry handling                             
  Simone Kossmann        : meta-GGA functionals, TD-DFT gradient, OOMP2, (MP2 Hessian; deprecated post 5.0) 
  Lucas Lang             : DCDCAS, Hyperfine gauge corrections, ICE-SOC+SSC
  Marvin Lechner         : AUTO-CI (C++ implementation), FIC-MRCC        
  Spencer Leger          : CASSCF response                               
  Dagmar Lenk            : GEPOL surface, SMD, ORCA-2-JSON               
  Dimitrios Liakos       : Extrapolation schemes; Compound Job, Property file
  Dimitrios Manganas     : Further ROCIS development; embedding schemes. LFT, Crystal Embedding 
  Dimitrios Pantazis     : SARC Basis sets                               
  Anastasios Papadopoulos: AUTO-CI, single reference methods and gradients 
  Taras Petrenko         : pre 6.0 DFT Hessian and TD-DFT gradient,  ECA, NRVS 
  Petra Pikulova         : Analytic Raman intensities                    
  Peter Pinski           : DLPNO-MP2, DLPNO-MP2 Gradient                 
  Shashank Vittal Rao    : ES-AILFT, MagRelax                            
  Christoph Reimann      : Effective Core Potentials                     
  Marius Retegan         : Local ZFS, SOC                                
  Christoph Riplinger    : Optimizer, TS searches, QM/MM, DLPNO-CCSD(T), (RO)-DLPNO pert. Triples 
  Michael Roemelt        : Original ROCIS implementation, recursive CI coupling coefficients
  Masaaki Saitow         : Open-shell DLPNO-CCSD energy and density      
  Barbara Sandhoefer     : DKH picture change effects                    
  Yorick L. A. Schmerwitz: GMF and freeze-and-release deltaSCF, NEB S-IDPP initial path                    
  Kantharuban Sivalingam : CASSCF convergence/infrastructure, NEVPT2, NEVPT3, NEVPT4(SD), FIC-MRCI and CEPA variants
  Bernardo de Souza      : ESD, SOC TD-DFT                               
  Georgi L. Stoychev     : AutoAux, RI-MP2 NMR, DLPNO-MP2 response, X2C  
  Van Anh Tran           : RI-MP2 g-tensors                              
  Willem Van den Heuvel  : Paramagnetic NMR                              
  Zikuan Wang            : NOTCH, Electric field optimization            
  Frank Wennmohs         : Technical directorship and infrastructure     
  Hang Xu                : AUTO-CI-Response properties                   
                                                                         
[FACCTs GmbH]                                                            
  Markus Bursch, Nicolas Foglia, Miquel Garcia-Rates, Ingolf Harden, Hagen Neugebauer, Anastasios Papadopoulos, 
  Christoph Riplinger, Bernardo de Souza, Georgi L. Stoychev                                                    
                                                                 
  APM, various basis sets, CI-OPT, improved COSX, DLPNO-Multilevel,           
  DOCKER, DRACO, updates on ESD, Fragmentator, GOAT, IRC, LR-CPCM, L-BFGS, MBIS, meta-GGA TD-DFT gradient, ML-optimized integration grids, 
  MM, NACMEs, nearIR, NEB, NEB-TS, NL-DFT gradient (VV10), 2- and 3-layer-ONIOM, interface openCOSMO-RS, QMMM,   
  Crystal-QMMM, RESP, rigid body optimization, SF, symmetry and pop. for TD-DFT, various functionals, SOLVATOR                                   
                                                                         
[Other institutions]                                                     
  V. Asgeirsson          : NEB                                           
  Christoph Bannwarth    : sTDA-DFT, sTD-DFT, PBEh-3c, B97-3c, D3        
  Giovanni Bistoni       : ETS/NOCV, ADLD/ADEX, COVALED                  
  Martin Brehm           : Molecular dynamics                            
  Ronald Cardenas        : ETS/NOCV                                      
  Martina Colucci        : COVALED                                       
  Sebastian Ehlert       : rSCAN, r2SCAN, r2SCAN-3c, D4, dhf basis sets  
  Marvin Friede          : D4 for Fr, Ra, Ac-Lr                          
  Lars Goerigk           : TD-DFT with DH, B97 family of functionals     
  Stefan Grimme          : VdW corrections, initial TS optimization, DFT functionals, gCP, sTDA/sTD-DF 
  Waldemar Hujo          : DFT-NL                                        
  H. Jonsson             : NEB                                           
  Holger Kruse           : gCP                                           
  Marcel Mueller         : wB97X-3c, vDZP basis set                      
  Hagen Neugebauer       : wr2SCAN, Native XTB                           
  Gianluca Regni         : ADLD/ADEX                                     
  Tobias Risthaus        : pre 6.0 range-separated hybrid DFT and stability analysis
  Lukas Wittmann         : regularized MP2, r2SCAN double-hybrids, wr2SCAN        
                                                                         
We gratefully acknowledge several colleagues who have allowed us to      
interface, adapt or use parts of their codes:                            
  Ed Valeev, F. Pavosevic, A. Kumar             : LibInt (2-el integral package), F12 methods 
  Garnet Chan, S. Sharma, J. Yang, R. Olivares  : DMRG                   
  Ulf Ekstrom                                   : XCFun DFT Library      
  Mihaly Kallay                                 : mrcc  (arbitrary order and MRCC methods)
  Frank Weinhold                                : gennbo (NPA and NBO analysis)           
  Simon Mueller                                 : openCOSMO-RS                            
  Christopher J. Cramer and Donald G. Truhlar   : smd solvation model                     
  S Lehtola, MJT Oliveira, MAL Marques          : LibXC Library                           
  Liviu Ungur et al                             : ANISO software                          


 Your calculation uses the libint2 library for the computation of 2-el integrals
 For citations please refer to: http://libint.valeyev.net

 Your ORCA version has been built with support for libXC version: 7.0.0
 For citations please refer to: https://libxc.gitlab.io

 This ORCA versions uses:
   CBLAS   interface :  Fast vector & matrix operations
   LAPACKE interface :  Fast linear algebra routines
   SCALAPACK package :  Parallel linear algebra routines
   Shared memory     :  Shared parallel matrices
   BLAS/LAPACK       :  OpenBLAS 0.3.29  USE64BITINT DYNAMIC_ARCH NO_AFFINITY Cooperlake SINGLE_THREADED
        Core in use  :  Cooperlake
   Copyright (c) 2011-2014, The OpenBLAS Project


  ***********************************
  * Starting time: Wed Mar  4 13:44:39 2026
  * Host name:     c02b01n06
  * Process ID:    2443676
  * Working dir.:  /lustre1/jiangy/jiangy_liuxy/NMR/B9D7C2-RSSR-NMR/opt_conf
  ***********************************

NOTE: MaxCore=5000 MB was set to SCF,MP2,MDCI,CIPSI,MRCI,RASCI and CIS
      => If you want to overwrite this, your respective input block should be placed after the MaxCore statement


***************************************
The coordinates will be read from file: opt-conf-0.xyz
***************************************



Warning: The global flag for NMR shieldings has been found
         but shieldings for certain elements have also been explicitly requested in the EPRNMR block
         ==>> only the requested shieldings will be calculated

================================================================================

----- Orbital basis set information -----
Your calculation utilizes the basis: pcSseg-2
   F. Jensen, J. Chem. Theory Comput. 11, 132 (2015).

----- AuxJ basis set information -----
Your calculation utilizes the AutoAux generation procedure.
  G. L. Stoychev, A. A. Auer, F. Neese, J. Chem. Theory Comput. 13, 554 (2017)

----- AuxC basis set information -----
Your calculation utilizes the AutoAux generation procedure.
  G. L. Stoychev, A. A. Auer, F. Neese, J. Chem. Theory Comput. 13, 554 (2017)

----- AuxJK basis set information -----
Your calculation utilizes the AutoAux generation procedure.
  G. L. Stoychev, A. A. Auer, F. Neese, J. Chem. Theory Comput. 13, 554 (2017)

----- AuxX basis set information -----
Your calculation utilizes the AutoAux generation procedure.
  G. L. Stoychev, A. A. Auer, F. Neese, J. Chem. Theory Comput. 13, 554 (2017)

================================================================================
                                        WARNINGS
                       Please study these warnings very carefully!
================================================================================


================================================================================
                                       INPUT FILE
================================================================================
NAME = nmr-conf-0.inp
|  1> !TPSS PCSSEG-2 AUTOAUX NMR CPCM(Methanol)
|  2> 
|  3> %pal nprocs 60 end
|  4> %maxcore 5000
|  5> 
|  6> *XYZFILE 0 1 opt-conf-0.xyz
|  7> 
|  8> %EPRNMR
|  9>    NUCLEI = ALL C {SHIFT}
| 10>    NUCLEI = ALL H {SHIFT}
| 11>    TAU DOBSON
| 12> END
| 13> 
| 14> 
| 15>                          ****END OF INPUT****
================================================================================

                       ****************************
                       * Single Point Calculation *
                       ****************************

---------------------------------
CARTESIAN COORDINATES (ANGSTROEM)
---------------------------------
  C     21.410018  -31.937289   -1.774562
  C     20.923617  -32.173029   -3.065807
  C     19.547043  -32.315318   -3.261346
  C     18.676027  -32.286322   -2.172181
  C     19.167792  -32.090784   -0.886077
  C     20.534323  -31.903056   -0.693337
  C     18.249173  -32.102514    0.309345
  C     18.364575  -33.397364    1.141305
  C     17.873917  -33.238512    2.595941
  C     18.934975  -32.552324    3.479354
  C     20.258510  -33.272515    3.553988
  C     20.315062  -34.608744    3.969089
  C     21.529928  -35.268806    4.065333
  C     22.724345  -34.594892    3.763510
  C     22.674506  -33.281440    3.338258
  C     21.446735  -32.628345    3.230831
  C     17.704927  -34.569349    0.412288
  C     16.554371  -32.484152    2.762696
  O     19.145978  -32.488291   -4.551423
  O     22.752328  -31.758099   -1.669410
  O     21.808452  -32.178208   -4.115032
  O     23.924168  -35.234775    3.885090
  O     21.698805  -36.570338    4.444683
  C     21.961065  -33.376734   -4.906934
  C     22.858582  -34.399423   -4.190754
  C     22.293378  -34.917225   -2.890605
  C     22.546002  -32.897901   -6.224908
  O     23.811738  -32.258897   -6.068484
  C     23.102216  -34.932319   -1.753352
  C     22.613448  -35.408563   -0.546293
  C     21.296724  -35.880945   -0.471102
  C     20.500826  -35.899168   -1.601922
  C     20.997024  -35.414514   -2.806945
  C     23.293896  -31.548219   -0.368704
  C     17.761309  -32.713700   -4.804521
  C     20.535800  -37.348297    4.723844
  O     23.157681  -35.482745   -5.090430
  O     17.958301  -35.829714    1.038380
  O     15.443567  -33.062828    2.071211
  O     23.301668  -35.461421    0.627205
  O     20.797033  -36.330073    0.722101
  C     24.688617  -35.123248    0.617506
  H     17.614106  -32.415986   -2.319383
  H     20.909759  -31.744235    0.306581
  H     17.215710  -31.963011   -0.016283
  H     18.496324  -31.251192    0.947595
  H     19.429520  -33.641574    1.201011
  H     17.718283  -34.247405    2.991126
  H     18.523658  -32.452673    4.489592
  H     19.109403  -31.534674    3.120016
  H     19.401242  -35.129765    4.216753
  H     23.598025  -32.774801    3.087834
  H     21.422827  -31.599904    2.891731
  H     16.622802  -34.448044    0.395482
  H     18.056330  -34.589926   -0.623738
  H     16.328032  -32.408137    3.832641
  H     16.638730  -31.466717    2.376900
  H     23.757263  -36.145698    4.170181
  H     20.984116  -33.816843   -5.112603
  H     23.818428  -33.922801   -3.993714
  H     21.826914  -32.217891   -6.693498
  H     22.702894  -33.748362   -6.884910
  H     23.688354  -31.509270   -5.471513
  H     24.109756  -34.547116   -1.815831
  H     19.490995  -36.281165   -1.530745
  H     20.349807  -35.415490   -3.674547
  H     24.370611  -31.476317   -0.501913
  H     22.915361  -30.621861    0.071050
  H     23.060964  -32.382044    0.295835
  H     17.408801  -33.610381   -4.289525
  H     17.158617  -31.855993   -4.496211
  H     17.675141  -32.851557   -5.879628
  H     20.894021  -38.343826    4.973081
  H     19.983218  -36.932448    5.569515
  H     19.883333  -37.397780    3.849096
  H     22.382621  -36.057353   -5.144071
  H     18.915380  -35.993012    1.015211
  H     15.299053  -33.951138    2.420388
  H     21.470271  -36.208938    1.409814
  H     24.835095  -34.080809    0.329686
  H     25.033644  -35.273834    1.635464
  H     25.236588  -35.772338   -0.069556

----------------------------
CARTESIAN COORDINATES (A.U.)
----------------------------
  NO LB      ZA    FRAG     MASS         X           Y           Z
   0 C     6.0000    0    12.011   40.459070  -60.352729   -3.353436
   1 C     6.0000    0    12.011   39.539906  -60.798214   -5.793536
   2 C     6.0000    0    12.011   36.938559  -61.067102   -6.163051
   3 C     6.0000    0    12.011   35.292577  -61.012306   -4.104827
   4 C     6.0000    0    12.011   36.221878  -60.642792   -1.674443
   5 C     6.0000    0    12.011   38.804246  -60.288039   -1.310218
   6 C     6.0000    0    12.011   34.485940  -60.664960    0.584577
   7 C     6.0000    0    12.011   34.704017  -63.111871    2.156754
   8 C     6.0000    0    12.011   33.776808  -62.811685    4.905618
   9 C     6.0000    0    12.011   35.781917  -61.514977    6.575025
  10 C     6.0000    0    12.011   38.283036  -62.875940    6.716063
  11 C     6.0000    0    12.011   38.389903  -65.401048    7.500491
  12 C     6.0000    0    12.011   40.685668  -66.648385    7.682366
  13 C     6.0000    0    12.011   42.942788  -65.374872    7.112004
  14 C     6.0000    0    12.011   42.848606  -62.892808    6.308393
  15 C     6.0000    0    12.011   40.528455  -61.658636    6.105385
  16 C     6.0000    0    12.011   33.457463  -65.326603    0.779112
  17 C     6.0000    0    12.011   31.283228  -61.386151    5.220738
  18 O     8.0000    0    15.999   36.180654  -61.393972   -8.600944
  19 O     8.0000    0    15.999   42.995669  -60.014110   -3.154728
  20 O     8.0000    0    15.999   41.212003  -60.808001   -7.776284
  21 O     8.0000    0    15.999   45.210125  -66.584075    7.341757
  22 O     8.0000    0    15.999   41.004799  -69.107923    8.399233
  23 C     6.0000    0    12.011   41.500399  -63.072886   -9.272761
  24 C     6.0000    0    12.011   43.196460  -65.005489   -7.919377
  25 C     6.0000    0    12.011   42.128380  -65.983992   -5.462452
  26 C     6.0000    0    12.011   42.605770  -62.168024  -11.763371
  27 O     8.0000    0    15.999   44.997664  -60.960480  -11.467772
  28 C     6.0000    0    12.011   43.656862  -66.012515   -3.313355
  29 C     6.0000    0    12.011   42.733224  -66.912487   -1.032344
  30 C     6.0000    0    12.011   40.244976  -67.805160   -0.890254
  31 C     6.0000    0    12.011   38.740946  -67.839596   -3.027195
  32 C     6.0000    0    12.011   39.678624  -66.923733   -5.304357
  33 C     6.0000    0    12.011   44.019084  -59.617493   -0.696749
  34 C     6.0000    0    12.011   33.564010  -61.819934   -9.079229
  35 C     6.0000    0    12.011   38.807037  -70.578053    8.926772
  36 O     8.0000    0    15.999   43.761675  -67.052671   -9.619519
  37 O     8.0000    0    15.999   33.936271  -67.708347    1.962253
  38 O     8.0000    0    15.999   29.184112  -62.479690    3.914022
  39 O     8.0000    0    15.999   44.033771  -67.012374    1.185247
  40 O     8.0000    0    15.999   39.300697  -68.653888    1.364574
  41 C     6.0000    0    12.011   46.654725  -66.373319    1.166918
  42 H     1.0000    0     1.008   33.285836  -61.257336   -4.382999
  43 H     1.0000    0     1.008   39.513719  -59.987911    0.579354
  44 H     1.0000    0     1.008   32.532978  -60.401337   -0.030771
  45 H     1.0000    0     1.008   34.952987  -59.056195    1.790694
  46 H     1.0000    0     1.008   36.716472  -63.573361    2.269582
  47 H     1.0000    0     1.008   33.482703  -64.718216    5.652410
  48 H     1.0000    0     1.008   35.004640  -61.326664    8.484099
  49 H     1.0000    0     1.008   36.111538  -59.591897    5.895975
  50 H     1.0000    0     1.008   36.663035  -66.385636    7.968508
  51 H     1.0000    0     1.008   44.593804  -61.935397    5.835161
  52 H     1.0000    0     1.008   40.483276  -59.715164    5.464580
  53 H     1.0000    0     1.008   31.412544  -65.097369    0.747353
  54 H     1.0000    0     1.008   34.121519  -65.365486   -1.178693
  55 H     1.0000    0     1.008   30.855508  -61.242504    7.242642
  56 H     1.0000    0     1.008   31.442642  -59.463477    4.491689
  57 H     1.0000    0     1.008   44.894721  -68.305471    7.880501
  58 H     1.0000    0     1.008   39.654232  -63.904572   -9.661419
  59 H     1.0000    0     1.008   45.010306  -64.104804   -7.547026
  60 H     1.0000    0     1.008   41.246890  -60.882990  -12.648878
  61 H     1.0000    0     1.008   42.902252  -63.775162  -13.010593
  62 H     1.0000    0     1.008   44.764501  -59.543892  -10.339661
  63 H     1.0000    0     1.008   45.560835  -65.284588   -3.431423
  64 H     1.0000    0     1.008   36.832643  -68.561465   -2.892689
  65 H     1.0000    0     1.008   38.455563  -66.925578   -6.943888
  66 H     1.0000    0     1.008   46.053781  -59.481619   -0.948479
  67 H     1.0000    0     1.008   43.303757  -57.866931    0.134264
  68 H     1.0000    0     1.008   43.578906  -61.193194    0.559047
  69 H     1.0000    0     1.008   32.897867  -63.514416   -8.106028
  70 H     1.0000    0     1.008   32.425087  -60.199103   -8.496607
  71 H     1.0000    0     1.008   33.401177  -62.080446  -11.110886
  72 H     1.0000    0     1.008   39.483978  -72.459330    9.397762
  73 H     1.0000    0     1.008   37.762809  -69.792212   10.524858
  74 H     1.0000    0     1.008   37.574055  -70.671563    7.273738
  75 H     1.0000    0     1.008   42.297025  -68.138522   -9.720885
  76 H     1.0000    0     1.008   35.744889  -68.016935    1.918471
  77 H     1.0000    0     1.008   28.911021  -64.158354    4.573871
  78 H     1.0000    0     1.008   40.572932  -68.424977    2.664162
  79 H     1.0000    0     1.008   46.931529  -64.403396    0.623016
  80 H     1.0000    0     1.008   47.306731  -66.657885    3.090580
  81 H     1.0000    0     1.008   47.690239  -67.599921   -0.131442

--------------------------------
INTERNAL COORDINATES (ANGSTROEM)
--------------------------------
 C      0   0   0     0.000000000000     0.00000000     0.00000000
 C      1   0   0     1.399812273978     0.00000000     0.00000000
 C      2   1   0     1.397653956301   119.23769905     0.00000000
 C      3   2   1     1.394916067692   120.24166478   356.95169295
 C      4   3   2     1.390730024609   120.27794963     1.19882774
 C      1   2   3     1.391783105380   120.14069483     2.73151795
 C      5   4   3     1.507657658690   121.11147278   182.08527933
 C      7   5   4     1.543408848205   112.85343923   105.15771426
 C      8   7   5     1.543355062681   113.44902683   158.33522333
 C      9   8   7     1.541790041997   111.53440420   280.74719059
 C     10   9   8     1.508638614578   114.81211047   301.04666023
 C     11  10   9     1.400362837706   120.37175777   304.11484457
 C     12  11  10     1.385945605557   120.69222342   181.27852238
 C     13  12  11     1.404239074795   120.13888265     0.88037892
 C     14  13  12     1.381477336418   119.45629701   358.37186402
 C     11  10   9     1.389698841351   121.15341864   124.89603912
 C      8   7   5     1.529755132224   110.70883033   286.61720151
 C      9   8   7     1.529073966513   115.33546788    44.64717640
 O      3   2   1     1.362010598112   115.81518191   177.43824538
 O      1   2   3     1.358294227743   115.91350415   182.46958309
 O      2   1   3     1.372528274726   118.80200963   176.16379894
 O     14  13  12     1.365213056531   120.22887158   178.60261538
 O     13  12  11     1.366165696936   125.54624022   180.71227895
 C     21   2   1     1.444597277957   119.35979521   119.18856160
 C     24  21   2     1.537642097059   110.98659588   280.82622539
 C     25  24  21     1.509291249552   114.25638214    63.91591774
 C     24  21   2     1.519370795293   104.75704558   158.69882345
 O     27  24  21     1.426493312720   112.80854263    60.66080389
 C     26  25  24     1.395632981792   119.25049575   228.77063320
 C     29  26  25     1.386612501969   120.58238122   180.33633240
 C     30  29  26     1.400914151115   119.59346214     0.14364685
 C     31  30  29     1.382946471008   120.09788636     1.44615703
 C     32  31  30     1.390388732808   119.91373330   358.27614716
 C     20   1   2     1.424493914109   117.76413263   181.51690079
 C     19   3   2     1.425543812418   118.31193465   176.54894739
 C     23  13  12     1.426791372998   118.23074090     2.40076218
 O     25  24  21     1.439605613210   109.31075518   188.94189575
 O     17   8   7     1.429932961178   112.96746631   171.04834872
 O     18   9   8     1.430700184436   114.69346585    58.49649432
 O     30  29  26     1.361447345426   125.83713756   180.60756576
 O     31  30  29     1.369357993080   120.02264057   181.21456014
 C     40  30  29     1.427614887436   118.42798200   353.57007158
 H      4   3   2     1.079888532312   120.33816355   181.23454190
 H      6   1   2     1.079820733316   120.28066003   178.57542534
 H      7   5   4     1.092492674665   109.81930771   342.31135834
 H      7   5   4     1.092334686362   108.62461378   225.87102947
 H      8   7   5     1.094217889856   106.82341470    41.52155501
 H      9   8   7     1.094649913959   106.89388603   163.47404933
 H     10   9   8     1.095305318548   108.09129776   179.01963214
 H     10   9   8     1.093233722005   109.61867871    63.71912804
 H     12  11  10     1.080678868195   119.59252009     1.27750396
 H     15  14  13     1.082720388005   119.03319185   181.24972402
 H     16  11  10     1.083167235692   119.60642612   358.21508899
 H     17   8   7     1.089032371991   110.51748198   290.02627925
 H     17   8   7     1.094192472186   109.09567472    48.44981919
 H     18   9   8     1.096262410024   108.59153417   181.78580024
 H     18   9   8     1.091388950439   110.77270539   299.29984317
 H     22  14  13     0.968976529720   108.38767035     1.21547254
 H     24  21   2     1.091066570897   110.08438768    42.86241042
 H     25  24  21     1.089632165854   107.90690721   302.63308427
 H     27  24  21     1.095024615105   108.30636145   297.93007639
 H     27  24  21     1.087888377306   109.59773758   179.49238705
 H     28  27  24     0.966197217423   107.57707226   301.38697873
 H     29  26  25     1.080472249563   119.30463614     1.73552295
 H     32  31  30     1.082009621954   119.20793072   179.06695446
 H     33  32  31     1.082415899978   118.74921174   181.47160453
 H     34  20   1     1.087304101626   105.92363281   177.40193851
 H     34  20   1     1.093073529451   111.13432609   296.42009290
 H     34  20   1     1.091390355029   111.23982860    58.30531692
 H     35  19   3     1.092483108414   111.06961758   300.56484212
 H     35  19   3     1.092682195176   111.19488195    62.73744218
 H     35  19   3     1.087328299686   105.81733661   181.62387480
 H     36  23  13     1.086977352859   105.99852862   178.34911023
 H     36  23  13     1.092445092180   110.86758541   297.38887517
 H     36  23  13     1.092403080843   110.78589094    59.27128780
 H     37  25  24     0.966317170283   108.39222295   283.09315453
 H     38  17   8     0.971186424803   108.20255632   297.70575933
 H     39  18   9     0.965351904090   108.27620178    61.14482769
 H     41  31  30     0.969985223679   108.87808861     2.75970053
 H     42  40  30     1.091317677602   111.00567146    63.43031642
 H     42  40  30     1.085337905333   105.64072657   182.28730164
 H     42  40  30     1.092540414452   110.53679025   301.67623994

---------------------------
INTERNAL COORDINATES (A.U.)
---------------------------
 C      0   0   0     0.000000000000     0.00000000     0.00000000
 C      1   0   0     2.645261836720     0.00000000     0.00000000
 C      2   1   0     2.641183207400   119.23769905     0.00000000
 C      3   2   1     2.636009347744   120.24166478   356.95169295
 C      4   3   2     2.628098872732   120.27794963     1.19882774
 C      1   2   3     2.630088906986   120.14069483     2.73151795
 C      5   4   3     2.849060078632   121.11147278   182.08527933
 C      7   5   4     2.916620035778   112.85343923   105.15771426
 C      8   7   5     2.916518395868   113.44902683   158.33522333
 C      9   8   7     2.913560935381   111.53440420   280.74719059
 C     10   9   8     2.850913816610   114.81211047   301.04666023
 C     11  10   9     2.646302251385   120.37175777   304.11484457
 C     12  11  10     2.619057631014   120.69222342   181.27852238
 C     13  12  11     2.653627277913   120.13888265     0.88037892
 C     14  13  12     2.610613826049   119.45629701   358.37186402
 C     11  10   9     2.626150218781   121.15341864   124.89603912
 C      8   7   5     2.890818251864   110.70883033   286.61720151
 C      9   8   7     2.889531035218   115.33546788    44.64717640
 O      3   2   1     2.573827021930   115.81518191   177.43824538
 O      1   2   3     2.566804099720   115.91350415   182.46958309
 O      2   1   3     2.593702550296   118.80200963   176.16379894
 O     14  13  12     2.579878791297   120.22887158   178.60261538
 O     13  12  11     2.581679020767   125.54624022   180.71227895
 C     21   2   1     2.729893229146   119.35979521   119.18856160
 C     24  21   2     2.905722455430   110.98659588   280.82622539
 C     25  24  21     2.852147117976   114.25638214    63.91591774
 C     24  21   2     2.871194698982   104.75704558   158.69882345
 O     27  24  21     2.695681692910   112.80854263    60.66080389
 C     26  25  24     2.637364119055   119.25049575   228.77063320
 C     29  26  25     2.620317882592   120.58238122   180.33633240
 C     30  29  26     2.647344082742   119.59346214     0.14364685
 C     31  30  29     2.613390088078   120.09788636     1.44615703
 C     32  31  30     2.627453924697   119.91373330   358.27614716
 C     20   1   2     2.691903377104   117.76413263   181.51690079
 C     19   3   2     2.693887397376   118.31193465   176.54894739
 C     23  13  12     2.696244945207   118.23074090     2.40076218
 O     25  24  21     2.720460349822   109.31075518   188.94189575
 O     17   8   7     2.702181686494   112.96746631   171.04834872
 O     18   9   8     2.703631528336   114.69346585    58.49649432
 O     30  29  26     2.572762628609   125.83713756   180.60756576
 O     31  30  29     2.587711586217   120.02264057   181.21456014
 C     40  30  29     2.697801161962   118.42798200   353.57007158
 H      4   3   2     2.040693581232   120.33816355   181.23454190
 H      6   1   2     2.040565459698   120.28066003   178.57542534
 H      7   5   4     2.064511958432   109.81930771   342.31135834
 H      7   5   4     2.064213403807   108.62461378   225.87102947
 H      8   7   5     2.067772142666   106.82341470    41.52155501
 H      9   8   7     2.068588549902   106.89388603   163.47404933
 H     10   9   8     2.069827085083   108.09129776   179.01963214
 H     10   9   8     2.065912334957   109.61867871    63.71912804
 H     12  11  10     2.042187099605   119.59252009     1.27750396
 H     15  14  13     2.046045012942   119.03319185   181.24972402
 H     16  11  10     2.046889432694   119.60642612   358.21508899
 H     17   8   7     2.057972934037   110.51748198   290.02627925
 H     17   8   7     2.067724110230   109.09567472    48.44981919
 H     18   9   8     2.071635725858   108.59153417   181.78580024
 H     18   9   8     2.062426221917   110.77270539   299.29984317
 H     22  14  13     1.831100271369   108.38767035     1.21547254
 H     24  21   2     2.061817012872   110.08438768    42.86241042
 H     25  24  21     2.059106380175   107.90690721   302.63308427
 H     27  24  21     2.069296632450   108.30636145   297.93007639
 H     27  24  21     2.055811097385   109.59773758   179.49238705
 H     28  27  24     1.825848132287   107.57707226   301.38697873
 H     29  26  25     2.041796646976   119.30463614     1.73552295
 H     32  31  30     2.044701859760   119.20793072   179.06695446
 H     33  32  31     2.045469613960   118.74921174   181.47160453
 H     34  20   1     2.054706976362   105.92363281   177.40193851
 H     34  20   1     2.065609614902   111.13432609   296.42009290
 H     34  20   1     2.062428876207   111.23982860    58.30531692
 H     35  19   3     2.064493880838   111.06961758   300.56484212
 H     35  19   3     2.064870100295   111.19488195    62.73744218
 H     35  19   3     2.054752704069   105.81733661   181.62387480
 H     36  23  13     2.054089510678   105.99852862   178.34911023
 H     36  23  13     2.064422040566   110.86758541   297.38887517
 H     36  23  13     2.064342650645   110.78589094    59.27128780
 H     37  25  24     1.826074810341   108.39222295   283.09315453
 H     38  17   8     1.835276367859   108.20255632   297.70575933
 H     39  18   9     1.824250721590   108.27620178    61.14482769
 H     41  31  30     1.833006426703   108.87808861     2.75970053
 H     42  40  30     2.062291535775   111.00567146    63.43031642
 H     42  40  30     2.050991403843   105.64072657   182.28730164
 H     42  40  30     2.064602173555   110.53679025   301.67623994

---------------------
BASIS SET INFORMATION
---------------------
There are 3 groups of distinct atoms

 Group   1 Type C   : 11s7p2d1f contracted to 4s5p2d1f pattern {7211/31111/11/1}
 Group   2 Type O   : 11s7p2d1f contracted to 4s5p2d1f pattern {7211/31111/11/1}
 Group   3 Type H   : 6s3p1d contracted to 3s2p1d pattern {411/21/1}

Atom   0C    basis set group =>   1
Atom   1C    basis set group =>   1
Atom   2C    basis set group =>   1
Atom   3C    basis set group =>   1
Atom   4C    basis set group =>   1
Atom   5C    basis set group =>   1
Atom   6C    basis set group =>   1
Atom   7C    basis set group =>   1
Atom   8C    basis set group =>   1
Atom   9C    basis set group =>   1
Atom  10C    basis set group =>   1
Atom  11C    basis set group =>   1
Atom  12C    basis set group =>   1
Atom  13C    basis set group =>   1
Atom  14C    basis set group =>   1
Atom  15C    basis set group =>   1
Atom  16C    basis set group =>   1
Atom  17C    basis set group =>   1
Atom  18O    basis set group =>   2
Atom  19O    basis set group =>   2
Atom  20O    basis set group =>   2
Atom  21O    basis set group =>   2
Atom  22O    basis set group =>   2
Atom  23C    basis set group =>   1
Atom  24C    basis set group =>   1
Atom  25C    basis set group =>   1
Atom  26C    basis set group =>   1
Atom  27O    basis set group =>   2
Atom  28C    basis set group =>   1
Atom  29C    basis set group =>   1
Atom  30C    basis set group =>   1
Atom  31C    basis set group =>   1
Atom  32C    basis set group =>   1
Atom  33C    basis set group =>   1
Atom  34C    basis set group =>   1
Atom  35C    basis set group =>   1
Atom  36O    basis set group =>   2
Atom  37O    basis set group =>   2
Atom  38O    basis set group =>   2
Atom  39O    basis set group =>   2
Atom  40O    basis set group =>   2
Atom  41C    basis set group =>   1
Atom  42H    basis set group =>   3
Atom  43H    basis set group =>   3
Atom  44H    basis set group =>   3
Atom  45H    basis set group =>   3
Atom  46H    basis set group =>   3
Atom  47H    basis set group =>   3
Atom  48H    basis set group =>   3
Atom  49H    basis set group =>   3
Atom  50H    basis set group =>   3
Atom  51H    basis set group =>   3
Atom  52H    basis set group =>   3
Atom  53H    basis set group =>   3
Atom  54H    basis set group =>   3
Atom  55H    basis set group =>   3
Atom  56H    basis set group =>   3
Atom  57H    basis set group =>   3
Atom  58H    basis set group =>   3
Atom  59H    basis set group =>   3
Atom  60H    basis set group =>   3
Atom  61H    basis set group =>   3
Atom  62H    basis set group =>   3
Atom  63H    basis set group =>   3
Atom  64H    basis set group =>   3
Atom  65H    basis set group =>   3
Atom  66H    basis set group =>   3
Atom  67H    basis set group =>   3
Atom  68H    basis set group =>   3
Atom  69H    basis set group =>   3
Atom  70H    basis set group =>   3
Atom  71H    basis set group =>   3
Atom  72H    basis set group =>   3
Atom  73H    basis set group =>   3
Atom  74H    basis set group =>   3
Atom  75H    basis set group =>   3
Atom  76H    basis set group =>   3
Atom  77H    basis set group =>   3
Atom  78H    basis set group =>   3
Atom  79H    basis set group =>   3
Atom  80H    basis set group =>   3
Atom  81H    basis set group =>   3
---------------------------------
AUXILIARY/J BASIS SET INFORMATION
---------------------------------
There are 3 groups of distinct atoms

 Group   1 Type C   : 15s13p12d5f5g contracted to 15s13p12d5f5g pattern {111111111111111/1111111111111/111111111111/11111/11111}
 Group   2 Type O   : 15s13p12d5f5g contracted to 15s13p12d5f5g pattern {111111111111111/1111111111111/111111111111/11111/11111}
 Group   3 Type H   : 12s4p3d2f contracted to 12s4p3d2f pattern {111111111111/1111/111/11}

Atom   0C    basis set group =>   1
Atom   1C    basis set group =>   1
Atom   2C    basis set group =>   1
Atom   3C    basis set group =>   1
Atom   4C    basis set group =>   1
Atom   5C    basis set group =>   1
Atom   6C    basis set group =>   1
Atom   7C    basis set group =>   1
Atom   8C    basis set group =>   1
Atom   9C    basis set group =>   1
Atom  10C    basis set group =>   1
Atom  11C    basis set group =>   1
Atom  12C    basis set group =>   1
Atom  13C    basis set group =>   1
Atom  14C    basis set group =>   1
Atom  15C    basis set group =>   1
Atom  16C    basis set group =>   1
Atom  17C    basis set group =>   1
Atom  18O    basis set group =>   2
Atom  19O    basis set group =>   2
Atom  20O    basis set group =>   2
Atom  21O    basis set group =>   2
Atom  22O    basis set group =>   2
Atom  23C    basis set group =>   1
Atom  24C    basis set group =>   1
Atom  25C    basis set group =>   1
Atom  26C    basis set group =>   1
Atom  27O    basis set group =>   2
Atom  28C    basis set group =>   1
Atom  29C    basis set group =>   1
Atom  30C    basis set group =>   1
Atom  31C    basis set group =>   1
Atom  32C    basis set group =>   1
Atom  33C    basis set group =>   1
Atom  34C    basis set group =>   1
Atom  35C    basis set group =>   1
Atom  36O    basis set group =>   2
Atom  37O    basis set group =>   2
Atom  38O    basis set group =>   2
Atom  39O    basis set group =>   2
Atom  40O    basis set group =>   2
Atom  41C    basis set group =>   1
Atom  42H    basis set group =>   3
Atom  43H    basis set group =>   3
Atom  44H    basis set group =>   3
Atom  45H    basis set group =>   3
Atom  46H    basis set group =>   3
Atom  47H    basis set group =>   3
Atom  48H    basis set group =>   3
Atom  49H    basis set group =>   3
Atom  50H    basis set group =>   3
Atom  51H    basis set group =>   3
Atom  52H    basis set group =>   3
Atom  53H    basis set group =>   3
Atom  54H    basis set group =>   3
Atom  55H    basis set group =>   3
Atom  56H    basis set group =>   3
Atom  57H    basis set group =>   3
Atom  58H    basis set group =>   3
Atom  59H    basis set group =>   3
Atom  60H    basis set group =>   3
Atom  61H    basis set group =>   3
Atom  62H    basis set group =>   3
Atom  63H    basis set group =>   3
Atom  64H    basis set group =>   3
Atom  65H    basis set group =>   3
Atom  66H    basis set group =>   3
Atom  67H    basis set group =>   3
Atom  68H    basis set group =>   3
Atom  69H    basis set group =>   3
Atom  70H    basis set group =>   3
Atom  71H    basis set group =>   3
Atom  72H    basis set group =>   3
Atom  73H    basis set group =>   3
Atom  74H    basis set group =>   3
Atom  75H    basis set group =>   3
Atom  76H    basis set group =>   3
Atom  77H    basis set group =>   3
Atom  78H    basis set group =>   3
Atom  79H    basis set group =>   3
Atom  80H    basis set group =>   3
Atom  81H    basis set group =>   3
---------------------------------
AUXILIARY/C BASIS SET INFORMATION
---------------------------------
There are 3 groups of distinct atoms

 Group   1 Type C   : 15s13p12d5f5g contracted to 15s13p12d5f5g pattern {111111111111111/1111111111111/111111111111/11111/11111}
 Group   2 Type O   : 15s13p12d5f5g contracted to 15s13p12d5f5g pattern {111111111111111/1111111111111/111111111111/11111/11111}
 Group   3 Type H   : 12s4p3d2f contracted to 12s4p3d2f pattern {111111111111/1111/111/11}

Atom   0C    basis set group =>   1
Atom   1C    basis set group =>   1
Atom   2C    basis set group =>   1
Atom   3C    basis set group =>   1
Atom   4C    basis set group =>   1
Atom   5C    basis set group =>   1
Atom   6C    basis set group =>   1
Atom   7C    basis set group =>   1
Atom   8C    basis set group =>   1
Atom   9C    basis set group =>   1
Atom  10C    basis set group =>   1
Atom  11C    basis set group =>   1
Atom  12C    basis set group =>   1
Atom  13C    basis set group =>   1
Atom  14C    basis set group =>   1
Atom  15C    basis set group =>   1
Atom  16C    basis set group =>   1
Atom  17C    basis set group =>   1
Atom  18O    basis set group =>   2
Atom  19O    basis set group =>   2
Atom  20O    basis set group =>   2
Atom  21O    basis set group =>   2
Atom  22O    basis set group =>   2
Atom  23C    basis set group =>   1
Atom  24C    basis set group =>   1
Atom  25C    basis set group =>   1
Atom  26C    basis set group =>   1
Atom  27O    basis set group =>   2
Atom  28C    basis set group =>   1
Atom  29C    basis set group =>   1
Atom  30C    basis set group =>   1
Atom  31C    basis set group =>   1
Atom  32C    basis set group =>   1
Atom  33C    basis set group =>   1
Atom  34C    basis set group =>   1
Atom  35C    basis set group =>   1
Atom  36O    basis set group =>   2
Atom  37O    basis set group =>   2
Atom  38O    basis set group =>   2
Atom  39O    basis set group =>   2
Atom  40O    basis set group =>   2
Atom  41C    basis set group =>   1
Atom  42H    basis set group =>   3
Atom  43H    basis set group =>   3
Atom  44H    basis set group =>   3
Atom  45H    basis set group =>   3
Atom  46H    basis set group =>   3
Atom  47H    basis set group =>   3
Atom  48H    basis set group =>   3
Atom  49H    basis set group =>   3
Atom  50H    basis set group =>   3
Atom  51H    basis set group =>   3
Atom  52H    basis set group =>   3
Atom  53H    basis set group =>   3
Atom  54H    basis set group =>   3
Atom  55H    basis set group =>   3
Atom  56H    basis set group =>   3
Atom  57H    basis set group =>   3
Atom  58H    basis set group =>   3
Atom  59H    basis set group =>   3
Atom  60H    basis set group =>   3
Atom  61H    basis set group =>   3
Atom  62H    basis set group =>   3
Atom  63H    basis set group =>   3
Atom  64H    basis set group =>   3
Atom  65H    basis set group =>   3
Atom  66H    basis set group =>   3
Atom  67H    basis set group =>   3
Atom  68H    basis set group =>   3
Atom  69H    basis set group =>   3
Atom  70H    basis set group =>   3
Atom  71H    basis set group =>   3
Atom  72H    basis set group =>   3
Atom  73H    basis set group =>   3
Atom  74H    basis set group =>   3
Atom  75H    basis set group =>   3
Atom  76H    basis set group =>   3
Atom  77H    basis set group =>   3
Atom  78H    basis set group =>   3
Atom  79H    basis set group =>   3
Atom  80H    basis set group =>   3
Atom  81H    basis set group =>   3
----------------------------------
AUXILIARY/JK BASIS SET INFORMATION
----------------------------------
There are 3 groups of distinct atoms

 Group   1 Type C   : 15s13p12d5f5g contracted to 15s13p12d5f5g pattern {111111111111111/1111111111111/111111111111/11111/11111}
 Group   2 Type O   : 15s13p12d5f5g contracted to 15s13p12d5f5g pattern {111111111111111/1111111111111/111111111111/11111/11111}
 Group   3 Type H   : 12s4p3d2f contracted to 12s4p3d2f pattern {111111111111/1111/111/11}

Atom   0C    basis set group =>   1
Atom   1C    basis set group =>   1
Atom   2C    basis set group =>   1
Atom   3C    basis set group =>   1
Atom   4C    basis set group =>   1
Atom   5C    basis set group =>   1
Atom   6C    basis set group =>   1
Atom   7C    basis set group =>   1
Atom   8C    basis set group =>   1
Atom   9C    basis set group =>   1
Atom  10C    basis set group =>   1
Atom  11C    basis set group =>   1
Atom  12C    basis set group =>   1
Atom  13C    basis set group =>   1
Atom  14C    basis set group =>   1
Atom  15C    basis set group =>   1
Atom  16C    basis set group =>   1
Atom  17C    basis set group =>   1
Atom  18O    basis set group =>   2
Atom  19O    basis set group =>   2
Atom  20O    basis set group =>   2
Atom  21O    basis set group =>   2
Atom  22O    basis set group =>   2
Atom  23C    basis set group =>   1
Atom  24C    basis set group =>   1
Atom  25C    basis set group =>   1
Atom  26C    basis set group =>   1
Atom  27O    basis set group =>   2
Atom  28C    basis set group =>   1
Atom  29C    basis set group =>   1
Atom  30C    basis set group =>   1
Atom  31C    basis set group =>   1
Atom  32C    basis set group =>   1
Atom  33C    basis set group =>   1
Atom  34C    basis set group =>   1
Atom  35C    basis set group =>   1
Atom  36O    basis set group =>   2
Atom  37O    basis set group =>   2
Atom  38O    basis set group =>   2
Atom  39O    basis set group =>   2
Atom  40O    basis set group =>   2
Atom  41C    basis set group =>   1
Atom  42H    basis set group =>   3
Atom  43H    basis set group =>   3
Atom  44H    basis set group =>   3
Atom  45H    basis set group =>   3
Atom  46H    basis set group =>   3
Atom  47H    basis set group =>   3
Atom  48H    basis set group =>   3
Atom  49H    basis set group =>   3
Atom  50H    basis set group =>   3
Atom  51H    basis set group =>   3
Atom  52H    basis set group =>   3
Atom  53H    basis set group =>   3
Atom  54H    basis set group =>   3
Atom  55H    basis set group =>   3
Atom  56H    basis set group =>   3
Atom  57H    basis set group =>   3
Atom  58H    basis set group =>   3
Atom  59H    basis set group =>   3
Atom  60H    basis set group =>   3
Atom  61H    basis set group =>   3
Atom  62H    basis set group =>   3
Atom  63H    basis set group =>   3
Atom  64H    basis set group =>   3
Atom  65H    basis set group =>   3
Atom  66H    basis set group =>   3
Atom  67H    basis set group =>   3
Atom  68H    basis set group =>   3
Atom  69H    basis set group =>   3
Atom  70H    basis set group =>   3
Atom  71H    basis set group =>   3
Atom  72H    basis set group =>   3
Atom  73H    basis set group =>   3
Atom  74H    basis set group =>   3
Atom  75H    basis set group =>   3
Atom  76H    basis set group =>   3
Atom  77H    basis set group =>   3
Atom  78H    basis set group =>   3
Atom  79H    basis set group =>   3
Atom  80H    basis set group =>   3
Atom  81H    basis set group =>   3
---------------------------------
AUXILIARY/X BASIS SET INFORMATION
---------------------------------
There are 3 groups of distinct atoms

 Group   1 Type C   : 15s13p12d5f5g contracted to 15s13p12d5f5g pattern {111111111111111/1111111111111/111111111111/11111/11111}
 Group   2 Type O   : 15s13p12d5f5g contracted to 15s13p12d5f5g pattern {111111111111111/1111111111111/111111111111/11111/11111}
 Group   3 Type H   : 12s4p3d2f contracted to 12s4p3d2f pattern {111111111111/1111/111/11}

Atom   0C    basis set group =>   1
Atom   1C    basis set group =>   1
Atom   2C    basis set group =>   1
Atom   3C    basis set group =>   1
Atom   4C    basis set group =>   1
Atom   5C    basis set group =>   1
Atom   6C    basis set group =>   1
Atom   7C    basis set group =>   1
Atom   8C    basis set group =>   1
Atom   9C    basis set group =>   1
Atom  10C    basis set group =>   1
Atom  11C    basis set group =>   1
Atom  12C    basis set group =>   1
Atom  13C    basis set group =>   1
Atom  14C    basis set group =>   1
Atom  15C    basis set group =>   1
Atom  16C    basis set group =>   1
Atom  17C    basis set group =>   1
Atom  18O    basis set group =>   2
Atom  19O    basis set group =>   2
Atom  20O    basis set group =>   2
Atom  21O    basis set group =>   2
Atom  22O    basis set group =>   2
Atom  23C    basis set group =>   1
Atom  24C    basis set group =>   1
Atom  25C    basis set group =>   1
Atom  26C    basis set group =>   1
Atom  27O    basis set group =>   2
Atom  28C    basis set group =>   1
Atom  29C    basis set group =>   1
Atom  30C    basis set group =>   1
Atom  31C    basis set group =>   1
Atom  32C    basis set group =>   1
Atom  33C    basis set group =>   1
Atom  34C    basis set group =>   1
Atom  35C    basis set group =>   1
Atom  36O    basis set group =>   2
Atom  37O    basis set group =>   2
Atom  38O    basis set group =>   2
Atom  39O    basis set group =>   2
Atom  40O    basis set group =>   2
Atom  41C    basis set group =>   1
Atom  42H    basis set group =>   3
Atom  43H    basis set group =>   3
Atom  44H    basis set group =>   3
Atom  45H    basis set group =>   3
Atom  46H    basis set group =>   3
Atom  47H    basis set group =>   3
Atom  48H    basis set group =>   3
Atom  49H    basis set group =>   3
Atom  50H    basis set group =>   3
Atom  51H    basis set group =>   3
Atom  52H    basis set group =>   3
Atom  53H    basis set group =>   3
Atom  54H    basis set group =>   3
Atom  55H    basis set group =>   3
Atom  56H    basis set group =>   3
Atom  57H    basis set group =>   3
Atom  58H    basis set group =>   3
Atom  59H    basis set group =>   3
Atom  60H    basis set group =>   3
Atom  61H    basis set group =>   3
Atom  62H    basis set group =>   3
Atom  63H    basis set group =>   3
Atom  64H    basis set group =>   3
Atom  65H    basis set group =>   3
Atom  66H    basis set group =>   3
Atom  67H    basis set group =>   3
Atom  68H    basis set group =>   3
Atom  69H    basis set group =>   3
Atom  70H    basis set group =>   3
Atom  71H    basis set group =>   3
Atom  72H    basis set group =>   3
Atom  73H    basis set group =>   3
Atom  74H    basis set group =>   3
Atom  75H    basis set group =>   3
Atom  76H    basis set group =>   3
Atom  77H    basis set group =>   3
Atom  78H    basis set group =>   3
Atom  79H    basis set group =>   3
Atom  80H    basis set group =>   3
Atom  81H    basis set group =>   3
--------------------------------------------------------------------------
WARNING: There is at least one non-excluded one OpenFabrics device found,
but there are no active ports detected (or Open MPI was unable to use
them).  This is most certainly not what you wanted.  Check your
cables, subnet manager configuration, etc.  The openib BTL will be
ignored for this job.

  Local host: c02b01n06
--------------------------------------------------------------------------
--------------------------------------------------------------------------
WARNING: There was an error initializing an OpenFabrics device.

  Local host:   c02b01n06
  Local device: mlx5_0
--------------------------------------------------------------------------
[c02b01n06:2443677] 7 more processes have sent help message help-mpi-btl-openib.txt / no active ports found
[c02b01n06:2443677] Set MCA parameter "orte_base_help_aggregate" to 0 to see all help / error messages
[c02b01n06:2443677] 51 more processes have sent help message help-mpi-btl-openib.txt / error in device init


           ************************************************************
           *        Program running with 60 parallel MPI-processes    *
           *              working on a common directory               *
           ************************************************************
------------------------------------------------------------------------------
                             ORCA STARTUP CALCULATIONS
                           -- RI-GTO INTEGRALS CHOSEN --
------------------------------------------------------------------------------
------------------------------------------------------------------------------
                   ___                                                        
                  /   \      - P O W E R E D   B Y -                         
                 /     \                                                     
                 |  |  |   _    _      __       _____    __    __             
                 |  |  |  | |  | |    /  \     |  _  \  |  |  /  |          
                  \  \/   | |  | |   /    \    | | | |  |  | /  /          
                 / \  \   | |__| |  /  /\  \   | |_| |  |  |/  /          
                |  |  |   |  __  | /  /__\  \  |    /   |      \           
                |  |  |   | |  | | |   __   |  |    \   |  |\   \          
                \     /   | |  | | |  |  |  |  | |\  \  |  | \   \       
                 \___/    |_|  |_| |__|  |__|  |_| \__\ |__|  \__/        
                                                                              
                      - O R C A' S   B I G   F R I E N D -                    
                                      &                                       
                       - I N T E G R A L  F E E D E R -                       
                                                                              
 v1 FN, 2020, v2 2021, v3 2022-2024                                           
------------------------------------------------------------------------------


----------------------
SHARK INTEGRAL PACKAGE
----------------------

Number of atoms                             ...     82
Number of basis functions                   ...   2072
Number of shells                            ...    744
Maximum angular momentum                    ...      3
Integral batch strategy                     ... SHARK/LIBINT Hybrid
RI-J (if used) integral strategy            ... SPLIT-RIJ (Revised 2003 algorithm where possible)
Printlevel                                  ...      1
Contraction scheme used                     ... SEGMENTED contraction
Prescreening option                         ... SCHWARTZ
   Thresh                                   ... 1.000e-10
   Tcut                                     ... 1.000e-11
   Tpresel                                  ... 1.000e-11 
Coulomb Range Separation                    ... NOT USED
Exchange Range Separation                   ... NOT USED
Multipole approximations                    ... NOT USED
Finite Nucleus Model                        ... NOT USED
CABS basis                                  ... NOT available
Auxiliary Coulomb fitting basis             ... AVAILABLE
   # of basis functions in Aux-J            ...  10268
   # of shells in Aux-J                     ...   2940
   Maximum angular momentum in Aux-J        ...      4
Auxiliary J/K fitting basis                 ... AVAILABLE
   # of basis functions in Aux-JK           ...  10268
   # of shells in Aux-JK                    ...   2940
   Maximum angular momentum in Aux-JK       ...      4
Auxiliary Correlation fitting basis         ... AVAILABLE
   # of basis functions in Aux-C            ...  10268
   # of shells in Aux-C                     ...   2940
   Maximum angular momentum in Aux-C        ...      4
Auxiliary 'external' fitting basis          ... NOT available

Checking pre-screening integrals            ... done (  0.0 sec) Dimension = 744
   => SHARK Basis and OBASIS are compatible. Storing Pre-screening
Shell pair information
Shell pair cut-off parameter TPreSel        ...   1.0e-11
Total number of shell pairs                 ...    277140
Shell pairs after pre-screening             ...    149525
Total number of primitive shell pairs       ...    823733
Primitive shell pairs kept                  ...    273686
          la=0 lb=0:  28461 shell pairs
          la=1 lb=0:  49679 shell pairs
          la=1 lb=1:  20307 shell pairs
          la=2 lb=0:  19579 shell pairs
          la=2 lb=1:  14850 shell pairs
          la=2 lb=2:   2637 shell pairs
          la=3 lb=0:   6772 shell pairs
          la=3 lb=1:   5112 shell pairs
          la=3 lb=2:   1792 shell pairs
          la=3 lb=3:    336 shell pairs

Checking whether 4 symmetric matrices of dimension 2072 fit in memory
:Max Core in MB      =   5000.00
 MB in use           =    184.72
 MB left             =   4815.28
 MB needed           =     65.54
 Data fit in memory  = YES
Calculating RI/J V-Matrix + Cholesky decomp.... done (  6.2 sec)
Calculating RI/JK V-Matrix + Cholesky decomp.... done (  4.2 sec)
Calculating RI/C V-Matrix + Cholesky decomp.... done (  4.0 sec)
Calculating Nuclear repulsion               ... done (  0.0 sec) ENN=   5680.731905621563 Eh

Diagonalization of the overlap matrix:
Smallest eigenvalue                        ... 7.337e-06
Time for diagonalization                   ...    3.538 sec
Threshold for overlap eigenvalues          ... 1.000e-07
Number of eigenvalues below threshold      ... 0
Time for construction of square roots      ...    0.413 sec
Total time needed                          ...    4.003 sec

-------------------
DFT GRID GENERATION
-------------------

General Integration Accuracy     IntAcc      ... 4.388
Radial Grid Type                 RadialGrid  ... OptM3 with GC (2021)
Angular Grid (max. ang.)         AngularGrid ... 4 (Lebedev-302)
Angular grid pruning method      GridPruning ... 4 (adaptive)
Weight generation scheme         WeightScheme... mBecke (2022)
Basis function cutoff            BFCut       ... 1.0000e-10
Integration weight cutoff        WCut        ... 1.0000e-14
Partially contracted basis set               ... off
Rotationally invariant grid construction     ... off
Angular grids for H and He will be reduced by one unit
Diffuse basis detected: some atoms will have their outermost
                        angular grid increased by 1.

Total number of grid points                  ...   376853
Total number of batches                      ...     5932
Average number of points per batch           ...       63
Average number of grid points per atom       ...     4596
Grids setup in   3.5 sec
Initializing property integral containers    ... done (  0.2 sec)

SHARK setup successfully completed in  31.7 seconds

Maximum memory used throughout the entire STARTUP-calculation: 256.7 MB
--------------------------------------------------------------------------
WARNING: There was an error initializing an OpenFabrics device.

  Local host:   c02b01n06
  Local device: mlx5_0
--------------------------------------------------------------------------
--------------------------------------------------------------------------
WARNING: There is at least one non-excluded one OpenFabrics device found,
but there are no active ports detected (or Open MPI was unable to use
them).  This is most certainly not what you wanted.  Check your
cables, subnet manager configuration, etc.  The openib BTL will be
ignored for this job.

  Local host: c02b01n06
--------------------------------------------------------------------------


           ************************************************************
           *        Program running with 60 parallel MPI-processes    *
           *              working on a common directory               *
           ************************************************************
-------------------------------------------------------------------------------
                                 ORCA GUESS
                   Start orbitals & Density for SCF / CASSCF
-------------------------------------------------------------------------------

------------
SCF SETTINGS
------------
Hamiltonian:
 Density Functional     Method          .... DFT(GTOs)
 Exchange Functional    Exchange        .... TPSS
 Correlation Functional Correlation     .... TPSS
 LDA part of GGA corr.  LDAOpt          .... PW91-LDA
 Gradients option       PostSCFGGA      .... off
   NL short-range parameter             ....  5.000000
 RI-approximation to the Coulomb term is turned on
   Number of AuxJ basis functions       .... 10268


General Settings:
 Integral files         IntName         .... nmr-conf-0
 Hartree-Fock type      HFTyp           .... RHF
 Total Charge           Charge          ....    0
 Multiplicity           Mult            ....    1
 Number of Electrons    NEL             ....  314
 Basis Dimension        Dim             .... 2072
 Nuclear Repulsion      ENuc            ....   5680.7319056216 Eh

Convergence Acceleration:
 AO-DIIS                CNVDIIS         .... on
   Start iteration      DIISMaxIt       ....    12
   Startup error        DIISStart       ....  0.200000
   # of expansion vecs  DIISMaxEq       ....     5
   Bias factor          DIISBfac        ....   1.050
   Max. coefficient     DIISMaxC        ....  10.000
 MO-DIIS                CNVKDIIS        .... off
 Trust-Rad. Augm. Hess. CNVTRAH         .... auto
   Auto Start mean grad. ratio tolernc. ....  1.125000
   Auto Start start iteration           ....    50
   Auto Start num. interpolation iter.  ....    10
   Max. Number of Micro iterations      ....    24
   Max. Number of Macro iterations      .... Maxiter - #DIIS iter
   Number of Davidson start vectors     ....     2
   Converg. threshold    (grad. norm)   ....   5.000e-05
   Grad. Scal. Fac. for Micro threshold ....   0.100
   Minimum threshold for Micro iter.    ....   1.000e-02
   NR start threshold (gradient norm)   ....   1.000e-04
   Initial trust radius                 ....   0.400
   Minimum AH scaling param. (alpha)    ....   1.000
   Maximum AH scaling param. (alpha)    .... 1000.000
   Quad. conv. algorithm                .... NR
   White noise on init. David. guess    .... on
   Maximum white noise                  ....   0.010
   Pseudo random numbers                .... off
   Inactive MOs                         .... canonical
   Orbital update algorithm             .... Taylor
   Preconditioner                       .... Diag
   Full preconditioner red. dimension   ....   250
 SOSCF                 CNVSOSCF           .... on
   Start iteration     SOSCFMaxIt         ....   150
   Startup grad/error  SOSCFStart         ....  0.003300
   Hessian update      SOSCFHessUp        .... L-BFGS
   Autom. constraints  SOSCFAutoConstrain .... off
 Level Shifting         CNVShift        .... on
   Level shift para.    LevelShift      ....    0.2500
   Turn off err/grad.   ShiftErr        ....    0.0010
 Zerner damping         CNVZerner       .... off
 Static damping         CNVDamp         .... on
   Fraction old density DampFac         ....    0.7000
   Max. Damping (<1)    DampMax         ....    0.9800
   Min. Damping (>=0)   DampMin         ....    0.0000
   Turn off err/grad.   DampErr         ....    0.1000

SCF Procedure:
 Maximum # iterations   MaxIter         ....   125
 SCF integral mode      SCFMode         .... Direct
   Integral package                     .... SHARK and LIBINT hybrid scheme
 Reset frequency        DirectResetFreq ....    20
 Integral Threshold     Thresh          ....  1.000e-10 Eh
 Primitive CutOff       TCut            ....  1.000e-11 Eh

Convergence Tolerance:
 Convergence Check Mode ConvCheckMode   .... Total+1el-Energy
 Convergence forced     ConvForced      .... 0
 Energy Change          TolE            ....  1.000e-06 Eh
 1-El. energy change                    ....  1.000e-03 Eh
 Orbital Gradient       TolG            ....  5.000e-05
 Orbital Rotation angle TolX            ....  5.000e-05
 DIIS Error             TolErr          ....  1.000e-06

------------------------------
INITIAL GUESS: MODEL POTENTIAL
------------------------------
Loading Hartree-Fock densities                     ... done
Calculating cut-offs                               ... done
Initializing the effective Hamiltonian             ... done
Setting up the integral package (SHARK)            ... done
Starting the Coulomb interaction                   ... done (   1.0 sec)
Making the grid                                    ... done (   0.9 sec)
Mapping shells                                     ... done
Starting the XC term evaluation                    ... done (   0.2 sec)
  promolecular density results
     # of electrons  =    313.985959588
     EX              =   -260.287917544
     EC              =    -10.632993917
     EX+EC           =   -270.920911461
Transforming the Hamiltonian                       ... done (   0.3 sec)
Diagonalizing the Hamiltonian                      ... [c02b01n06:2444081] 57 more processes have sent help message help-mpi-btl-openib.txt / error in device init
[c02b01n06:2444081] Set MCA parameter "orte_base_help_aggregate" to 0 to see all help / error messages
[c02b01n06:2444081] 1 more process has sent help message help-mpi-btl-openib.txt / no active ports found
done (   0.7 sec)
Back transforming the eigenvectors                 ... done (   0.9 sec)
Now organizing SCF variables                       ... done
                      ------------------
                      INITIAL GUESS DONE (   4.7 sec)
                      ------------------
             **** ENERGY FILE WAS UPDATED (nmr-conf-0.en.tmp) ****
Finished Guess after  11.1 sec
Maximum memory used throughout the entire GUESS-calculation: 287.6 MB
--------------------------------------------------------------------------
WARNING: There was an error initializing an OpenFabrics device.

  Local host:   c02b01n06
  Local device: mlx5_0
--------------------------------------------------------------------------
--------------------------------------------------------------------------
WARNING: There is at least one non-excluded one OpenFabrics device found,
but there are no active ports detected (or Open MPI was unable to use
them).  This is most certainly not what you wanted.  Check your
cables, subnet manager configuration, etc.  The openib BTL will be
ignored for this job.

  Local host: c02b01n06
--------------------------------------------------------------------------


           ************************************************************
           *        Program running with 60 parallel MPI-processes    *
           *              working on a common directory               *
           ************************************************************

-------------------------------------------------------------------------------------------
                                      ORCA LEAN-SCF
                              memory conserving SCF solver
-------------------------------------------------------------------------------------------

--------------------
CPCM SOLVATION MODEL
--------------------
CPCM parameters:
  Epsilon                                         ...      33.4280
  Refrac                                          ...       1.3288
  Rsolv                                           ...       1.3000
  Surface type                                    ... GAUSSIAN VDW
  Discretization scheme                           ... Constant charge density
    Threshold for H atoms                         ...       5.0000 (charges/Ang^2)
    Threshold for non-H atoms                     ...       5.0000 (charges/Ang^2)
  Epsilon function type                           ...         CPCM
Solvent:                                          ... METHANOL
Radii:
  Scheme                                          ... Element-dependent radii
  Radius for C  used is    3.8550 Bohr (=   2.0400 Ang.)
  Radius for O  used is    3.4469 Bohr (=   1.8240 Ang.)
  Radius for H  used is    2.4944 Bohr (=   1.3200 Ang.)
Calculating surface                               ...        done! (  0.2s)
Cavity surface points                             ...         6296
Cavity Volume                                     ...    4518.3676
Cavity Surface-area                               ...    2094.1060
Calculating surface distance matrix               ...        done! (  0.2s)
Performing Cholesky decomposition & store         ...        done! (  0.7s)
Overall time for CPCM initialization              ...                 1.2s

----------------------------------------D-I-I-S--------------------------------------------
Iteration    Energy (Eh)           Delta-E    RMSDP     MaxDP     DIISErr   Damp  Time(sec)
-------------------------------------------------------------------------------------------
               ***  Starting incremental Fock matrix formation  ***
[c02b01n06:2444529] 49 more processes have sent help message help-mpi-btl-openib.txt / error in device init
[c02b01n06:2444529] Set MCA parameter "orte_base_help_aggregate" to 0 to see all help / error messages
[c02b01n06:2444529] 9 more processes have sent help message help-mpi-btl-openib.txt / no active ports found
    1    -2033.0131073990532968     0.00e+00  8.14e-03  2.89e-01  2.37e-01  0.700  12.0
    2    -2033.4239474814949062    -4.11e-01  6.62e-03  2.30e-01  8.43e-02  0.700   9.3
                               ***Turning on AO-DIIS***
    3    -2033.5771702439606088    -1.53e-01  2.78e-03  7.40e-02  2.52e-02  0.700   7.3
    4    -2033.6697822376963813    -9.26e-02  4.67e-03  7.66e-02  1.20e-02  0.000   6.9
    5    -2033.8749629287767675    -2.05e-01  1.24e-03  2.65e-02  4.77e-03  0.000   7.4
                              *** Initializing SOSCF ***
---------------------------------------S-O-S-C-F--------------------------------------
Iteration    Energy (Eh)           Delta-E    RMSDP     MaxDP     MaxGrad    Time(sec)
--------------------------------------------------------------------------------------
    6    -2033.8763564786740972    -1.39e-03  3.93e-04  7.38e-03  1.41e-03     8.0
               *** Restarting incremental Fock matrix formation ***
    7    -2033.8764634794533777    -1.07e-04  3.03e-04  4.77e-03  1.29e-04     6.6
    8    -2033.8764400919817490     2.34e-05  7.93e-05  2.03e-03  6.69e-04     5.8
    9    -2033.8764792670099268    -3.92e-05  6.77e-05  1.18e-03  1.24e-04     5.7
   10    -2033.8764787549180255     5.12e-07  1.97e-05  4.75e-04  1.07e-04     5.5
                 **** Energy Check signals convergence ****

               *****************************************************
               *                     SUCCESS                       *
               *           SCF CONVERGED AFTER  10 CYCLES          *
               *****************************************************

             **** ENERGY FILE WAS UPDATED (nmr-conf-0.en.tmp) ****

----------------
TOTAL SCF ENERGY
----------------

Total Energy       :      -2033.87647875987659 Eh          -55344.59265 eV

Components:
Nuclear Repulsion  :       5680.73190562156287 Eh          154580.57388 eV
Electronic Energy  :      -7714.56075204350145 Eh         -209923.87039 eV
One Electron Energy:     -14090.01913102457365 Eh         -383408.91269 eV
Two Electron Energy:       6375.45837898107220 Eh          173485.04230 eV
CPCM Dielectric    :         -0.04763233793768 Eh              -1.29614 eV

Virial components:
Potential Energy   :      -4061.11222207404899 Eh         -110508.48171 eV
Kinetic Energy     :       2027.23574331417262 Eh           55163.88905 eV
Virial Ratio       :          2.00327575885913

DFT components:
N(Alpha)           :      156.999748472201 electrons
N(Beta)            :      156.999748472201 electrons
N(Total)           :      313.999496944401 electrons
E(X)               :     -268.088187707361 Eh       
E(C)               :      -10.600125771313 Eh       
E(XC)              :     -278.688313478675 Eh       

CPCM Solvation Model Properties:
Surface-charge          :         -0.04267217574578
Corrected charge        :          0.00000000000000
Outlying charge corr.   :          0.00007807465313 Eh               0.00212 eV
Free-energy (cav+disp)  :  This term is not implemented in the current solvation scheme

---------------
SCF CONVERGENCE
---------------

  Last Energy change         ...   -5.1209e-07  Tolerance :   1.0000e-06
  Last MAX-Density change    ...    4.7511e-04  Tolerance :   1.0000e-05
  Last RMS-Density change    ...    1.9682e-05  Tolerance :   1.0000e-06
  Last DIIS Error            ...    1.4073e-03  Tolerance :   1.0000e-06
  Last Orbital Gradient      ...    1.0743e-04  Tolerance :   5.0000e-05
  Last Orbital Rotation      ...    2.1730e-04  Tolerance :   5.0000e-05


----------------
ORBITAL ENERGIES
----------------

  NO   OCC          E(Eh)            E(eV) 
   0   2.0000     -18.920713      -514.8588 
   1   2.0000     -18.918800      -514.8067 
   2   2.0000     -18.918050      -514.7863 
   3   2.0000     -18.911498      -514.6080 
   4   2.0000     -18.909540      -514.5548 
   5   2.0000     -18.909141      -514.5439 
   6   2.0000     -18.899951      -514.2938 
   7   2.0000     -18.883753      -513.8530 
   8   2.0000     -18.880715      -513.7704 
   9   2.0000     -18.877638      -513.6867 
  10   2.0000     -18.867390      -513.4078 
  11   2.0000     -10.047468      -273.4055 
  12   2.0000     -10.046418      -273.3769 
  13   2.0000     -10.044601      -273.3275 
  14   2.0000     -10.042324      -273.2655 
  15   2.0000     -10.041873      -273.2532 
  16   2.0000     -10.041538      -273.2441 
  17   2.0000     -10.039993      -273.2021 
  18   2.0000     -10.038697      -273.1668 
  19   2.0000     -10.036671      -273.1117 
  20   2.0000     -10.033415      -273.0231 
  21   2.0000     -10.033353      -273.0214 
  22   2.0000     -10.031870      -272.9811 
  23   2.0000     -10.031349      -272.9669 
  24   2.0000     -10.028625      -272.8927 
  25   2.0000     -10.024729      -272.7867 
  26   2.0000     -10.016421      -272.5607 
  27   2.0000      -9.989976      -271.8411 
  28   2.0000      -9.989887      -271.8386 
  29   2.0000      -9.987743      -271.7803 
  30   2.0000      -9.987528      -271.7745 
  31   2.0000      -9.987144      -271.7640 
  32   2.0000      -9.985017      -271.7061 
  33   2.0000      -9.983840      -271.6741 
  34   2.0000      -9.983343      -271.6606 
  35   2.0000      -9.983170      -271.6559 
  36   2.0000      -9.982675      -271.6424 
  37   2.0000      -9.982243      -271.6306 
  38   2.0000      -9.981321      -271.6055 
  39   2.0000      -9.979230      -271.5486 
  40   2.0000      -9.975455      -271.4459 
  41   2.0000      -9.973645      -271.3967 
  42   2.0000      -1.015526       -27.6339 
  43   2.0000      -1.011530       -27.5251 
  44   2.0000      -1.006820       -27.3970 
  45   2.0000      -0.996589       -27.1186 
  46   2.0000      -0.989753       -26.9325 
  47   2.0000      -0.983660       -26.7668 
  48   2.0000      -0.979751       -26.6604 
  49   2.0000      -0.955979       -26.0135 
  50   2.0000      -0.950325       -25.8597 
  51   2.0000      -0.949529       -25.8380 
  52   2.0000      -0.939817       -25.5737 
  53   2.0000      -0.798264       -21.7219 
  54   2.0000      -0.797231       -21.6938 
  55   2.0000      -0.793666       -21.5967 
  56   2.0000      -0.758594       -20.6424 
  57   2.0000      -0.732413       -19.9300 
  58   2.0000      -0.717329       -19.5195 
  59   2.0000      -0.702802       -19.1242 
  60   2.0000      -0.700758       -19.0686 
  61   2.0000      -0.697502       -18.9800 
  62   2.0000      -0.696162       -18.9435 
  63   2.0000      -0.686863       -18.6905 
  64   2.0000      -0.670162       -18.2360 
  65   2.0000      -0.650535       -17.7020 
  66   2.0000      -0.649068       -17.6620 
  67   2.0000      -0.648100       -17.6357 
  68   2.0000      -0.638331       -17.3699 
  69   2.0000      -0.624792       -17.0015 
  70   2.0000      -0.615013       -16.7354 
  71   2.0000      -0.612197       -16.6587 
  72   2.0000      -0.576895       -15.6981 
  73   2.0000      -0.568571       -15.4716 
  74   2.0000      -0.562919       -15.3178 
  75   2.0000      -0.558621       -15.2008 
  76   2.0000      -0.549994       -14.9661 
  77   2.0000      -0.541972       -14.7478 
  78   2.0000      -0.540214       -14.7000 
  79   2.0000      -0.532821       -14.4988 
  80   2.0000      -0.513628       -13.9765 
  81   2.0000      -0.512079       -13.9344 
  82   2.0000      -0.504680       -13.7330 
  83   2.0000      -0.495231       -13.4759 
  84   2.0000      -0.480342       -13.0708 
  85   2.0000      -0.475876       -12.9493 
  86   2.0000      -0.472172       -12.8485 
  87   2.0000      -0.470820       -12.8117 
  88   2.0000      -0.466026       -12.6812 
  89   2.0000      -0.459664       -12.5081 
  90   2.0000      -0.451245       -12.2790 
  91   2.0000      -0.448634       -12.2080 
  92   2.0000      -0.442929       -12.0527 
  93   2.0000      -0.437430       -11.9031 
  94   2.0000      -0.434190       -11.8149 
  95   2.0000      -0.432946       -11.7811 
  96   2.0000      -0.428708       -11.6657 
  97   2.0000      -0.427889       -11.6435 
  98   2.0000      -0.424902       -11.5622 
  99   2.0000      -0.419075       -11.4036 
 100   2.0000      -0.416653       -11.3377 
 101   2.0000      -0.414678       -11.2840 
 102   2.0000      -0.406851       -11.0710 
 103   2.0000      -0.404271       -11.0008 
 104   2.0000      -0.400712       -10.9039 
 105   2.0000      -0.399209       -10.8630 
 106   2.0000      -0.398660       -10.8481 
 107   2.0000      -0.391946       -10.6654 
 108   2.0000      -0.386994       -10.5306 
 109   2.0000      -0.383281       -10.4296 
 110   2.0000      -0.381449       -10.3798 
 111   2.0000      -0.379000       -10.3131 
 112   2.0000      -0.376694       -10.2504 
 113   2.0000      -0.375481       -10.2174 
 114   2.0000      -0.373433       -10.1616 
 115   2.0000      -0.370532       -10.0827 
 116   2.0000      -0.368660       -10.0318 
 117   2.0000      -0.364883        -9.9290 
[...]
  X          -0.0557658   -0.9830118   -0.1748659
  Y           0.3935105    0.1393233   -0.9087016
  Z           0.9176272   -0.1194860    0.3790559

 --------------
 Nucleus  73H :
 --------------

Diamagnetic contribution to the shielding tensor (ppm) : 
            11.675         50.128        -8.003
            -9.601         50.258        -1.298
            40.751       -177.439       -20.947

Paramagnetic contribution to the shielding tensor (ppm): 
            16.887        -50.027         4.012
            11.504        -24.854        -1.844
           -44.726        174.617        50.350

Total shielding tensor (ppm): 
            28.562          0.101        -3.990
             1.903         25.403        -3.142
            -3.975         -2.822        29.404


 Diagonalized sT*s matrix:
 
 sDSO           -39.908           48.712           32.182  iso=      13.662
 sPSO            63.391          -22.805            1.797  iso=      14.128
        ---------------  ---------------  ---------------
 Total           23.483           25.908           33.978  iso=      27.789

 Orientation: 
  X           0.3262424    0.7274076   -0.6036920
  Y           0.7418165   -0.5928406   -0.3134459
  Z           0.5858961    0.3455693    0.7330127

 --------------
 Nucleus  74H :
 --------------

Diamagnetic contribution to the shielding tensor (ppm) : 
           -32.601         83.069        14.334
           -40.965         85.204         0.213
            -4.114        -80.896       -89.899

Paramagnetic contribution to the shielding tensor (ppm): 
            61.743        -81.092       -11.389
            44.800        -57.585        -0.980
             6.086         80.727       116.668

Total shielding tensor (ppm): 
            29.142          1.976         2.945
             3.836         27.618        -0.767
             1.972         -0.169        26.769


 Diagonalized sT*s matrix:
 
 sDSO           -60.249           27.912           -4.959  iso=     -12.432
 sPSO            84.196           -0.304           36.932  iso=      40.275
        ---------------  ---------------  ---------------
 Total           23.947           27.608           31.974  iso=      27.843

 Orientation: 
  X          -0.5826258   -0.1031290   -0.8061709
  Y           0.5550057    0.6741386   -0.4873457
  Z           0.5937304   -0.7313697   -0.3355333

 --------------
 Nucleus  75H :
 --------------

Diamagnetic contribution to the shielding tensor (ppm) : 
           -70.408         -3.309       -26.746
           -58.805         21.571         6.417
           -64.415        228.189      -168.919

Paramagnetic contribution to the shielding tensor (ppm): 
           101.767         10.184        25.872
            64.755         11.871         0.225
            63.826       -224.634       195.503

Total shielding tensor (ppm): 
            31.359          6.875        -0.874
             5.949         33.443         6.642
            -0.589          3.555        26.585


 Diagonalized sT*s matrix:
 
 sDSO          -189.818          -15.560          -12.378  iso=     -72.585
 sPSO           211.863           45.055           52.223  iso=     103.047
        ---------------  ---------------  ---------------
 Total           22.045           29.495           39.846  iso=      30.462

 Orientation: 
  X           0.4508517   -0.6948921   -0.5602300
  Y          -0.5756426    0.2533249   -0.7774716
  Z           0.6821791    0.6730167   -0.2857976

 --------------
 Nucleus  76H :
 --------------

Diamagnetic contribution to the shielding tensor (ppm) : 
           -67.011         72.867        52.123
           -81.978         94.351        27.521
           -39.140        -91.696      -124.789

Paramagnetic contribution to the shielding tensor (ppm): 
           110.919        -78.838       -53.711
            75.283        -71.579       -28.981
            39.568         91.113       144.732

Total shielding tensor (ppm): 
            43.908         -5.972        -1.587
            -6.695         22.773        -1.461
             0.428         -0.583        19.943


 Diagonalized sT*s matrix:
 
 sDSO           -89.720           46.742          -54.471  iso=     -32.483
 sPSO           108.942          -24.999          100.129  iso=      61.357
        ---------------  ---------------  ---------------
 Total           19.222           21.743           45.659  iso=      28.874

 Orientation: 
  X           0.1630276    0.2050595   -0.9650765
  Y           0.5264772    0.8091776    0.2608704
  Z           0.8344122   -0.5506198    0.0239591

 --------------
 Nucleus  77H :
 --------------

Diamagnetic contribution to the shielding tensor (ppm) : 
           -17.006        139.993       -14.535
           -22.403        120.788        -8.299
             2.396        -87.690        67.050

Paramagnetic contribution to the shielding tensor (ppm): 
            47.227       -134.276        13.704
            26.701        -84.305         2.991
            -2.623         83.444       -42.246

Total shielding tensor (ppm): 
            30.221          5.718        -0.831
             4.298         36.483        -5.308
            -0.227         -4.246        24.804


 Diagonalized sT*s matrix:
 
 sDSO            30.922          -19.695          159.605  iso=      56.944
 sPSO            -8.064           47.819         -119.078  iso=     -26.441
        ---------------  ---------------  ---------------
 Total           22.858           28.123           40.527  iso=      30.503

 Orientation: 
  X          -0.2011928   -0.8843134   -0.4213209
  Y           0.3943694    0.3205924   -0.8612162
  Z           0.8966573   -0.3394265    0.2842452

 --------------
 Nucleus  78H :
 --------------

Diamagnetic contribution to the shielding tensor (ppm) : 
           -43.563          0.268        23.576
           -61.608         48.763         9.537
             2.870        -94.988       -92.208

Paramagnetic contribution to the shielding tensor (ppm): 
            72.554          3.495       -19.410
            64.270        -31.702       -10.436
             2.308         97.186       125.744

Total shielding tensor (ppm): 
            28.991          3.762         4.166
             2.662         17.060        -0.899
             5.179          2.197        33.536


 Diagonalized sT*s matrix:
 
 sDSO            57.312          -66.739          -77.581  iso=     -29.003
 sPSO           -41.063           93.369          114.289  iso=      55.532
        ---------------  ---------------  ---------------
 Total           16.249           26.630           36.708  iso=      26.529

 Orientation: 
  X           0.2657719    0.7902491    0.5521518
  Y          -0.9640095    0.2220953    0.1461483
  Z          -0.0071367   -0.5711217    0.8208344

 --------------
 Nucleus  79H :
 --------------

Diamagnetic contribution to the shielding tensor (ppm) : 
            94.774       -176.982       -51.014
            34.990        -64.544       -39.271
           -24.297        -72.921       -55.440

Paramagnetic contribution to the shielding tensor (ppm): 
           -65.759        180.590        50.553
           -33.270         92.608        38.169
            24.379         71.710        81.562

Total shielding tensor (ppm): 
            29.016          3.608        -0.461
             1.719         28.064        -1.102
             0.083         -1.211        26.122


 Diagonalized sT*s matrix:
 
 sDSO           -25.068           25.833          -25.975  iso=      -8.403
 sPSO            50.213            0.827           57.372  iso=      36.137
        ---------------  ---------------  ---------------
 Total           25.145           26.660           31.396  iso=      27.734

 Orientation: 
  X          -0.4043960   -0.5522854   -0.7290026
  Y           0.6194981    0.4209712   -0.6625748
  Z           0.6728194   -0.7195583    0.1719007

 --------------
 Nucleus  80H :
 --------------

Diamagnetic contribution to the shielding tensor (ppm) : 
            -0.646       -113.473       -25.772
           -30.892        -39.442       -27.926
            10.506       -121.680      -145.199

Paramagnetic contribution to the shielding tensor (ppm): 
            30.486        113.472        28.466
            30.336         61.124        27.367
           -11.184        120.677       174.853

Total shielding tensor (ppm): 
            29.840         -0.001         2.694
            -0.556         21.682        -0.559
            -0.678         -1.003        29.654


 Diagonalized sT*s matrix:
 
 sDSO           -56.791          -64.839          -63.656  iso=     -61.762
 sPSO            78.394           93.595           94.474  iso=      88.821
        ---------------  ---------------  ---------------
 Total           21.603           28.757           30.817  iso=      27.059

 Orientation: 
  X           0.0128278   -0.7065720    0.7075249
  Y           0.9951687   -0.0598588   -0.0778212
  Z           0.0973379    0.7051049    0.7023905

 --------------
 Nucleus  81H :
 --------------

Diamagnetic contribution to the shielding tensor (ppm) : 
           -50.592       -204.654       -28.479
           -70.551        -87.853       -10.091
           -42.656        -18.025      -183.275

Paramagnetic contribution to the shielding tensor (ppm): 
            83.502        201.542        25.698
            66.509        113.030         9.610
            40.989         18.683       209.538

Total shielding tensor (ppm): 
            32.910         -3.112        -2.781
            -4.041         25.177        -0.480
            -1.668          0.658        26.264


 Diagonalized sT*s matrix:
 
 sDSO          -200.195         -156.077           34.553  iso=    -107.240
 sPSO           223.743          182.051            0.277  iso=     135.357
        ---------------  ---------------  ---------------
 Total           23.547           25.974           34.830  iso=      28.117

 Orientation: 
  X           0.3969862   -0.1173952   -0.9102859
  Y           0.8719459    0.3578826    0.3341113
  Z           0.2865525   -0.9263576    0.2444367



--------------------------------
CHEMICAL SHIELDING SUMMARY (ppm)
--------------------------------


  Nucleus  Element    Isotropic     Anisotropy
  -------  -------  ------------   ------------
      0       C           24.913        125.448 
      1       C           44.642         93.757 
      2       C           25.988        117.990 
      3       C           76.332        124.524 
      4       C           39.278        193.295 
      5       C           76.745        135.219 
      6       C          147.011         31.818 
      7       C          132.689         19.355 
      8       C          138.275         24.666 
      9       C          143.603         35.701 
     10       C           44.515        182.095 
     11       C           70.149        153.960 
     12       C           30.432        117.596 
     13       C           32.094        124.050 
     14       C           67.276        145.318 
     15       C           56.328        147.807 
     16       C          112.510         63.689 
     17       C          107.517         71.539 
     23       C           95.933         50.352 
     24       C          103.594         46.343 
     25       C           43.987        182.906 
     26       C          113.108         55.133 
     28       C           66.967        141.934 
     29       C           32.164        118.322 
     30       C           33.155        120.391 
     31       C           68.076        147.595 
     32       C           62.775        174.546 
     33       C          123.596         73.645 
     34       C          124.838         80.185 
     35       C          124.361         79.627 
     41       C          125.472         78.168 
     42       H           25.493         10.061 
     43       H           25.849          8.675 
     44       H           29.649          6.914 
     45       H           28.910          4.634 
     46       H           30.772          4.872 
     47       H           28.719          4.145 
     48       H           28.924          8.503 
     49       H           29.307          4.163 
     50       H           24.526         10.092 
     51       H           24.787          3.047 
     52       H           24.698          5.616 
     53       H           27.862          5.056 
     54       H           27.993          7.162 
     55       H           27.472          6.576 
     56       H           27.939          4.117 
     57       H           25.270         13.233 
     58       H           26.646          4.732 
     59       H           27.087          3.678 
     60       H           27.402          7.929 
     61       H           27.256          5.566 
     62       H           29.608         15.609 
     63       H           24.853          8.799 
     64       H           25.344          5.307 
     65       H           25.180          5.518 
     66       H           27.569          7.207 
     67       H           28.169          8.234 
     68       H           28.574          8.338 
     69       H           27.919          7.386 
     70       H           27.893          9.697 
     71       H           27.531          9.612 
     72       H           27.382          9.274 
     73       H           27.789          9.283 
     74       H           27.843          6.196 
     75       H           30.462         14.075 
     76       H           28.874         25.176 
     77       H           30.503         15.037 
     78       H           26.529         15.268 
     79       H           27.734          5.494 
     80       H           27.059          5.638 
     81       H           28.117         10.069 


NMR shielding tensor and spin rotation calculation done in   2.3 sec 

Maximum memory used throughout the entire PROP-calculation: 365.6 MB
[c02b01n06:2445944] 55 more processes have sent help message help-mpi-btl-openib.txt / error in device init
[c02b01n06:2445944] Set MCA parameter "orte_base_help_aggregate" to 0 to see all help / error messages
[c02b01n06:2445944] 3 more processes have sent help message help-mpi-btl-openib.txt / no active ports found
--------------------------------------------------------------------------
WARNING: There was an error initializing an OpenFabrics device.

  Local host:   c02b01n06
  Local device: mlx5_0
--------------------------------------------------------------------------
--------------------------------------------------------------------------
WARNING: There is at least one non-excluded one OpenFabrics device found,
but there are no active ports detected (or Open MPI was unable to use
them).  This is most certainly not what you wanted.  Check your
cables, subnet manager configuration, etc.  The openib BTL will be
ignored for this job.

  Local host: c02b01n06
--------------------------------------------------------------------------
[c02b01n06:2446394] 56 more processes have sent help message help-mpi-btl-openib.txt / error in device init
[c02b01n06:2446394] Set MCA parameter "orte_base_help_aggregate" to 0 to see all help / error messages
[c02b01n06:2446394] 2 more processes have sent help message help-mpi-btl-openib.txt / no active ports found

--------------------------------
SUGGESTED CITATIONS FOR THIS RUN
--------------------------------

Below you find a list of papers that are relevant to this ORCA run
We neither can nor want to force you to cite these papers, but we appreciate if you do
You receive ORCA, which is the product of decades of hard work by many enthusiastic individuals, for free
The only thing we kindly ask in return is that you cite our papers,
We deeply appreciate it, if you show your appreciation for ORCA by not just citing the generic ORCA reference.

Please note that relegating all ORCA citations to the supporting information does *not* help us.
SI sections are not indexed - citations you put there will not count into any citation statistics
But we need these citations in order to attract the funding resources that allow us to do what we are doing

Therefore, if you are a happy ORCA user, please consider citing a few of the papers listed below in the main body of your paper

In addition to the list printed below, the program has created the file nmr-conf-0.bibtex that contains the list in bibtex format
You can import this file easily into all common literature databanks and citation aid programs


List of essential papers. We consider these as the minimum necessary citations

  1. Neese, F.
     Software update: the ORCA program system, version 6.0
     WIRES Comput. Molec. Sci. 2025 15(1), e70019
     doi.org/10.1002/wcms.7019

List of papers to cite with high priority. The work reported in these papers was absolutely
necessary for this run to complete.
Our perspective: the developers of density functionals and basis sets usually get cited in chemistry papers
Good! But without the algorithms to do something with them, the functionals or basis sets would not do anything.
Hence, in our opinion, the algorithm design and method developments papers are equally worthy of getting cited

  1. Neese, F.
     An improvement of the resolution of the identity approximation for the formation of the Coulomb matrix
     J. Comp. Chem. 2003 24(14), 1740-1747
     doi.org/10.1002/jcc.10318
  2. Stoychev, G.L.; Auer, A.A.; Neese, F.
     Automatic Generation of Auxiliary Basis Sets
     J. Theo. Comp. Chem. 2017 13 , 554-562
     doi.org/10.1021/acs.jctc.6b01041
  3. Stoychev, G.L.; Auer, A.A.; Izsak, R.; Neese, F.
     Self-Consistent Field Calculation of Nuclear Magnetic Resonance Chemical Shielding Constants Using Gauge-Including Atomic Orbitals and Approximate Two-Electron Integrals
     J. Chem. Theory Comput. 2018 14(2), 619-637
     doi.org/10.1021/acs.jctc.7b01006
  4. Garcia-Rates, M.; Neese, F.
     Effect of the Solute Cavity on the Solvation Energy and its Derivatives within the Framework of the Gaussian Charge Scheme
     J. Comput. Chem. 2020 41 , 922-939
     doi.org/10.1002/jcc.26139
  5. Neese, F.
     The SHARK Integral Generation and Digestion System
     J. Comp. Chem. 2022 44(3), 381
     doi.org/10.1002/jcc.26942

List of suggested additional citations. These are papers that are important in the 'surrounding' of 
of this run, or papers that preceded the highly important papers. If you like your results we are grateful for a citation.

  1. Neese, F.
     The ORCA program system
     WIRES Comput. Molec. Sci. 2012 2(1), 73-78
     doi.org/10.1002/wcms.81
  2. Neese, F.
     Software update: the ORCA program system, version 4.0
     WIRES Comput. Molec. Sci. 2018 8(1), 1-6
     doi.org/10.1002/wcms.1327
  3. Neese, F.; Wennmohs, F.; Becker, U.; Riplinger, C.
     The ORCA quantum chemistry program package
     J. Chem. Phys. 2020 152(22), 224108
     doi.org/10.1063/5.0004608
  4. Neese, F.
     Software update: The ORCA program system—Version 5.0
     WIRES Comput. Molec. Sci. 2022 12(1), e1606
     doi.org/10.1002/wcms.1606

List of optional additional citations

  1. Neese, F.
     Approximate second-order SCF convergence for spin unrestricted wavefunctions
     Chem. Phys. Lett. 2000 325(1-3), 93-98
     doi.org/10.1016/s0009-2614(00)00662-x

Timings for individual modules:

Sum of individual times          ...      249.503 sec (=   4.158 min)
Startup calculation              ...       80.020 sec (=   1.334 min)  32.1 %
SCF iterations                   ...      101.475 sec (=   1.691 min)  40.7 %
Property integrals               ...       50.774 sec (=   0.846 min)  20.4 %
SCF Response                     ...       11.021 sec (=   0.184 min)   4.4 %
Property calculations            ...        6.213 sec (=   0.104 min)   2.5 %
                             ****ORCA TERMINATED NORMALLY****
TOTAL RUN TIME: 0 days 0 hours 4 minutes 36 seconds 918 msec
