
                                 *****************
                                 * O   R   C   A *
                                 *****************

                                            #,                                       
                                            ###                                      
                                            ####                                     
                                            #####                                    
                                            ######                                   
                                           ########,                                 
                                     ,,################,,,,,                         
                               ,,#################################,,                 
                          ,,##########################################,,             
                       ,#########################################, ''#####,          
                    ,#############################################,,   '####,        
                  ,##################################################,,,,####,       
                ,###########''''           ''''###############################       
              ,#####''   ,,,,##########,,,,          '''####'''          '####       
            ,##' ,,,,###########################,,,                        '##       
           ' ,,###''''                  '''############,,,                           
         ,,##''                                '''############,,,,        ,,,,,,###''
      ,#''                                            '''#######################'''  
     '                                                          ''''####''''         
             ,#######,   #######,   ,#######,      ##                                
            ,#'     '#,  ##    ##  ,#'     '#,    #''#        ,####,    ,#,          
            ##       ##  ##   ,#'  ##            #'  '#       #'       ,# #          
            ##       ##  #######   ##           ,######,      #####,      #          
            '#,     ,#'  ##    ##  '#,     ,#' ,#      #,     #,   #      #          
             '#######'   ##     ##  '#######'  #'      '#     '####' #    #          



                #########################################################
                #                        -***-                          #
                #          Department of theory and spectroscopy        #
                #                                                       #
                #                      Frank Neese                      #
                #                                                       #
                #     Directorship, Architecture, Infrastructure        #
                #                    SHARK, DRIVERS                     #
                #        Core code/Algorithms in most modules           #
                #                                                       #
                #        Max Planck Institute fuer Kohlenforschung      #
                #                Kaiser Wilhelm Platz 1                 #
                #                 D-45470 Muelheim/Ruhr                 #
                #                      Germany                          #
                #                                                       #
                #                  All rights reserved                  #
                #                        -***-                          #
                #########################################################


                         Program Version 6.1.0-f.0  -   RELEASE   -


 With contributions from (in alphabetic order):
[Max-Planck-Institut fuer Kohlenforschung]                               
  Daniel Aravena         : Magnetic Suceptibility                        
  Michael Atanasov       : Ab Initio Ligand Field Theory (pilot matlab implementation)
  Alexander A. Auer      : GIAO ZORA, VPT2 properties, NMR spectrum      
  Ute Becker             : All parallelization in ORCA, NUMFREQ, NUMCALC 
  Giovanni Bistoni       : ED, misc. LED, open-shell LED, HFLD           
  Dmytro Bykov           : pre 5.0 version of the SCF Hessian            
  Marcos Casanova-Páez   : Triplet and SCS-CIS(D). UHF-(DLPNO)-IP/EA/STEOM-CCSD. UHF-CVS-IP/STEOM-CCSD   
  Vijay G. Chilkuri      : MRCI spin determinant printing, contributions to CSF-ICE 
  Pauline Colinet        : FMM embedding                                 
  Dipayan Datta          : RHF DLPNO-CCSD density                        
  Achintya Kumar Dutta   : EOM-CC, STEOM-CC                              
  Nicolas Foglia         : Exact transition moments, OPA infrastructure, MCD improvements    
  Dmitry Ganyushin       : Spin-Orbit,Spin-Spin,Magnetic field MRCI      
  Miquel Garcia-Rates    : C-PCM and meta-GGA Hessian, CCSD/C-PCM, Gaussian charge scheme 
  Tiago L. C. Gouveia    : GS-ROHF, GS-ROCIS                             
  Yang Guo               : DLPNO-NEVPT2, F12-NEVPT2, CIM, IAO-localization        
  Andreas Hansen         : Spin unrestricted coupled pair/coupled cluster methods 
  Ingolf Harden          : AUTO-CI MPn and infrastructure                
  Benjamin Helmich-Paris : MC-RPA, TRAH-(SCF,CASSCF), AVAS, COSX integrals, SCF dyn. polar., MC-PDFT, srDFT 
  Lee Huntington         : MR-EOM, pCC                                   
  Robert Izsak           : Overlap fitted RIJCOSX, COSX-SCS-MP3, EOM     
  Riya Kayal             : Wick's Theorem for AUTO-CI, AUTO-CI UHF-CCSDT 
  Emily Kempfer          : AUTO-CI RHF CISDT and CCSDT, approximate NEVPT4
  Christian Kollmar      : KDIIS, OOCD, Brueckner-CCSD(T), CCSD density, CASPT2, CASPT2-K, improved NEVPT2 
  Axel Koslowski         : Symmetry handling                             
  Simone Kossmann        : meta-GGA functionals, TD-DFT gradient, OOMP2, (MP2 Hessian; deprecated post 5.0) 
  Lucas Lang             : DCDCAS, Hyperfine gauge corrections, ICE-SOC+SSC
  Marvin Lechner         : AUTO-CI (C++ implementation), FIC-MRCC        
  Spencer Leger          : CASSCF response                               
  Dagmar Lenk            : GEPOL surface, SMD, ORCA-2-JSON               
  Dimitrios Liakos       : Extrapolation schemes; Compound Job, Property file
  Dimitrios Manganas     : Further ROCIS development; embedding schemes. LFT, Crystal Embedding 
  Dimitrios Pantazis     : SARC Basis sets                               
  Anastasios Papadopoulos: AUTO-CI, single reference methods and gradients 
  Taras Petrenko         : pre 6.0 DFT Hessian and TD-DFT gradient,  ECA, NRVS 
  Petra Pikulova         : Analytic Raman intensities                    
  Peter Pinski           : DLPNO-MP2, DLPNO-MP2 Gradient                 
  Shashank Vittal Rao    : ES-AILFT, MagRelax                            
  Christoph Reimann      : Effective Core Potentials                     
  Marius Retegan         : Local ZFS, SOC                                
  Christoph Riplinger    : Optimizer, TS searches, QM/MM, DLPNO-CCSD(T), (RO)-DLPNO pert. Triples 
  Michael Roemelt        : Original ROCIS implementation, recursive CI coupling coefficients
  Masaaki Saitow         : Open-shell DLPNO-CCSD energy and density      
  Barbara Sandhoefer     : DKH picture change effects                    
  Yorick L. A. Schmerwitz: GMF and freeze-and-release deltaSCF, NEB S-IDPP initial path                    
  Kantharuban Sivalingam : CASSCF convergence/infrastructure, NEVPT2, NEVPT3, NEVPT4(SD), FIC-MRCI and CEPA variants
  Bernardo de Souza      : ESD, SOC TD-DFT                               
  Georgi L. Stoychev     : AutoAux, RI-MP2 NMR, DLPNO-MP2 response, X2C  
  Van Anh Tran           : RI-MP2 g-tensors                              
  Willem Van den Heuvel  : Paramagnetic NMR                              
  Zikuan Wang            : NOTCH, Electric field optimization            
  Frank Wennmohs         : Technical directorship and infrastructure     
  Hang Xu                : AUTO-CI-Response properties                   
                                                                         
[FACCTs GmbH]                                                            
  Markus Bursch, Nicolas Foglia, Miquel Garcia-Rates, Ingolf Harden, Hagen Neugebauer, Anastasios Papadopoulos, 
  Christoph Riplinger, Bernardo de Souza, Georgi L. Stoychev                                                    
                                                                 
  APM, various basis sets, CI-OPT, improved COSX, DLPNO-Multilevel,           
  DOCKER, DRACO, updates on ESD, Fragmentator, GOAT, IRC, LR-CPCM, L-BFGS, MBIS, meta-GGA TD-DFT gradient, ML-optimized integration grids, 
  MM, NACMEs, nearIR, NEB, NEB-TS, NL-DFT gradient (VV10), 2- and 3-layer-ONIOM, interface openCOSMO-RS, QMMM,   
  Crystal-QMMM, RESP, rigid body optimization, SF, symmetry and pop. for TD-DFT, various functionals, SOLVATOR                                   
                                                                         
[Other institutions]                                                     
  V. Asgeirsson          : NEB                                           
  Christoph Bannwarth    : sTDA-DFT, sTD-DFT, PBEh-3c, B97-3c, D3        
  Giovanni Bistoni       : ETS/NOCV, ADLD/ADEX, COVALED                  
  Martin Brehm           : Molecular dynamics                            
  Ronald Cardenas        : ETS/NOCV                                      
  Martina Colucci        : COVALED                                       
  Sebastian Ehlert       : rSCAN, r2SCAN, r2SCAN-3c, D4, dhf basis sets  
  Marvin Friede          : D4 for Fr, Ra, Ac-Lr                          
  Lars Goerigk           : TD-DFT with DH, B97 family of functionals     
  Stefan Grimme          : VdW corrections, initial TS optimization, DFT functionals, gCP, sTDA/sTD-DF 
  Waldemar Hujo          : DFT-NL                                        
  H. Jonsson             : NEB                                           
  Holger Kruse           : gCP                                           
  Marcel Mueller         : wB97X-3c, vDZP basis set                      
  Hagen Neugebauer       : wr2SCAN, Native XTB                           
  Gianluca Regni         : ADLD/ADEX                                     
  Tobias Risthaus        : pre 6.0 range-separated hybrid DFT and stability analysis
  Lukas Wittmann         : regularized MP2, r2SCAN double-hybrids, wr2SCAN        
                                                                         
We gratefully acknowledge several colleagues who have allowed us to      
interface, adapt or use parts of their codes:                            
  Ed Valeev, F. Pavosevic, A. Kumar             : LibInt (2-el integral package), F12 methods 
  Garnet Chan, S. Sharma, J. Yang, R. Olivares  : DMRG                   
  Ulf Ekstrom                                   : XCFun DFT Library      
  Mihaly Kallay                                 : mrcc  (arbitrary order and MRCC methods)
  Frank Weinhold                                : gennbo (NPA and NBO analysis)           
  Simon Mueller                                 : openCOSMO-RS                            
  Christopher J. Cramer and Donald G. Truhlar   : smd solvation model                     
  S Lehtola, MJT Oliveira, MAL Marques          : LibXC Library                           
  Liviu Ungur et al                             : ANISO software                          


 Your calculation uses the libint2 library for the computation of 2-el integrals
 For citations please refer to: http://libint.valeyev.net

 Your ORCA version has been built with support for libXC version: 7.0.0
 For citations please refer to: https://libxc.gitlab.io

 This ORCA versions uses:
   CBLAS   interface :  Fast vector & matrix operations
   LAPACKE interface :  Fast linear algebra routines
   SCALAPACK package :  Parallel linear algebra routines
   Shared memory     :  Shared parallel matrices
   BLAS/LAPACK       :  OpenBLAS 0.3.29  USE64BITINT DYNAMIC_ARCH NO_AFFINITY Cooperlake SINGLE_THREADED
        Core in use  :  Cooperlake
   Copyright (c) 2011-2014, The OpenBLAS Project


  ***********************************
  * Starting time: Wed Mar  4 13:49:25 2026
  * Host name:     c01b01n02
  * Process ID:    1578107
  * Working dir.:  /lustre1/jiangy/jiangy_liuxy/NMR/B9D7C2-RSSR-NMR/opt_conf
  ***********************************

NOTE: MaxCore=5000 MB was set to SCF,MP2,MDCI,CIPSI,MRCI,RASCI and CIS
      => If you want to overwrite this, your respective input block should be placed after the MaxCore statement


***************************************
The coordinates will be read from file: opt-conf-14.xyz
***************************************



Warning: The global flag for NMR shieldings has been found
         but shieldings for certain elements have also been explicitly requested in the EPRNMR block
         ==>> only the requested shieldings will be calculated

================================================================================

----- Orbital basis set information -----
Your calculation utilizes the basis: pcSseg-2
   F. Jensen, J. Chem. Theory Comput. 11, 132 (2015).

----- AuxJ basis set information -----
Your calculation utilizes the AutoAux generation procedure.
  G. L. Stoychev, A. A. Auer, F. Neese, J. Chem. Theory Comput. 13, 554 (2017)

----- AuxC basis set information -----
Your calculation utilizes the AutoAux generation procedure.
  G. L. Stoychev, A. A. Auer, F. Neese, J. Chem. Theory Comput. 13, 554 (2017)

----- AuxJK basis set information -----
Your calculation utilizes the AutoAux generation procedure.
  G. L. Stoychev, A. A. Auer, F. Neese, J. Chem. Theory Comput. 13, 554 (2017)

----- AuxX basis set information -----
Your calculation utilizes the AutoAux generation procedure.
  G. L. Stoychev, A. A. Auer, F. Neese, J. Chem. Theory Comput. 13, 554 (2017)

================================================================================
                                        WARNINGS
                       Please study these warnings very carefully!
================================================================================


================================================================================
                                       INPUT FILE
================================================================================
NAME = nmr-conf-14.inp
|  1> !TPSS PCSSEG-2 AUTOAUX NMR CPCM(Methanol)
|  2> 
|  3> %pal nprocs 60 end
|  4> %maxcore 5000
|  5> 
|  6> *XYZFILE 0 1 opt-conf-14.xyz
|  7> 
|  8> %EPRNMR
|  9>    NUCLEI = ALL C {SHIFT}
| 10>    NUCLEI = ALL H {SHIFT}
| 11>    TAU DOBSON
| 12> END
| 13> 
| 14> 
| 15>                          ****END OF INPUT****
================================================================================

                       ****************************
                       * Single Point Calculation *
                       ****************************

---------------------------------
CARTESIAN COORDINATES (ANGSTROEM)
---------------------------------
  C     21.548484  -31.969171   -1.520489
  C     21.091457  -32.141782   -2.829381
  C     19.705346  -32.176282   -3.061149
  C     18.812451  -32.166258   -1.994935
  C     19.278665  -32.077536   -0.683164
  C     20.642733  -31.956050   -0.461606
  C     18.323395  -32.124312    0.482328
  C     18.366263  -33.468569    1.236868
  C     17.753711  -33.396851    2.651209
  C     18.716870  -32.739739    3.660868
  C     20.070688  -33.395782    3.766050
  C     20.178727  -34.762360    4.052408
  C     21.422160  -35.366361    4.158002
  C     22.591700  -34.605416    3.996453
  C     22.491492  -33.257852    3.709024
  C     21.236832  -32.661275    3.589449
  C     17.770868  -34.589854    0.382222
  C     16.408882  -32.675063    2.747216
  O     19.328225  -32.234287   -4.368131
  O     22.866539  -31.868610   -1.182416
  O     21.988499  -32.202810   -3.869503
  O     23.818137  -35.193126    4.115098
  O     21.643011  -36.690132    4.413898
  C     21.987659  -33.364818   -4.718385
  C     22.871931  -34.458977   -4.100761
  C     22.334404  -34.995039   -2.799504
  C     22.502014  -32.866959   -6.068678
  O     22.296492  -33.803806   -7.119051
  C     23.085812  -34.851248   -1.635124
  C     22.576770  -35.269363   -0.414830
  C     21.312638  -35.866825   -0.361221
  C     20.579278  -36.050053   -1.521432
  C     21.086150  -35.607963   -2.736824
  C     23.751272  -31.081298   -1.987808
  C     17.938118  -32.330027   -4.669011
  C     20.512487  -37.550181    4.550215
  O     22.964349  -35.495848   -5.099521
  O     17.935417  -35.884095    0.968194
  O     15.366950  -33.238886    1.945100
  O     23.196517  -35.140284    0.790433
  O     20.797749  -36.271290    0.841671
  C     24.462180  -34.479563    0.831223
  H     17.749282  -32.225972   -2.174967
  H     21.036152  -31.855554    0.542186
  H     17.307316  -31.928326    0.131966
  H     18.576895  -31.322891    1.180086
  H     19.422431  -33.721522    1.370482
  H     17.589145  -34.428410    2.977968
  H     18.233863  -32.749690    4.643827
  H     18.858508  -31.686819    3.402591
  H     19.283561  -35.352532    4.187535
  H     23.397299  -32.680337    3.574063
  H     21.173237  -31.605551    3.355727
  H     16.699175  -34.445136    0.253887
  H     18.234631  -34.569228   -0.608542
  H     16.097996  -32.653101    3.798329
  H     16.502720  -31.639270    2.416288
  H     23.690089  -36.137636    4.289775
  H     20.974545  -33.742795   -4.847559
  H     23.864568  -34.030086   -3.930005
  H     23.562564  -32.598473   -5.979210
  H     21.945736  -31.966648   -6.330517
  H     22.667062  -34.644858   -6.807673
  H     24.052837  -34.373723   -1.683924
  H     19.606868  -36.521386   -1.461037
  H     20.496416  -35.735415   -3.635129
  H     24.556343  -30.767964   -1.324506
  H     24.156611  -31.661260   -2.814865
  H     23.238859  -30.200877   -2.379606
  H     17.503327  -33.235640   -4.239253
  H     17.395033  -31.455925   -4.301982
  H     17.872457  -32.372175   -5.753470
  H     20.913242  -38.545840    4.721968
  H     19.894666  -37.249402    5.399510
  H     19.909403  -37.546246    3.639403
  H     23.566361  -36.178047   -4.776509
  H     18.888333  -36.060101    1.032935
  H     15.216281  -34.146098    2.238741
  H     21.394623  -35.983454    1.550473
  H     25.201919  -35.028049    0.243169
  H     24.375271  -33.459680    0.453289
  H     24.755501  -34.470589    1.876289

----------------------------
CARTESIAN COORDINATES (A.U.)
----------------------------
  NO LB      ZA    FRAG     MASS         X           Y           Z
   0 C     6.0000    0    12.011   40.720734  -60.412978   -2.873308
   1 C     6.0000    0    12.011   39.857078  -60.739165   -5.346755
   2 C     6.0000    0    12.011   37.237708  -60.804361   -5.784734
   3 C     6.0000    0    12.011   35.550381  -60.785419   -3.769880
   4 C     6.0000    0    12.011   36.431397  -60.617758   -1.290992
   5 C     6.0000    0    12.011   39.009112  -60.388183   -0.872309
   6 C     6.0000    0    12.011   34.626199  -60.706153    0.911468
   7 C     6.0000    0    12.011   34.707208  -63.246429    2.337342
   8 C     6.0000    0    12.011   33.549652  -63.110902    5.010059
   9 C     6.0000    0    12.011   35.369758  -61.869141    6.918037
  10 C     6.0000    0    12.011   37.928104  -63.108882    7.116804
  11 C     6.0000    0    12.011   38.132268  -65.691341    7.657940
  12 C     6.0000    0    12.011   40.482015  -66.832736    7.857485
  13 C     6.0000    0    12.011   42.692126  -65.394758    7.552202
  14 C     6.0000    0    12.011   42.502761  -62.848232    7.009040
  15 C     6.0000    0    12.011   40.131796  -61.720865    6.783075
  16 C     6.0000    0    12.011   33.582074  -65.365351    0.722296
  17 C     6.0000    0    12.011   31.008292  -61.746921    5.191486
  18 O     8.0000    0    15.999   36.525051  -60.913975   -8.254571
  19 O     8.0000    0    15.999   43.211497  -60.222945   -2.234443
  20 O     8.0000    0    15.999   41.552242  -60.854491   -7.312301
  21 O     8.0000    0    15.999   45.009756  -66.505371    7.776408
  22 O     8.0000    0    15.999   40.899364  -69.334301    8.341058
  23 C     6.0000    0    12.011   41.550655  -63.050369   -8.916455
  24 C     6.0000    0    12.011   43.221686  -65.118029   -7.749314
  25 C     6.0000    0    12.011   42.205908  -66.131040   -5.290296
  26 C     6.0000    0    12.011   42.522643  -62.109551  -11.468140
  27 O     8.0000    0    15.999   42.134264  -63.879935  -13.453057
  28 C     6.0000    0    12.011   43.625863  -65.859314   -3.089936
  29 C     6.0000    0    12.011   42.663913  -66.649437   -0.783915
  30 C     6.0000    0    12.011   40.275048  -67.778476   -0.682608
  31 C     6.0000    0    12.011   38.889200  -68.124727   -2.875090
  32 C     6.0000    0    12.011   39.847048  -67.289298   -5.171849
  33 C     6.0000    0    12.011   44.883399  -58.735141   -3.756413
  34 C     6.0000    0    12.011   33.898130  -61.094897   -8.823153
  35 C     6.0000    0    12.011   38.762983  -70.959559    8.598661
  36 O     8.0000    0    15.999   43.396330  -67.077432   -9.636697
  37 O     8.0000    0    15.999   33.893026  -67.811113    1.829622
  38 O     8.0000    0    15.999   29.039327  -62.812391    3.675707
  39 O     8.0000    0    15.999   43.835065  -66.405513    1.493703
  40 O     8.0000    0    15.999   39.302050  -68.542805    1.590528
  41 C     6.0000    0    12.011   46.226821  -65.156931    1.570784
  42 H     1.0000    0     1.008   33.541282  -60.898262   -4.110091
  43 H     1.0000    0     1.008   39.752566  -60.198273    1.024582
  44 H     1.0000    0     1.008   32.706086  -60.335793    0.249380
  45 H     1.0000    0     1.008   35.105245  -59.191685    2.230040
  46 H     1.0000    0     1.008   36.703075  -63.724441    2.589837
  47 H     1.0000    0     1.008   33.238668  -65.060265    5.627545
  48 H     1.0000    0     1.008   34.457007  -61.887944    8.775562
  49 H     1.0000    0     1.008   35.637415  -59.879409    6.429966
  50 H     1.0000    0     1.008   36.440650  -66.806603    7.913295
  51 H     1.0000    0     1.008   44.214488  -61.756887    6.754000
  52 H     1.0000    0     1.008   40.011619  -59.725836    6.341405
  53 H     1.0000    0     1.008   31.556867  -65.091874    0.479777
  54 H     1.0000    0     1.008   34.458459  -65.326374   -1.149977
  55 H     1.0000    0     1.008   30.420803  -61.705419    7.177802
  56 H     1.0000    0     1.008   31.185621  -59.789555    4.566123
  57 H     1.0000    0     1.008   44.767781  -68.290235    8.106499
  58 H     1.0000    0     1.008   39.636147  -63.764641   -9.160558
  59 H     1.0000    0     1.008   45.097498  -64.307543   -7.426634
  60 H     1.0000    0     1.008   44.526792  -61.602186  -11.299069
  61 H     1.0000    0     1.008   41.471431  -60.408210  -11.962943
  62 H     1.0000    0     1.008   42.834540  -65.469294  -12.864638
  63 H     1.0000    0     1.008   45.453276  -64.956922   -3.182156
  64 H     1.0000    0     1.008   37.051612  -69.015418   -2.760960
  65 H     1.0000    0     1.008   38.732612  -67.530148   -6.869398
  66 H     1.0000    0     1.008   46.404762  -58.143025   -2.502954
  67 H     1.0000    0     1.008   45.649378  -59.831111   -5.319324
  68 H     1.0000    0     1.008   43.915079  -57.071386   -4.496804
  69 H     1.0000    0     1.008   33.076494  -62.806258   -8.011027
  70 H     1.0000    0     1.008   32.871848  -59.443084   -8.129567
  71 H     1.0000    0     1.008   33.774050  -61.174545  -10.872482
  72 H     1.0000    0     1.008   39.520300  -72.841080    8.923226
  73 H     1.0000    0     1.008   37.595471  -70.391168   10.203595
  74 H     1.0000    0     1.008   37.623319  -70.952122    6.877476
  75 H     1.0000    0     1.008   44.533968  -68.366601   -9.026294
  76 H     1.0000    0     1.008   35.693777  -68.143716    1.951964
  77 H     1.0000    0     1.008   28.754603  -64.526774    4.230608
  78 H     1.0000    0     1.008   40.429979  -67.998873    2.929970
  79 H     1.0000    0     1.008   47.624726  -66.193419    0.459523
  80 H     1.0000    0     1.008   46.062587  -63.229631    0.856593
  81 H     1.0000    0     1.008   46.781117  -65.139974    3.545672

--------------------------------
INTERNAL COORDINATES (ANGSTROEM)
--------------------------------
 C      0   0   0     0.000000000000     0.00000000     0.00000000
 C      1   0   0     1.397091750735     0.00000000     0.00000000
 C      2   1   0     1.405777674747   118.68823333     0.00000000
 C      3   2   1     1.390746298657   120.42901203   353.98325119
 C      4   3   2     1.394980345026   120.45142813     2.11401499
 C      5   4   3     1.387273641711   118.97106262     2.06083664
 C      5   4   3     1.507680135547   120.87704600   182.59573687
 C      7   5   4     1.542139237448   112.80921936   105.76858650
 C      8   7   5     1.542959406132   113.38725271   162.03395985
 C      9   8   7     1.542361997430   111.83529952   282.29043158
 C     10   9   8     1.508071248937   114.89242435   303.86725740
 C     11  10   9     1.400431803282   120.53219648   304.94613174
 C     12  11  10     1.386395328679   120.65692952   180.40792079
 C     13  12  11     1.404620885385   120.13242774     0.89835752
 C     14  13  12     1.381515548031   119.46974941   358.87942455
 C     11  10   9     1.389452958179   120.97112687   125.30683199
 C      8   7   5     1.530423074566   110.76908861   290.36436912
 C      9   8   7     1.529301189103   115.37830675    46.07608110
 O      3   2   1     1.361537856178   115.62092592   174.71173791
 O      1   2   3     1.364432075946   123.86564045   182.62645417
 O      2   1   3     1.374868374182   120.05375076   176.54448782
 O     14  13  12     1.365147578682   120.31888957   179.23330071
 O     13  12  11     1.366246119023   125.54648184   180.98099225
 C     21   2   1     1.439050128529   118.79837101   122.84151346
 C     24  21   2     1.536417844534   109.72965011   274.14423500
 C     25  24  21     1.506507831962   113.28290360    65.72829278
 C     24  21   2     1.528305129270   104.94791017   152.24804036
 O     27  24  21     1.422393795907   112.90814919   193.00624259
 C     26  25  24     1.393223306992   119.51964104   241.76830170
 C     29  26  25     1.386744809389   120.42018402   176.33321282
 C     30  29  26     1.399237392727   119.60969835     1.46427689
 C     31  30  29     1.384730886566   120.18981669     0.56146739
 C     32  31  30     1.389078984014   119.85012816   358.34058032
 C     20   1   2     1.432224360795   119.86236350    42.09879179
 C     19   3   2     1.425514749419   118.39673175   177.33021020
 C     23  13  12     1.427008101602   118.28032695     1.89696350
 O     25  24  21     1.442624486131   105.68891047   187.98550874
 O     17   8   7     1.430210008078   112.92044200   172.78434147
 O     18   9   8     1.430701384335   114.78564060    58.97439241
 O     30  29  26     1.361399082211   125.68703467   182.32832431
 O     31  30  29     1.369544325697   119.96090251   180.59855125
 C     40  30  29     1.428326885215   118.19840811     2.24965464
 H      4   3   2     1.079956826580   120.25468735   182.03791212
 H      6   5   4     1.082809469240   120.89284846   178.18410928
 H      7   5   4     1.092511662343   109.62130793   343.05010630
 H      7   5   4     1.092430963988   108.90289011   226.53471154
 H      8   7   5     1.094224764445   106.74331059    45.22895481
 H      9   8   7     1.094516583794   106.83041509   164.97735407
 H     10   9   8     1.095264825180   107.95299035   181.72632728
 H     10   9   8     1.093347986461   109.66676192    66.51234502
 H     12  11  10     1.080686394587   119.64145556     0.70966600
 H     15  14  13     1.082692845936   119.04835634   180.73213724
 H     16  11  10     1.083153977426   119.56381662   358.92456551
 H     17   8   7     1.089008667041   110.56686339   291.82267535
 H     17   8   7     1.094127210646   109.08493113    50.36554565
 H     18   9   8     1.096344842006   108.60266904   182.29238528
 H     18   9   8     1.091415093315   110.68786784   299.74584247
 H     22  14  13     0.969023435679   108.45574232     1.34488010
 H     24  21   2     1.089014377929   110.53475763    35.17101323
 H     25  24  21     1.094729480069   107.79214745   304.84135422
 H     27  24  21     1.097659268397   109.44120359    68.62853154
 H     27  24  21     1.090212509318   108.02840626   311.16117587
 H     28  27  24     0.970385564783   106.18408464   308.09782441
 H     29  26  25     1.079606323804   119.40381291   358.84473890
 H     32  31  30     1.082304860403   119.12384269   179.50300402
 H     33  32  31     1.082118854634   119.33988643   181.36362387
 H     34  20   1     1.089167751554   105.80029893   154.08690597
 H     34  20   1     1.088429792362   111.37288520   273.49684694
 H     34  20   1     1.091427623462   110.81083074    35.50402486
 H     35  19   3     1.092643997473   111.14255048   299.46400069
 H     35  19   3     1.092568780030   111.10562440    61.61614071
 H     35  19   3     1.087261729645   105.78439115   180.52713369
 H     36  23  13     1.086939955034   105.96663969   178.58722709
 H     36  23  13     1.092461350832   110.87690088   297.61570293
 H     36  23  13     1.092384731646   110.82756661    59.53186801
 H     37  25  24     0.965479476611   108.43183415   175.93752226
 H     38  17   8     0.971194420871   107.70978222   297.46307634
 H     39  18   9     0.965381108184   108.26865287    60.95117734
 H     41  31  30     0.970313853519   108.82794928     5.95110318
 H     42  40  30     1.092638406469   110.63053064   297.61813840
 H     42  40  30     1.091122894958   110.60420712    59.34835920
 H     42  40  30     1.085486560578   105.70980436   178.76417761

---------------------------
INTERNAL COORDINATES (A.U.)
---------------------------
 C      0   0   0     0.000000000000     0.00000000     0.00000000
 C      1   0   0     2.640120792850     0.00000000     0.00000000
 C      2   1   0     2.656534810453   118.68823333     0.00000000
 C      3   2   1     2.628129626227   120.42901203   353.98325119
 C      4   3   2     2.636130814301   120.45142813     2.11401499
 C      5   4   3     2.621567255641   118.97106262     2.06083664
 C      5   4   3     2.849102553738   120.87704600   182.59573687
 C      7   5   4     2.914220819151   112.80921936   105.76858650
 C      8   7   5     2.915770713347   113.38725271   162.03395985
 C      9   8   7     2.914641774511   111.83529952   282.29043158
 C     10   9   8     2.849841650931   114.89242435   303.86725740
 C     11  10   9     2.646432577437   120.53219648   304.94613174
 C     12  11  10     2.619907484550   120.65692952   180.40792079
 C     13  12  11     2.654348795364   120.13242774     0.89835752
 C     14  13  12     2.610686035532   119.46974941   358.87942455
 C     11  10   9     2.625685566926   120.97112687   125.30683199
 C      8   7   5     2.892080479963   110.76908861   290.36436912
 C      9   8   7     2.889960423685   115.37830675    46.07608110
 O      3   2   1     2.572933669142   115.62092592   174.71173791
 O      1   2   3     2.578402951876   123.86564045   182.62645417
 O      2   1   3     2.598124697393   120.05375076   176.54448782
 O     14  13  12     2.579755056095   120.31888957   179.23330071
 O     13  12  11     2.581830996485   125.54648184   180.98099225
 C     21   2   1     2.719410635905   118.79837101   122.84151346
 C     24  21   2     2.903408953439   109.72965011   274.14423500
 C     25  24  21     2.846887221016   113.28290360    65.72829278
 C     24  21   2     2.888078143387   104.94791017   152.24804036
 O     27  24  21     2.687934728853   112.90814919   193.00624259
 C     26  25  24     2.632810493611   119.51964104   241.76830170
 C     29  26  25     2.620567907382   120.42018402   176.33321282
 C     30  29  26     2.644175468595   119.60969835     1.46427689
 C     31  30  29     2.616762144791   120.18981669     0.56146739
 C     32  31  30     2.624978858172   119.85012816   358.34058032
 C     20   1   2     2.706511804233   119.86236350    42.09879179
 C     19   3   2     2.693832476268   118.39673175   177.33021020
 C     23  13  12     2.696654502915   118.28032695     1.89696350
 O     25  24  21     2.726165192877   105.68891047   187.98550874
 O     17   8   7     2.702705229260   112.92044200   172.78434147
 O     18   9   8     2.703633795815   114.78564060    58.97439241
 O     30  29  26     2.572671424351   125.68703467   182.32832431
 O     31  30  29     2.588063703833   119.96090251   180.59855125
 C     40  30  29     2.699146642773   118.19840811     2.24965464
 H      4   3   2     2.040822638694   120.25468735   182.03791212
 H      6   5   4     2.046213352080   120.89284846   178.18410928
 H      7   5   4     2.064547839942   109.62130793   343.05010630
 H      7   5   4     2.064395342154   108.90289011   226.53471154
 H      8   7   5     2.067785133756   106.74331059    45.22895481
 H      9   8   7     2.068336592407   106.83041509   164.97735407
 H     10   9   8     2.069750563707   107.95299035   181.72632728
 H     10   9   8     2.066128263486   109.66676192    66.51234502
 H     12  11  10     2.042201322425   119.64145556     0.70966600
 H     15  14  13     2.045992965974   119.04835634   180.73213724
 H     16  11  10     2.046864378202   119.56381662   358.92456551
 H     17   8   7     2.057928138175   110.56686339   291.82267535
 H     17   8   7     2.067600783791   109.08493113    50.36554565
 H     18   9   8     2.071791499728   108.60266904   182.29238528
 H     18   9   8     2.062475624794   110.68786784   299.74584247
 H     22  14  13     1.831188910785   108.45574232     1.34488010
 H     24  21   2     2.057938930188   110.53475763    35.17101323
 H     25  24  21     2.068738908061   107.79214745   304.84135422
 H     27  24  21     2.074275405631   109.44120359    68.62853154
 H     27  24  21     2.060203070386   108.02840626   311.16117587
 H     28  27  24     1.833762961750   106.18408464   308.09782441
 H     29  26  25     2.040160284439   119.40381291   358.84473890
 H     32  31  30     2.045259779573   119.12384269   179.50300402
 H     33  32  31     2.044908279610   119.33988643   181.36362387
 H     34  20   1     2.058228764336   105.80029893   154.08690597
 H     34  20   1     2.056834223565   111.37288520   273.49684694
 H     34  20   1     2.062499303339   110.81083074    35.50402486
 H     35  19   3     2.064797917097   111.14255048   299.46400069
 H     35  19   3     2.064655776729   111.10562440    61.61614071
 H     35  19   3     2.054626904923   105.78439115   180.52713369
 H     36  23  13     2.054018839031   105.96663969   178.58722709
 H     36  23  13     2.064452764966   110.87690088   297.61570293
 H     36  23  13     2.064307975688   110.82756661    59.53186801
 H     37  25  24     1.824491798716   108.43183415   175.93752226
 H     38  17   8     1.835291478238   107.70978222   297.46307634
 H     39  18   9     1.824305909328   108.26865287    60.95117734
 H     41  31  30     1.833627447100   108.82794928     5.95110318
 H     42  40  30     2.064787351630   110.63053064   297.61813840
 H     42  40  30     2.061923449921   110.60420712    59.34835920
 H     42  40  30     2.051272321544   105.70980436   178.76417761

---------------------
BASIS SET INFORMATION
---------------------
There are 3 groups of distinct atoms

 Group   1 Type C   : 11s7p2d1f contracted to 4s5p2d1f pattern {7211/31111/11/1}
 Group   2 Type O   : 11s7p2d1f contracted to 4s5p2d1f pattern {7211/31111/11/1}
 Group   3 Type H   : 6s3p1d contracted to 3s2p1d pattern {411/21/1}

Atom   0C    basis set group =>   1
Atom   1C    basis set group =>   1
Atom   2C    basis set group =>   1
Atom   3C    basis set group =>   1
Atom   4C    basis set group =>   1
Atom   5C    basis set group =>   1
Atom   6C    basis set group =>   1
Atom   7C    basis set group =>   1
Atom   8C    basis set group =>   1
Atom   9C    basis set group =>   1
Atom  10C    basis set group =>   1
Atom  11C    basis set group =>   1
Atom  12C    basis set group =>   1
Atom  13C    basis set group =>   1
Atom  14C    basis set group =>   1
Atom  15C    basis set group =>   1
Atom  16C    basis set group =>   1
Atom  17C    basis set group =>   1
Atom  18O    basis set group =>   2
Atom  19O    basis set group =>   2
Atom  20O    basis set group =>   2
Atom  21O    basis set group =>   2
Atom  22O    basis set group =>   2
Atom  23C    basis set group =>   1
Atom  24C    basis set group =>   1
Atom  25C    basis set group =>   1
Atom  26C    basis set group =>   1
Atom  27O    basis set group =>   2
Atom  28C    basis set group =>   1
Atom  29C    basis set group =>   1
Atom  30C    basis set group =>   1
Atom  31C    basis set group =>   1
Atom  32C    basis set group =>   1
Atom  33C    basis set group =>   1
Atom  34C    basis set group =>   1
Atom  35C    basis set group =>   1
Atom  36O    basis set group =>   2
Atom  37O    basis set group =>   2
Atom  38O    basis set group =>   2
Atom  39O    basis set group =>   2
Atom  40O    basis set group =>   2
Atom  41C    basis set group =>   1
Atom  42H    basis set group =>   3
Atom  43H    basis set group =>   3
Atom  44H    basis set group =>   3
Atom  45H    basis set group =>   3
Atom  46H    basis set group =>   3
Atom  47H    basis set group =>   3
Atom  48H    basis set group =>   3
Atom  49H    basis set group =>   3
Atom  50H    basis set group =>   3
Atom  51H    basis set group =>   3
Atom  52H    basis set group =>   3
Atom  53H    basis set group =>   3
Atom  54H    basis set group =>   3
Atom  55H    basis set group =>   3
Atom  56H    basis set group =>   3
Atom  57H    basis set group =>   3
Atom  58H    basis set group =>   3
Atom  59H    basis set group =>   3
Atom  60H    basis set group =>   3
Atom  61H    basis set group =>   3
Atom  62H    basis set group =>   3
Atom  63H    basis set group =>   3
Atom  64H    basis set group =>   3
Atom  65H    basis set group =>   3
Atom  66H    basis set group =>   3
Atom  67H    basis set group =>   3
Atom  68H    basis set group =>   3
Atom  69H    basis set group =>   3
Atom  70H    basis set group =>   3
Atom  71H    basis set group =>   3
Atom  72H    basis set group =>   3
Atom  73H    basis set group =>   3
Atom  74H    basis set group =>   3
Atom  75H    basis set group =>   3
Atom  76H    basis set group =>   3
Atom  77H    basis set group =>   3
Atom  78H    basis set group =>   3
Atom  79H    basis set group =>   3
Atom  80H    basis set group =>   3
Atom  81H    basis set group =>   3
---------------------------------
AUXILIARY/J BASIS SET INFORMATION
---------------------------------
There are 3 groups of distinct atoms

 Group   1 Type C   : 15s13p12d5f5g contracted to 15s13p12d5f5g pattern {111111111111111/1111111111111/111111111111/11111/11111}
 Group   2 Type O   : 15s13p12d5f5g contracted to 15s13p12d5f5g pattern {111111111111111/1111111111111/111111111111/11111/11111}
 Group   3 Type H   : 12s4p3d2f contracted to 12s4p3d2f pattern {111111111111/1111/111/11}

Atom   0C    basis set group =>   1
Atom   1C    basis set group =>   1
Atom   2C    basis set group =>   1
Atom   3C    basis set group =>   1
Atom   4C    basis set group =>   1
Atom   5C    basis set group =>   1
Atom   6C    basis set group =>   1
Atom   7C    basis set group =>   1
Atom   8C    basis set group =>   1
Atom   9C    basis set group =>   1
Atom  10C    basis set group =>   1
Atom  11C    basis set group =>   1
Atom  12C    basis set group =>   1
Atom  13C    basis set group =>   1
Atom  14C    basis set group =>   1
Atom  15C    basis set group =>   1
Atom  16C    basis set group =>   1
Atom  17C    basis set group =>   1
Atom  18O    basis set group =>   2
Atom  19O    basis set group =>   2
Atom  20O    basis set group =>   2
Atom  21O    basis set group =>   2
Atom  22O    basis set group =>   2
Atom  23C    basis set group =>   1
Atom  24C    basis set group =>   1
Atom  25C    basis set group =>   1
Atom  26C    basis set group =>   1
Atom  27O    basis set group =>   2
Atom  28C    basis set group =>   1
Atom  29C    basis set group =>   1
Atom  30C    basis set group =>   1
Atom  31C    basis set group =>   1
Atom  32C    basis set group =>   1
Atom  33C    basis set group =>   1
Atom  34C    basis set group =>   1
Atom  35C    basis set group =>   1
Atom  36O    basis set group =>   2
Atom  37O    basis set group =>   2
Atom  38O    basis set group =>   2
Atom  39O    basis set group =>   2
Atom  40O    basis set group =>   2
Atom  41C    basis set group =>   1
Atom  42H    basis set group =>   3
Atom  43H    basis set group =>   3
Atom  44H    basis set group =>   3
Atom  45H    basis set group =>   3
Atom  46H    basis set group =>   3
Atom  47H    basis set group =>   3
Atom  48H    basis set group =>   3
Atom  49H    basis set group =>   3
Atom  50H    basis set group =>   3
Atom  51H    basis set group =>   3
Atom  52H    basis set group =>   3
Atom  53H    basis set group =>   3
Atom  54H    basis set group =>   3
Atom  55H    basis set group =>   3
Atom  56H    basis set group =>   3
Atom  57H    basis set group =>   3
Atom  58H    basis set group =>   3
Atom  59H    basis set group =>   3
Atom  60H    basis set group =>   3
Atom  61H    basis set group =>   3
Atom  62H    basis set group =>   3
Atom  63H    basis set group =>   3
Atom  64H    basis set group =>   3
Atom  65H    basis set group =>   3
Atom  66H    basis set group =>   3
Atom  67H    basis set group =>   3
Atom  68H    basis set group =>   3
Atom  69H    basis set group =>   3
Atom  70H    basis set group =>   3
Atom  71H    basis set group =>   3
Atom  72H    basis set group =>   3
Atom  73H    basis set group =>   3
Atom  74H    basis set group =>   3
Atom  75H    basis set group =>   3
Atom  76H    basis set group =>   3
Atom  77H    basis set group =>   3
Atom  78H    basis set group =>   3
Atom  79H    basis set group =>   3
Atom  80H    basis set group =>   3
Atom  81H    basis set group =>   3
---------------------------------
AUXILIARY/C BASIS SET INFORMATION
---------------------------------
There are 3 groups of distinct atoms

 Group   1 Type C   : 15s13p12d5f5g contracted to 15s13p12d5f5g pattern {111111111111111/1111111111111/111111111111/11111/11111}
 Group   2 Type O   : 15s13p12d5f5g contracted to 15s13p12d5f5g pattern {111111111111111/1111111111111/111111111111/11111/11111}
 Group   3 Type H   : 12s4p3d2f contracted to 12s4p3d2f pattern {111111111111/1111/111/11}

Atom   0C    basis set group =>   1
Atom   1C    basis set group =>   1
Atom   2C    basis set group =>   1
Atom   3C    basis set group =>   1
Atom   4C    basis set group =>   1
Atom   5C    basis set group =>   1
Atom   6C    basis set group =>   1
Atom   7C    basis set group =>   1
Atom   8C    basis set group =>   1
Atom   9C    basis set group =>   1
Atom  10C    basis set group =>   1
Atom  11C    basis set group =>   1
Atom  12C    basis set group =>   1
Atom  13C    basis set group =>   1
Atom  14C    basis set group =>   1
Atom  15C    basis set group =>   1
Atom  16C    basis set group =>   1
Atom  17C    basis set group =>   1
Atom  18O    basis set group =>   2
Atom  19O    basis set group =>   2
Atom  20O    basis set group =>   2
Atom  21O    basis set group =>   2
Atom  22O    basis set group =>   2
Atom  23C    basis set group =>   1
Atom  24C    basis set group =>   1
Atom  25C    basis set group =>   1
Atom  26C    basis set group =>   1
Atom  27O    basis set group =>   2
Atom  28C    basis set group =>   1
Atom  29C    basis set group =>   1
Atom  30C    basis set group =>   1
Atom  31C    basis set group =>   1
Atom  32C    basis set group =>   1
Atom  33C    basis set group =>   1
Atom  34C    basis set group =>   1
Atom  35C    basis set group =>   1
Atom  36O    basis set group =>   2
Atom  37O    basis set group =>   2
Atom  38O    basis set group =>   2
Atom  39O    basis set group =>   2
Atom  40O    basis set group =>   2
Atom  41C    basis set group =>   1
Atom  42H    basis set group =>   3
Atom  43H    basis set group =>   3
Atom  44H    basis set group =>   3
Atom  45H    basis set group =>   3
Atom  46H    basis set group =>   3
Atom  47H    basis set group =>   3
Atom  48H    basis set group =>   3
Atom  49H    basis set group =>   3
Atom  50H    basis set group =>   3
Atom  51H    basis set group =>   3
Atom  52H    basis set group =>   3
Atom  53H    basis set group =>   3
Atom  54H    basis set group =>   3
Atom  55H    basis set group =>   3
Atom  56H    basis set group =>   3
Atom  57H    basis set group =>   3
Atom  58H    basis set group =>   3
Atom  59H    basis set group =>   3
Atom  60H    basis set group =>   3
Atom  61H    basis set group =>   3
Atom  62H    basis set group =>   3
Atom  63H    basis set group =>   3
Atom  64H    basis set group =>   3
Atom  65H    basis set group =>   3
Atom  66H    basis set group =>   3
Atom  67H    basis set group =>   3
Atom  68H    basis set group =>   3
Atom  69H    basis set group =>   3
Atom  70H    basis set group =>   3
Atom  71H    basis set group =>   3
Atom  72H    basis set group =>   3
Atom  73H    basis set group =>   3
Atom  74H    basis set group =>   3
Atom  75H    basis set group =>   3
Atom  76H    basis set group =>   3
Atom  77H    basis set group =>   3
Atom  78H    basis set group =>   3
Atom  79H    basis set group =>   3
Atom  80H    basis set group =>   3
Atom  81H    basis set group =>   3
----------------------------------
AUXILIARY/JK BASIS SET INFORMATION
----------------------------------
There are 3 groups of distinct atoms

 Group   1 Type C   : 15s13p12d5f5g contracted to 15s13p12d5f5g pattern {111111111111111/1111111111111/111111111111/11111/11111}
 Group   2 Type O   : 15s13p12d5f5g contracted to 15s13p12d5f5g pattern {111111111111111/1111111111111/111111111111/11111/11111}
 Group   3 Type H   : 12s4p3d2f contracted to 12s4p3d2f pattern {111111111111/1111/111/11}

Atom   0C    basis set group =>   1
Atom   1C    basis set group =>   1
Atom   2C    basis set group =>   1
Atom   3C    basis set group =>   1
Atom   4C    basis set group =>   1
Atom   5C    basis set group =>   1
Atom   6C    basis set group =>   1
Atom   7C    basis set group =>   1
Atom   8C    basis set group =>   1
Atom   9C    basis set group =>   1
Atom  10C    basis set group =>   1
Atom  11C    basis set group =>   1
Atom  12C    basis set group =>   1
Atom  13C    basis set group =>   1
Atom  14C    basis set group =>   1
Atom  15C    basis set group =>   1
Atom  16C    basis set group =>   1
Atom  17C    basis set group =>   1
Atom  18O    basis set group =>   2
Atom  19O    basis set group =>   2
Atom  20O    basis set group =>   2
Atom  21O    basis set group =>   2
Atom  22O    basis set group =>   2
Atom  23C    basis set group =>   1
Atom  24C    basis set group =>   1
Atom  25C    basis set group =>   1
Atom  26C    basis set group =>   1
Atom  27O    basis set group =>   2
Atom  28C    basis set group =>   1
Atom  29C    basis set group =>   1
Atom  30C    basis set group =>   1
Atom  31C    basis set group =>   1
Atom  32C    basis set group =>   1
Atom  33C    basis set group =>   1
Atom  34C    basis set group =>   1
Atom  35C    basis set group =>   1
Atom  36O    basis set group =>   2
Atom  37O    basis set group =>   2
Atom  38O    basis set group =>   2
Atom  39O    basis set group =>   2
Atom  40O    basis set group =>   2
Atom  41C    basis set group =>   1
Atom  42H    basis set group =>   3
Atom  43H    basis set group =>   3
Atom  44H    basis set group =>   3
Atom  45H    basis set group =>   3
Atom  46H    basis set group =>   3
Atom  47H    basis set group =>   3
Atom  48H    basis set group =>   3
Atom  49H    basis set group =>   3
Atom  50H    basis set group =>   3
Atom  51H    basis set group =>   3
Atom  52H    basis set group =>   3
Atom  53H    basis set group =>   3
Atom  54H    basis set group =>   3
Atom  55H    basis set group =>   3
Atom  56H    basis set group =>   3
Atom  57H    basis set group =>   3
Atom  58H    basis set group =>   3
Atom  59H    basis set group =>   3
Atom  60H    basis set group =>   3
Atom  61H    basis set group =>   3
Atom  62H    basis set group =>   3
Atom  63H    basis set group =>   3
Atom  64H    basis set group =>   3
Atom  65H    basis set group =>   3
Atom  66H    basis set group =>   3
Atom  67H    basis set group =>   3
Atom  68H    basis set group =>   3
Atom  69H    basis set group =>   3
Atom  70H    basis set group =>   3
Atom  71H    basis set group =>   3
Atom  72H    basis set group =>   3
Atom  73H    basis set group =>   3
Atom  74H    basis set group =>   3
Atom  75H    basis set group =>   3
Atom  76H    basis set group =>   3
Atom  77H    basis set group =>   3
Atom  78H    basis set group =>   3
Atom  79H    basis set group =>   3
Atom  80H    basis set group =>   3
Atom  81H    basis set group =>   3
---------------------------------
AUXILIARY/X BASIS SET INFORMATION
---------------------------------
There are 3 groups of distinct atoms

 Group   1 Type C   : 15s13p12d5f5g contracted to 15s13p12d5f5g pattern {111111111111111/1111111111111/111111111111/11111/11111}
 Group   2 Type O   : 15s13p12d5f5g contracted to 15s13p12d5f5g pattern {111111111111111/1111111111111/111111111111/11111/11111}
 Group   3 Type H   : 12s4p3d2f contracted to 12s4p3d2f pattern {111111111111/1111/111/11}

Atom   0C    basis set group =>   1
Atom   1C    basis set group =>   1
Atom   2C    basis set group =>   1
Atom   3C    basis set group =>   1
Atom   4C    basis set group =>   1
Atom   5C    basis set group =>   1
Atom   6C    basis set group =>   1
Atom   7C    basis set group =>   1
Atom   8C    basis set group =>   1
Atom   9C    basis set group =>   1
Atom  10C    basis set group =>   1
Atom  11C    basis set group =>   1
Atom  12C    basis set group =>   1
Atom  13C    basis set group =>   1
Atom  14C    basis set group =>   1
Atom  15C    basis set group =>   1
Atom  16C    basis set group =>   1
Atom  17C    basis set group =>   1
Atom  18O    basis set group =>   2
Atom  19O    basis set group =>   2
Atom  20O    basis set group =>   2
Atom  21O    basis set group =>   2
Atom  22O    basis set group =>   2
Atom  23C    basis set group =>   1
Atom  24C    basis set group =>   1
Atom  25C    basis set group =>   1
Atom  26C    basis set group =>   1
Atom  27O    basis set group =>   2
Atom  28C    basis set group =>   1
Atom  29C    basis set group =>   1
Atom  30C    basis set group =>   1
Atom  31C    basis set group =>   1
Atom  32C    basis set group =>   1
Atom  33C    basis set group =>   1
Atom  34C    basis set group =>   1
Atom  35C    basis set group =>   1
Atom  36O    basis set group =>   2
Atom  37O    basis set group =>   2
Atom  38O    basis set group =>   2
Atom  39O    basis set group =>   2
Atom  40O    basis set group =>   2
Atom  41C    basis set group =>   1
Atom  42H    basis set group =>   3
Atom  43H    basis set group =>   3
Atom  44H    basis set group =>   3
Atom  45H    basis set group =>   3
Atom  46H    basis set group =>   3
Atom  47H    basis set group =>   3
Atom  48H    basis set group =>   3
Atom  49H    basis set group =>   3
Atom  50H    basis set group =>   3
Atom  51H    basis set group =>   3
Atom  52H    basis set group =>   3
Atom  53H    basis set group =>   3
Atom  54H    basis set group =>   3
Atom  55H    basis set group =>   3
Atom  56H    basis set group =>   3
Atom  57H    basis set group =>   3
Atom  58H    basis set group =>   3
Atom  59H    basis set group =>   3
Atom  60H    basis set group =>   3
Atom  61H    basis set group =>   3
Atom  62H    basis set group =>   3
Atom  63H    basis set group =>   3
Atom  64H    basis set group =>   3
Atom  65H    basis set group =>   3
Atom  66H    basis set group =>   3
Atom  67H    basis set group =>   3
Atom  68H    basis set group =>   3
Atom  69H    basis set group =>   3
Atom  70H    basis set group =>   3
Atom  71H    basis set group =>   3
Atom  72H    basis set group =>   3
Atom  73H    basis set group =>   3
Atom  74H    basis set group =>   3
Atom  75H    basis set group =>   3
Atom  76H    basis set group =>   3
Atom  77H    basis set group =>   3
Atom  78H    basis set group =>   3
Atom  79H    basis set group =>   3
Atom  80H    basis set group =>   3
Atom  81H    basis set group =>   3
--------------------------------------------------------------------------
WARNING: There was an error initializing an OpenFabrics device.

  Local host:   c01b01n02
  Local device: mlx5_0
--------------------------------------------------------------------------
--------------------------------------------------------------------------
WARNING: There is at least one non-excluded one OpenFabrics device found,
but there are no active ports detected (or Open MPI was unable to use
them).  This is most certainly not what you wanted.  Check your
cables, subnet manager configuration, etc.  The openib BTL will be
ignored for this job.

  Local host: c01b01n02
--------------------------------------------------------------------------


           ************************************************************
           *        Program running with 60 parallel MPI-processes    *
           *              working on a common directory               *
           ************************************************************
------------------------------------------------------------------------------
                             ORCA STARTUP CALCULATIONS
                           -- RI-GTO INTEGRALS CHOSEN --
------------------------------------------------------------------------------
------------------------------------------------------------------------------
                   ___                                                        
                  /   \      - P O W E R E D   B Y -                         
                 /     \                                                     
                 |  |  |   _    _      __       _____    __    __             
                 |  |  |  | |  | |    /  \     |  _  \  |  |  /  |          
                  \  \/   | |  | |   /    \    | | | |  |  | /  /          
                 / \  \   | |__| |  /  /\  \   | |_| |  |  |/  /          
                |  |  |   |  __  | /  /__\  \  |    /   |      \           
                |  |  |   | |  | | |   __   |  |    \   |  |\   \          
                \     /   | |  | | |  |  |  |  | |\  \  |  | \   \       
                 \___/    |_|  |_| |__|  |__|  |_| \__\ |__|  \__/        
                                                                              
                      - O R C A' S   B I G   F R I E N D -                    
                                      &                                       
                       - I N T E G R A L  F E E D E R -                       
                                                                              
 v1 FN, 2020, v2 2021, v3 2022-2024                                           
------------------------------------------------------------------------------


[c01b01n02:1578108] 53 more processes have sent help message help-mpi-btl-openib.txt / error in device init
[c01b01n02:1578108] Set MCA parameter "orte_base_help_aggregate" to 0 to see all help / error messages
[c01b01n02:1578108] 5 more processes have sent help message help-mpi-btl-openib.txt / no active ports found
----------------------
SHARK INTEGRAL PACKAGE
----------------------

Number of atoms                             ...     82
Number of basis functions                   ...   2072
Number of shells                            ...    744
Maximum angular momentum                    ...      3
Integral batch strategy                     ... SHARK/LIBINT Hybrid
RI-J (if used) integral strategy            ... SPLIT-RIJ (Revised 2003 algorithm where possible)
Printlevel                                  ...      1
Contraction scheme used                     ... SEGMENTED contraction
Prescreening option                         ... SCHWARTZ
   Thresh                                   ... 1.000e-10
   Tcut                                     ... 1.000e-11
   Tpresel                                  ... 1.000e-11 
Coulomb Range Separation                    ... NOT USED
Exchange Range Separation                   ... NOT USED
Multipole approximations                    ... NOT USED
Finite Nucleus Model                        ... NOT USED
CABS basis                                  ... NOT available
Auxiliary Coulomb fitting basis             ... AVAILABLE
   # of basis functions in Aux-J            ...  10268
   # of shells in Aux-J                     ...   2940
   Maximum angular momentum in Aux-J        ...      4
Auxiliary J/K fitting basis                 ... AVAILABLE
   # of basis functions in Aux-JK           ...  10268
   # of shells in Aux-JK                    ...   2940
   Maximum angular momentum in Aux-JK       ...      4
Auxiliary Correlation fitting basis         ... AVAILABLE
   # of basis functions in Aux-C            ...  10268
   # of shells in Aux-C                     ...   2940
   Maximum angular momentum in Aux-C        ...      4
Auxiliary 'external' fitting basis          ... NOT available

Checking pre-screening integrals            ... done (  0.0 sec) Dimension = 744
   => SHARK Basis and OBASIS are compatible. Storing Pre-screening
Shell pair information
Shell pair cut-off parameter TPreSel        ...   1.0e-11
Total number of shell pairs                 ...    277140
Shell pairs after pre-screening             ...    148477
Total number of primitive shell pairs       ...    823733
Primitive shell pairs kept                  ...    271893
          la=0 lb=0:  28259 shell pairs
          la=1 lb=0:  49349 shell pairs
          la=1 lb=1:  20197 shell pairs
          la=2 lb=0:  19371 shell pairs
          la=2 lb=1:  14748 shell pairs
          la=2 lb=2:   2634 shell pairs
          la=3 lb=0:   6723 shell pairs
          la=3 lb=1:   5077 shell pairs
          la=3 lb=2:   1781 shell pairs
          la=3 lb=3:    338 shell pairs

Checking whether 4 symmetric matrices of dimension 2072 fit in memory
:Max Core in MB      =   5000.00
 MB in use           =    183.55
 MB left             =   4816.45
 MB needed           =     65.54
 Data fit in memory  = YES
Calculating RI/J V-Matrix + Cholesky decomp.... done (  6.4 sec)
Calculating RI/JK V-Matrix + Cholesky decomp.... done (  4.0 sec)
Calculating RI/C V-Matrix + Cholesky decomp.... done (  3.9 sec)
Calculating Nuclear repulsion               ... done (  0.0 sec) ENN=   5673.667988766663 Eh

Diagonalization of the overlap matrix:
Smallest eigenvalue                        ... 7.918e-06
Time for diagonalization                   ...    2.336 sec
Threshold for overlap eigenvalues          ... 1.000e-07
Number of eigenvalues below threshold      ... 0
Time for construction of square roots      ...    0.396 sec
Total time needed                          ...    2.802 sec

-------------------
DFT GRID GENERATION
-------------------

General Integration Accuracy     IntAcc      ... 4.388
Radial Grid Type                 RadialGrid  ... OptM3 with GC (2021)
Angular Grid (max. ang.)         AngularGrid ... 4 (Lebedev-302)
Angular grid pruning method      GridPruning ... 4 (adaptive)
Weight generation scheme         WeightScheme... mBecke (2022)
Basis function cutoff            BFCut       ... 1.0000e-10
Integration weight cutoff        WCut        ... 1.0000e-14
Partially contracted basis set               ... off
Rotationally invariant grid construction     ... off
Angular grids for H and He will be reduced by one unit
Diffuse basis detected: some atoms will have their outermost
                        angular grid increased by 1.

Total number of grid points                  ...   377003
Total number of batches                      ...     5931
Average number of points per batch           ...       63
Average number of grid points per atom       ...     4598
Grids setup in   3.2 sec
Initializing property integral containers    ... done (  0.2 sec)

SHARK setup successfully completed in  25.0 seconds

Maximum memory used throughout the entire STARTUP-calculation: 255.5 MB
--------------------------------------------------------------------------
WARNING: There was an error initializing an OpenFabrics device.

  Local host:   c01b01n02
  Local device: mlx5_0
--------------------------------------------------------------------------
--------------------------------------------------------------------------
WARNING: There is at least one non-excluded one OpenFabrics device found,
but there are no active ports detected (or Open MPI was unable to use
them).  This is most certainly not what you wanted.  Check your
cables, subnet manager configuration, etc.  The openib BTL will be
ignored for this job.

  Local host: c01b01n02
--------------------------------------------------------------------------


           ************************************************************
           *        Program running with 60 parallel MPI-processes    *
           *              working on a common directory               *
           ************************************************************
-------------------------------------------------------------------------------
                                 ORCA GUESS
                   Start orbitals & Density for SCF / CASSCF
-------------------------------------------------------------------------------

------------
SCF SETTINGS
------------
Hamiltonian:
 Density Functional     Method          .... DFT(GTOs)
 Exchange Functional    Exchange        .... TPSS
 Correlation Functional Correlation     .... TPSS
 LDA part of GGA corr.  LDAOpt          .... PW91-LDA
 Gradients option       PostSCFGGA      .... off
   NL short-range parameter             ....  5.000000
 RI-approximation to the Coulomb term is turned on
   Number of AuxJ basis functions       .... 10268


General Settings:
 Integral files         IntName         .... nmr-conf-14
 Hartree-Fock type      HFTyp           .... RHF
 Total Charge           Charge          ....    0
 Multiplicity           Mult            ....    1
 Number of Electrons    NEL             ....  314
 Basis Dimension        Dim             .... 2072
 Nuclear Repulsion      ENuc            ....   5673.6679887667 Eh

Convergence Acceleration:
 AO-DIIS                CNVDIIS         .... on
   Start iteration      DIISMaxIt       ....    12
   Startup error        DIISStart       ....  0.200000
   # of expansion vecs  DIISMaxEq       ....     5
   Bias factor          DIISBfac        ....   1.050
   Max. coefficient     DIISMaxC        ....  10.000
 MO-DIIS                CNVKDIIS        .... off
 Trust-Rad. Augm. Hess. CNVTRAH         .... auto
   Auto Start mean grad. ratio tolernc. ....  1.125000
   Auto Start start iteration           ....    50
   Auto Start num. interpolation iter.  ....    10
   Max. Number of Micro iterations      ....    24
   Max. Number of Macro iterations      .... Maxiter - #DIIS iter
   Number of Davidson start vectors     ....     2
   Converg. threshold    (grad. norm)   ....   5.000e-05
   Grad. Scal. Fac. for Micro threshold ....   0.100
   Minimum threshold for Micro iter.    ....   1.000e-02
   NR start threshold (gradient norm)   ....   1.000e-04
   Initial trust radius                 ....   0.400
   Minimum AH scaling param. (alpha)    ....   1.000
   Maximum AH scaling param. (alpha)    .... 1000.000
   Quad. conv. algorithm                .... NR
   White noise on init. David. guess    .... on
   Maximum white noise                  ....   0.010
   Pseudo random numbers                .... off
   Inactive MOs                         .... canonical
   Orbital update algorithm             .... Taylor
   Preconditioner                       .... Diag
   Full preconditioner red. dimension   ....   250
 SOSCF                 CNVSOSCF           .... on
   Start iteration     SOSCFMaxIt         ....   150
   Startup grad/error  SOSCFStart         ....  0.003300
   Hessian update      SOSCFHessUp        .... L-BFGS
   Autom. constraints  SOSCFAutoConstrain .... off
 Level Shifting         CNVShift        .... on
   Level shift para.    LevelShift      ....    0.2500
   Turn off err/grad.   ShiftErr        ....    0.0010
 Zerner damping         CNVZerner       .... off
 Static damping         CNVDamp         .... on
   Fraction old density DampFac         ....    0.7000
   Max. Damping (<1)    DampMax         ....    0.9800
   Min. Damping (>=0)   DampMin         ....    0.0000
   Turn off err/grad.   DampErr         ....    0.1000

SCF Procedure:
 Maximum # iterations   MaxIter         ....   125
 SCF integral mode      SCFMode         .... Direct
   Integral package                     .... SHARK and LIBINT hybrid scheme
 Reset frequency        DirectResetFreq ....    20
 Integral Threshold     Thresh          ....  1.000e-10 Eh
 Primitive CutOff       TCut            ....  1.000e-11 Eh

Convergence Tolerance:
 Convergence Check Mode ConvCheckMode   .... Total+1el-Energy
 Convergence forced     ConvForced      .... 0
 Energy Change          TolE            ....  1.000e-06 Eh
 1-El. energy change                    ....  1.000e-03 Eh
 Orbital Gradient       TolG            ....  5.000e-05
 Orbital Rotation angle TolX            ....  5.000e-05
 DIIS Error             TolErr          ....  1.000e-06

------------------------------
INITIAL GUESS: MODEL POTENTIAL
------------------------------
Loading Hartree-Fock densities                     ... done
Calculating cut-offs                               ... done
Initializing the effective Hamiltonian             ... done
Setting up the integral package (SHARK)            ... done
Starting the Coulomb interaction                   ... done (   1.8 sec)
Making the grid                                    ... done (   0.6 sec)
Mapping shells                                     ... done
Starting the XC term evaluation                    ... done (   0.1 sec)
  promolecular density results
     # of electrons  =    313.981044828
     EX              =   -260.284767142
     EC              =    -10.631729770
     EX+EC           =   -270.916496912
Transforming the Hamiltonian                       ... [c01b01n02:1578496] 49 more processes have sent help message help-mpi-btl-openib.txt / error in device init
[c01b01n02:1578496] Set MCA parameter "orte_base_help_aggregate" to 0 to see all help / error messages
[c01b01n02:1578496] 9 more processes have sent help message help-mpi-btl-openib.txt / no active ports found
done (   0.3 sec)
Diagonalizing the Hamiltonian                      ... done (   0.5 sec)
Back transforming the eigenvectors                 ... done (   0.3 sec)
Now organizing SCF variables                       ... done
                      ------------------
                      INITIAL GUESS DONE (   4.1 sec)
                      ------------------
             **** ENERGY FILE WAS UPDATED (nmr-conf-14.en.tmp) ****
Finished Guess after   8.0 sec
Maximum memory used throughout the entire GUESS-calculation: 286.9 MB
--------------------------------------------------------------------------
WARNING: There was an error initializing an OpenFabrics device.

  Local host:   c01b01n02
  Local device: mlx5_0
--------------------------------------------------------------------------
--------------------------------------------------------------------------
WARNING: There is at least one non-excluded one OpenFabrics device found,
but there are no active ports detected (or Open MPI was unable to use
them).  This is most certainly not what you wanted.  Check your
cables, subnet manager configuration, etc.  The openib BTL will be
ignored for this job.

  Local host: c01b01n02
--------------------------------------------------------------------------


           ************************************************************
           *        Program running with 60 parallel MPI-processes    *
           *              working on a common directory               *
           ************************************************************

-------------------------------------------------------------------------------------------
                                      ORCA LEAN-SCF
                              memory conserving SCF solver
-------------------------------------------------------------------------------------------

--------------------
CPCM SOLVATION MODEL
--------------------
CPCM parameters:
  Epsilon                                         ...      33.4280
  Refrac                                          ...       1.3288
  Rsolv                                           ...       1.3000
  Surface type                                    ... GAUSSIAN VDW
  Discretization scheme                           ... Constant charge density
    Threshold for H atoms                         ...       5.0000 (charges/Ang^2)
    Threshold for non-H atoms                     ...       5.0000 (charges/Ang^2)
  Epsilon function type                           ...         CPCM
Solvent:                                          ... METHANOL
Radii:
  Scheme                                          ... Element-dependent radii
  Radius for C  used is    3.8550 Bohr (=   2.0400 Ang.)
  Radius for O  used is    3.4469 Bohr (=   1.8240 Ang.)
  Radius for H  used is    2.4944 Bohr (=   1.3200 Ang.)
Calculating surface                               ...        done! (  0.1s)
Cavity surface points                             ...         6248
Cavity Volume                                     ...    4519.9356
Cavity Surface-area                               ...    2088.7426
Calculating surface distance matrix               ...        done! (  0.2s)
Performing Cholesky decomposition & store         ...        done! (  0.7s)
Overall time for CPCM initialization              ...                 1.0s

----------------------------------------D-I-I-S--------------------------------------------
Iteration    Energy (Eh)           Delta-E    RMSDP     MaxDP     DIISErr   Damp  Time(sec)
-------------------------------------------------------------------------------------------
               ***  Starting incremental Fock matrix formation  ***
[c01b01n02:1578924] 48 more processes have sent help message help-mpi-btl-openib.txt / error in device init
[c01b01n02:1578924] Set MCA parameter "orte_base_help_aggregate" to 0 to see all help / error messages
[c01b01n02:1578924] 10 more processes have sent help message help-mpi-btl-openib.txt / no active ports found
    1    -2033.0103211528485190     0.00e+00  7.71e-03  2.93e-01  2.39e-01  0.700  14.3
    2    -2033.4199276193630794    -4.10e-01  6.24e-03  1.90e-01  8.45e-02  0.700   8.8
                               ***Turning on AO-DIIS***
    3    -2033.5729960715543712    -1.53e-01  2.73e-03  7.29e-02  2.51e-02  0.700   7.8
    4    -2033.6653168676475616    -9.23e-02  4.65e-03  9.04e-02  1.23e-02  0.000   6.7
    5    -2033.8698374042542127    -2.05e-01  1.20e-03  2.77e-02  4.86e-03  0.000   7.0
                              *** Initializing SOSCF ***
---------------------------------------S-O-S-C-F--------------------------------------
Iteration    Energy (Eh)           Delta-E    RMSDP     MaxDP     MaxGrad    Time(sec)
--------------------------------------------------------------------------------------
    6    -2033.8712269018742518    -1.39e-03  3.99e-04  7.62e-03  1.49e-03     8.4
               *** Restarting incremental Fock matrix formation ***
    7    -2033.8713382250844006    -1.11e-04  3.06e-04  5.17e-03  1.38e-04     6.9
    8    -2033.8713166903344245     2.15e-05  7.63e-05  2.15e-03  6.41e-04     8.4
    9    -2033.8713531888488433    -3.65e-05  6.52e-05  1.25e-03  1.31e-04     5.6
   10    -2033.8713526861920400     5.03e-07  1.83e-05  3.93e-04  1.17e-04     5.3
                 **** Energy Check signals convergence ****

               *****************************************************
               *                     SUCCESS                       *
               *           SCF CONVERGED AFTER  10 CYCLES          *
               *****************************************************

             **** ENERGY FILE WAS UPDATED (nmr-conf-14.en.tmp) ****

----------------
TOTAL SCF ENERGY
----------------

Total Energy       :      -2033.87135296223369 Eh          -55344.45317 eV

Components:
Nuclear Repulsion  :       5673.66798876666326 Eh          154388.35493 eV
Electronic Energy  :      -7707.49768931409290 Eh         -209731.67468 eV
One Electron Energy:     -14076.47098260013627 Eh         -383040.24883 eV
Two Electron Energy:       6368.97329328604337 Eh          173308.57415 eV
CPCM Dielectric    :         -0.04165241480417 Eh              -1.13342 eV

Virial components:
Potential Energy   :      -4061.11605833715566 Eh         -110508.58610 eV
Kinetic Energy     :       2027.24470537492221 Eh           55164.13292 eV
Virial Ratio       :          2.00326879511375

DFT components:
N(Alpha)           :      157.000419157664 electrons
N(Beta)            :      157.000419157664 electrons
N(Total)           :      314.000838315328 electrons
E(X)               :     -268.090031358253 Eh       
E(C)               :      -10.600217545332 Eh       
E(XC)              :     -278.690248903586 Eh       

CPCM Solvation Model Properties:
Surface-charge          :         -0.04325596501819
Corrected charge        :          0.00000000000000
Outlying charge corr.   :          0.00008000362495 Eh               0.00218 eV
Free-energy (cav+disp)  :  This term is not implemented in the current solvation scheme

---------------
SCF CONVERGENCE
---------------

  Last Energy change         ...   -5.0266e-07  Tolerance :   1.0000e-06
  Last MAX-Density change    ...    3.9343e-04  Tolerance :   1.0000e-05
  Last RMS-Density change    ...    1.8330e-05  Tolerance :   1.0000e-06
  Last DIIS Error            ...    1.4861e-03  Tolerance :   1.0000e-06
  Last Orbital Gradient      ...    1.1719e-04  Tolerance :   5.0000e-05
  Last Orbital Rotation      ...    2.3928e-04  Tolerance :   5.0000e-05


----------------
ORBITAL ENERGIES
----------------

  NO   OCC          E(Eh)            E(eV) 
   0   2.0000     -18.920132      -514.8430 
   1   2.0000     -18.919165      -514.8167 
   2   2.0000     -18.917180      -514.7626 
   3   2.0000     -18.912378      -514.6320 
   4   2.0000     -18.910155      -514.5715 
   5   2.0000     -18.902685      -514.3682 
   6   2.0000     -18.900891      -514.3194 
   7   2.0000     -18.893394      -514.1154 
   8   2.0000     -18.877354      -513.6789 
   9   2.0000     -18.874106      -513.5905 
  10   2.0000     -18.866824      -513.3924 
  11   2.0000     -10.046665      -273.3837 
  12   2.0000     -10.045464      -273.3510 
  13   2.0000     -10.045033      -273.3393 
  14   2.0000     -10.045025      -273.3390 
  15   2.0000     -10.043952      -273.3098 
  16   2.0000     -10.042642      -273.2742 
  17   2.0000     -10.042361      -273.2665 
  18   2.0000     -10.040425      -273.2139 
  19   2.0000     -10.036747      -273.1138 
  20   2.0000     -10.036274      -273.1009 
  21   2.0000     -10.033659      -273.0297 
  22   2.0000     -10.031977      -272.9840 
  23   2.0000     -10.029567      -272.9184 
  24   2.0000     -10.027399      -272.8594 
  25   2.0000     -10.024615      -272.7837 
  26   2.0000     -10.015771      -272.5430 
  27   2.0000      -9.989590      -271.8306 
  28   2.0000      -9.988592      -271.8034 
  29   2.0000      -9.988112      -271.7904 
  30   2.0000      -9.986986      -271.7597 
  31   2.0000      -9.986846      -271.7559 
  32   2.0000      -9.984641      -271.6959 
  33   2.0000      -9.983993      -271.6783 
  34   2.0000      -9.983327      -271.6602 
  35   2.0000      -9.983089      -271.6537 
  36   2.0000      -9.983063      -271.6529 
  37   2.0000      -9.982252      -271.6309 
  38   2.0000      -9.980984      -271.5964 
  39   2.0000      -9.979496      -271.5559 
  40   2.0000      -9.976788      -271.4822 
  41   2.0000      -9.972475      -271.3649 
  42   2.0000      -1.014805       -27.6142 
  43   2.0000      -1.011845       -27.5337 
  44   2.0000      -1.007018       -27.4024 
  45   2.0000      -0.991509       -26.9803 
  46   2.0000      -0.988999       -26.9120 
  47   2.0000      -0.984168       -26.7806 
  48   2.0000      -0.978530       -26.6272 
  49   2.0000      -0.966241       -26.2927 
  50   2.0000      -0.949268       -25.8309 
  51   2.0000      -0.946422       -25.7535 
  52   2.0000      -0.939396       -25.5623 
  53   2.0000      -0.798389       -21.7253 
  54   2.0000      -0.797653       -21.7052 
  55   2.0000      -0.794334       -21.6149 
  56   2.0000      -0.758638       -20.6436 
  57   2.0000      -0.734551       -19.9882 
  58   2.0000      -0.718114       -19.5409 
  59   2.0000      -0.702352       -19.1120 
  60   2.0000      -0.700241       -19.0545 
  61   2.0000      -0.698996       -19.0207 
  62   2.0000      -0.696880       -18.9631 
  63   2.0000      -0.686993       -18.6940 
  64   2.0000      -0.668999       -18.2044 
  65   2.0000      -0.650217       -17.6933 
  66   2.0000      -0.649141       -17.6640 
  67   2.0000      -0.643037       -17.4979 
  68   2.0000      -0.633234       -17.2312 
  69   2.0000      -0.623691       -16.9715 
  70   2.0000      -0.614995       -16.7349 
  71   2.0000      -0.612609       -16.6699 
  72   2.0000      -0.576614       -15.6905 
  73   2.0000      -0.570016       -15.5109 
  74   2.0000      -0.562679       -15.3113 
  75   2.0000      -0.559156       -15.2154 
  76   2.0000      -0.550413       -14.9775 
  77   2.0000      -0.543792       -14.7973 
  78   2.0000      -0.538267       -14.6470 
  79   2.0000      -0.531428       -14.4609 
  80   2.0000      -0.513136       -13.9631 
  81   2.0000      -0.511677       -13.9234 
  82   2.0000      -0.504620       -13.7314 
  83   2.0000      -0.501849       -13.6560 
  84   2.0000      -0.485503       -13.2112 
  85   2.0000      -0.476174       -12.9574 
  86   2.0000      -0.472318       -12.8524 
  87   2.0000      -0.466632       -12.6977 
  88   2.0000      -0.462079       -12.5738 
  89   2.0000      -0.456994       -12.4354 
  90   2.0000      -0.449742       -12.2381 
  91   2.0000      -0.446416       -12.1476 
  92   2.0000      -0.443529       -12.0690 
  93   2.0000      -0.441449       -12.0124 
  94   2.0000      -0.431560       -11.7433 
  95   2.0000      -0.431014       -11.7285 
  96   2.0000      -0.428952       -11.6724 
  97   2.0000      -0.425155       -11.5690 
  98   2.0000      -0.424468       -11.5504 
  99   2.0000      -0.421652       -11.4737 
 100   2.0000      -0.418188       -11.3795 
 101   2.0000      -0.413881       -11.2623 
 102   2.0000      -0.411958       -11.2099 
 103   2.0000      -0.404548       -11.0083 
 104   2.0000      -0.401255       -10.9187 
 105   2.0000      -0.400872       -10.9083 
 106   2.0000      -0.398665       -10.8482 
 107   2.0000      -0.394892       -10.7456 
 108   2.0000      -0.385791       -10.4979 
 109   2.0000      -0.383717       -10.4415 
 110   2.0000      -0.382004       -10.3949 
 111   2.0000      -0.380210       -10.3460 
 112   2.0000      -0.376620       -10.2484 
 113   2.0000      -0.375666       -10.2224 
 114   2.0000      -0.373282       -10.1575 
 115   2.0000      -0.370175       -10.0730 
 116   2.0000      -0.368438       -10.0257 
 117   2.0000      -0.365221        -9.9382 
[...]
 
 sDSO          -176.350          -57.344           51.385  iso=     -60.770
 sPSO           199.331           83.062          -17.781  iso=      88.204
        ---------------  ---------------  ---------------
 Total           22.981           25.717           33.604  iso=      27.434

 Orientation: 
  X          -0.1385456   -0.9792704   -0.1477654
  Y           0.3086336    0.0990811   -0.9460065
  Z           0.9410369   -0.1766705    0.2885085

 --------------
 Nucleus  73H :
 --------------

Diamagnetic contribution to the shielding tensor (ppm) : 
            -1.655         61.357        -5.654
           -16.059         55.879        -2.827
            52.892       -177.061       -40.616

Paramagnetic contribution to the shielding tensor (ppm): 
            30.389        -60.574         1.879
            18.660        -29.827        -0.715
           -56.500        173.826        69.048

Total shielding tensor (ppm): 
            28.734          0.782        -3.775
             2.601         26.052        -3.542
            -3.609         -3.235        28.432


 Diagonalized sT*s matrix:
 
 sDSO           -58.161           40.243           31.526  iso=       4.536
 sPSO            81.629          -14.422            2.403  iso=      23.203
        ---------------  ---------------  ---------------
 Total           23.468           25.821           33.929  iso=      27.739

 Orientation: 
  X           0.2486953    0.7454680   -0.6184077
  Y           0.7087675   -0.5752210   -0.4083741
  Z           0.6601509    0.3367466    0.6714183

 --------------
 Nucleus  74H :
 --------------

Diamagnetic contribution to the shielding tensor (ppm) : 
           -37.774         83.325        19.967
           -42.837         86.213         2.395
            15.622        -74.524      -100.734

Paramagnetic contribution to the shielding tensor (ppm): 
            66.166        -81.504       -16.728
            46.580        -58.421        -2.831
           -13.226         74.567       128.017

Total shielding tensor (ppm): 
            28.392          1.821         3.238
             3.743         27.792        -0.436
             2.396          0.042        27.283


 Diagonalized sT*s matrix:
 
 sDSO           -72.821           30.559          -10.033  iso=     -17.432
 sPSO            96.684           -2.819           41.897  iso=      45.254
        ---------------  ---------------  ---------------
 Total           23.863           27.740           31.865  iso=      27.822

 Orientation: 
  X          -0.6520496   -0.0464132   -0.7567544
  Y           0.5079669    0.7142388   -0.4814900
  Z           0.5628508   -0.6983615   -0.4421427

 --------------
 Nucleus  75H :
 --------------

Diamagnetic contribution to the shielding tensor (ppm) : 
           -69.598       -143.711        40.977
           -68.964        -50.255        41.187
          -115.437        162.812      -169.668

Paramagnetic contribution to the shielding tensor (ppm): 
            98.024        135.390       -40.247
            58.366         83.640       -39.958
           117.647       -163.377       196.212

Total shielding tensor (ppm): 
            28.426         -8.321         0.729
           -10.599         33.386         1.229
             2.210         -0.565        26.545


 Diagonalized sT*s matrix:
 
 sDSO          -181.333         -148.456           40.268  iso=     -96.507
 sPSO           202.143          175.300            0.433  iso=     125.959
        ---------------  ---------------  ---------------
 Total           20.810           26.845           40.702  iso=      29.452

 Orientation: 
  X           0.7612613    0.1619779   -0.6278888
  Y           0.6064328    0.1650287    0.7778205
  Z          -0.2296094    0.9728971   -0.0274012

 --------------
 Nucleus  76H :
 --------------

Diamagnetic contribution to the shielding tensor (ppm) : 
           -57.971         69.028        43.525
           -75.657         90.542        21.454
           -25.356        -84.540       -96.661

Paramagnetic contribution to the shielding tensor (ppm): 
           101.798        -74.444       -43.393
            69.092        -67.617       -23.227
            27.647         83.876       116.384

Total shielding tensor (ppm): 
            43.827         -5.417         0.132
            -6.565         22.925        -1.772
             2.292         -0.663        19.723


 Diagonalized sT*s matrix:
 
 sDSO           -88.180           69.794          -45.703  iso=     -21.363
 sPSO           107.458          -48.098           91.204  iso=      50.188
        ---------------  ---------------  ---------------
 Total           19.278           21.696           45.501  iso=      28.825

 Orientation: 
  X           0.0631225    0.2457284   -0.9672813
  Y           0.4054634    0.8793066    0.2498389
  Z           0.9119293   -0.4079676   -0.0441299

 --------------
 Nucleus  77H :
 --------------

Diamagnetic contribution to the shielding tensor (ppm) : 
           -14.354        142.828       -16.452
           -20.988        122.214        -8.293
            -3.119        -78.321        61.636

Paramagnetic contribution to the shielding tensor (ppm): 
            44.373       -137.091        16.395
            25.456        -85.090         3.944
             3.536         75.247       -37.245

Total shielding tensor (ppm): 
            30.019          5.737        -0.057
             4.468         37.124        -4.349
             0.417         -3.073        24.391


 Diagonalized sT*s matrix:
 
 sDSO            30.429          -19.334          158.401  iso=      56.499
 sPSO            -7.453           47.454         -117.964  iso=     -25.988
        ---------------  ---------------  ---------------
 Total           22.975           28.121           40.438  iso=      30.511

 Orientation: 
  X          -0.2655700   -0.8681498   -0.4192713
  Y           0.3395243    0.3228082   -0.8834694
  Z           0.9023280   -0.3769758    0.2090298

 --------------
 Nucleus  78H :
 --------------

Diamagnetic contribution to the shielding tensor (ppm) : 
           -17.275         10.457        23.683
           -42.746         55.592        12.391
            11.888        -92.633       -80.014

Paramagnetic contribution to the shielding tensor (ppm): 
            44.274         -5.225       -20.413
            47.481        -37.733       -11.491
            -7.450         97.131       115.127

Total shielding tensor (ppm): 
            26.999          5.232         3.270
             4.736         17.859         0.900
             4.438          4.498        35.113


 Diagonalized sT*s matrix:
 
 sDSO            62.006          -35.834          -67.868  iso=     -13.899
 sPSO           -46.369           62.524          105.514  iso=      40.556
        ---------------  ---------------  ---------------
 Total           15.637           26.690           37.646  iso=      26.657

 Orientation: 
  X           0.3917194    0.8150446    0.4269171
  Y          -0.9167730    0.3064173    0.2561947
  Z           0.0779953   -0.4917425    0.8672405

 --------------
 Nucleus  79H :
 --------------

Diamagnetic contribution to the shielding tensor (ppm) : 
            -0.366       -212.221        -4.559
           -39.198        -94.952         2.597
           -26.354        -17.121      -136.071

Paramagnetic contribution to the shielding tensor (ppm): 
            34.033        210.961         2.558
            37.353        118.579        -3.687
            25.417         17.199       162.584

Total shielding tensor (ppm): 
            33.666         -1.260        -2.001
            -1.845         23.627        -1.090
            -0.937          0.079        26.513


 Diagonalized sT*s matrix:
 
 sDSO          -139.411         -122.773           30.795  iso=     -77.130
 sPSO           162.638          149.203            3.356  iso=     105.065
        ---------------  ---------------  ---------------
 Total           23.227           26.430           34.150  iso=      27.936

 Orientation: 
  X          -0.1705987    0.1505662   -0.9737689
  Y          -0.9621842   -0.2384461    0.1317001
  Z          -0.2123618    0.9594130    0.1855510

 --------------
 Nucleus  80H :
 --------------

Diamagnetic contribution to the shielding tensor (ppm) : 
           120.808       -152.998        -2.457
            49.384        -44.075        -7.884
            -5.960        -50.081        41.447

Paramagnetic contribution to the shielding tensor (ppm): 
           -93.984        156.431         2.260
           -47.489         73.395         5.880
             6.481         48.278       -14.294

Total shielding tensor (ppm): 
            26.824          3.433        -0.197
             1.895         29.320        -2.004
             0.521         -1.803        27.153


 Diagonalized sT*s matrix:
 
 sDSO            80.959           59.430          -22.208  iso=      39.394
 sPSO           -56.422          -32.232           53.771  iso=     -11.628
        ---------------  ---------------  ---------------
 Total           24.538           27.198           31.562  iso=      27.766

 Orientation: 
  X           0.6931271    0.5718363   -0.4388370
  Y          -0.5559591    0.0366169   -0.8304027
  Z          -0.4587856    0.8195501    0.3432978

 --------------
 Nucleus  81H :
 --------------

Diamagnetic contribution to the shielding tensor (ppm) : 
            25.911       -100.589        -1.615
           -11.329        -29.311       -10.454
            11.806        -84.565       -89.044

Paramagnetic contribution to the shielding tensor (ppm): 
             2.873        102.812         4.350
            12.779         51.563        10.680
           -12.829         83.726       119.257

Total shielding tensor (ppm): 
            28.785          2.222         2.735
             1.450         22.253         0.226
            -1.023         -0.839        30.213


 Diagonalized sT*s matrix:
 
 sDSO            -2.293          -18.949          -71.200  iso=     -30.814
 sPSO            24.035           47.811          101.848  iso=      57.898
        ---------------  ---------------  ---------------
 Total           21.741           28.862           30.647  iso=      27.083

 Orientation: 
  X          -0.2681281   -0.8542960    0.4452928
  Y           0.9615458   -0.2658474    0.0689547
  Z           0.0594722    0.4466582    0.8927259



--------------------------------
CHEMICAL SHIELDING SUMMARY (ppm)
--------------------------------


  Nucleus  Element    Isotropic     Anisotropy
  -------  -------  ------------   ------------
      0       C           24.337        121.059 
      1       C           40.900         91.135 
      2       C           25.516        118.447 
      3       C           74.059        127.263 
      4       C           39.922        191.571 
      5       C           67.448        121.736 
      6       C          147.590         31.778 
      7       C          133.021         19.243 
      8       C          139.000         25.349 
      9       C          143.982         36.973 
     10       C           44.445        182.989 
     11       C           70.186        154.861 
     12       C           30.801        118.179 
     13       C           31.957        123.592 
     14       C           67.131        145.015 
     15       C           56.137        147.205 
     16       C          112.045         63.480 
     17       C          107.877         72.865 
     23       C           95.841         47.967 
     24       C           93.551         30.016 
     25       C           44.059        177.823 
     26       C          107.776         61.532 
     28       C           67.306        144.010 
     29       C           32.932        116.901 
     30       C           33.071        119.619 
     31       C           67.030        148.056 
     32       C           61.540        174.654 
     33       C          117.990         88.450 
     34       C          124.790         78.861 
     35       C          124.075         79.555 
     41       C          125.085         77.846 
     42       H           25.510         10.035 
     43       H           25.926          7.523 
     44       H           29.670          6.802 
     45       H           28.978          4.727 
     46       H           30.796          5.350 
     47       H           28.688          3.801 
     48       H           28.952          8.385 
     49       H           29.346          4.464 
     50       H           24.548          9.811 
     51       H           24.570          2.874 
     52       H           24.695          5.801 
     53       H           27.869          4.906 
     54       H           28.258          7.167 
     55       H           27.543          6.554 
     56       H           27.929          4.028 
     57       H           25.253         13.083 
     58       H           26.876          4.814 
     59       H           26.834          5.881 
     60       H           27.338          4.222 
     61       H           27.569          3.301 
     62       H           27.809         19.296 
     63       H           24.800          8.768 
     64       H           25.151          5.582 
     65       H           24.990          6.310 
     66       H           27.814          9.808 
     67       H           26.938          6.018 
     68       H           28.284          9.612 
     69       H           27.942          7.214 
     70       H           27.999          9.640 
     71       H           27.477          9.460 
     72       H           27.434          9.255 
     73       H           27.739          9.284 
     74       H           27.822          6.064 
     75       H           29.452         16.874 
     76       H           28.825         25.014 
     77       H           30.511         14.890 
     78       H           26.657         16.482 
     79       H           27.936          9.322 
     80       H           27.766          5.695 
     81       H           27.083          5.346 


NMR shielding tensor and spin rotation calculation done in   2.8 sec 

Maximum memory used throughout the entire PROP-calculation: 364.5 MB
--------------------------------------------------------------------------
WARNING: There was an error initializing an OpenFabrics device.

  Local host:   c01b01n02
  Local device: mlx5_0
--------------------------------------------------------------------------
--------------------------------------------------------------------------
WARNING: There is at least one non-excluded one OpenFabrics device found,
but there are no active ports detected (or Open MPI was unable to use
them).  This is most certainly not what you wanted.  Check your
cables, subnet manager configuration, etc.  The openib BTL will be
ignored for this job.

  Local host: c01b01n02
--------------------------------------------------------------------------
[c01b01n02:1581001] 52 more processes have sent help message help-mpi-btl-openib.txt / error in device init
[c01b01n02:1581001] Set MCA parameter "orte_base_help_aggregate" to 0 to see all help / error messages
[c01b01n02:1581001] 6 more processes have sent help message help-mpi-btl-openib.txt / no active ports found

--------------------------------
SUGGESTED CITATIONS FOR THIS RUN
--------------------------------

Below you find a list of papers that are relevant to this ORCA run
We neither can nor want to force you to cite these papers, but we appreciate if you do
You receive ORCA, which is the product of decades of hard work by many enthusiastic individuals, for free
The only thing we kindly ask in return is that you cite our papers,
We deeply appreciate it, if you show your appreciation for ORCA by not just citing the generic ORCA reference.

Please note that relegating all ORCA citations to the supporting information does *not* help us.
SI sections are not indexed - citations you put there will not count into any citation statistics
But we need these citations in order to attract the funding resources that allow us to do what we are doing

Therefore, if you are a happy ORCA user, please consider citing a few of the papers listed below in the main body of your paper

In addition to the list printed below, the program has created the file nmr-conf-14.bibtex that contains the list in bibtex format
You can import this file easily into all common literature databanks and citation aid programs


List of essential papers. We consider these as the minimum necessary citations

  1. Neese, F.
     Software update: the ORCA program system, version 6.0
     WIRES Comput. Molec. Sci. 2025 15(1), e70019
     doi.org/10.1002/wcms.7019

List of papers to cite with high priority. The work reported in these papers was absolutely
necessary for this run to complete.
Our perspective: the developers of density functionals and basis sets usually get cited in chemistry papers
Good! But without the algorithms to do something with them, the functionals or basis sets would not do anything.
Hence, in our opinion, the algorithm design and method developments papers are equally worthy of getting cited

  1. Neese, F.
     An improvement of the resolution of the identity approximation for the formation of the Coulomb matrix
     J. Comp. Chem. 2003 24(14), 1740-1747
     doi.org/10.1002/jcc.10318
  2. Stoychev, G.L.; Auer, A.A.; Neese, F.
     Automatic Generation of Auxiliary Basis Sets
     J. Theo. Comp. Chem. 2017 13 , 554-562
     doi.org/10.1021/acs.jctc.6b01041
  3. Stoychev, G.L.; Auer, A.A.; Izsak, R.; Neese, F.
     Self-Consistent Field Calculation of Nuclear Magnetic Resonance Chemical Shielding Constants Using Gauge-Including Atomic Orbitals and Approximate Two-Electron Integrals
     J. Chem. Theory Comput. 2018 14(2), 619-637
     doi.org/10.1021/acs.jctc.7b01006
  4. Garcia-Rates, M.; Neese, F.
     Effect of the Solute Cavity on the Solvation Energy and its Derivatives within the Framework of the Gaussian Charge Scheme
     J. Comput. Chem. 2020 41 , 922-939
     doi.org/10.1002/jcc.26139
  5. Neese, F.
     The SHARK Integral Generation and Digestion System
     J. Comp. Chem. 2022 44(3), 381
     doi.org/10.1002/jcc.26942

List of suggested additional citations. These are papers that are important in the 'surrounding' of 
of this run, or papers that preceded the highly important papers. If you like your results we are grateful for a citation.

  1. Neese, F.
     The ORCA program system
     WIRES Comput. Molec. Sci. 2012 2(1), 73-78
     doi.org/10.1002/wcms.81
  2. Neese, F.
     Software update: the ORCA program system, version 4.0
     WIRES Comput. Molec. Sci. 2018 8(1), 1-6
     doi.org/10.1002/wcms.1327
  3. Neese, F.; Wennmohs, F.; Becker, U.; Riplinger, C.
     The ORCA quantum chemistry program package
     J. Chem. Phys. 2020 152(22), 224108
     doi.org/10.1063/5.0004608
  4. Neese, F.
     Software update: The ORCA program system—Version 5.0
     WIRES Comput. Molec. Sci. 2022 12(1), e1606
     doi.org/10.1002/wcms.1606

List of optional additional citations

  1. Neese, F.
     Approximate second-order SCF convergence for spin unrestricted wavefunctions
     Chem. Phys. Lett. 2000 325(1-3), 93-98
     doi.org/10.1016/s0009-2614(00)00662-x

Timings for individual modules:

Sum of individual times          ...      222.020 sec (=   3.700 min)
Startup calculation              ...       49.002 sec (=   0.817 min)  22.1 %
SCF iterations                   ...      102.502 sec (=   1.708 min)  46.2 %
Property integrals               ...       51.884 sec (=   0.865 min)  23.4 %
SCF Response                     ...       10.924 sec (=   0.182 min)   4.9 %
Property calculations            ...        7.708 sec (=   0.128 min)   3.5 %
                             ****ORCA TERMINATED NORMALLY****
TOTAL RUN TIME: 0 days 0 hours 3 minutes 53 seconds 27 msec
