
                                 *****************
                                 * O   R   C   A *
                                 *****************

                                            #,                                       
                                            ###                                      
                                            ####                                     
                                            #####                                    
                                            ######                                   
                                           ########,                                 
                                     ,,################,,,,,                         
                               ,,#################################,,                 
                          ,,##########################################,,             
                       ,#########################################, ''#####,          
                    ,#############################################,,   '####,        
                  ,##################################################,,,,####,       
                ,###########''''           ''''###############################       
              ,#####''   ,,,,##########,,,,          '''####'''          '####       
            ,##' ,,,,###########################,,,                        '##       
           ' ,,###''''                  '''############,,,                           
         ,,##''                                '''############,,,,        ,,,,,,###''
      ,#''                                            '''#######################'''  
     '                                                          ''''####''''         
             ,#######,   #######,   ,#######,      ##                                
            ,#'     '#,  ##    ##  ,#'     '#,    #''#        ,####,    ,#,          
            ##       ##  ##   ,#'  ##            #'  '#       #'       ,# #          
            ##       ##  #######   ##           ,######,      #####,      #          
            '#,     ,#'  ##    ##  '#,     ,#' ,#      #,     #,   #      #          
             '#######'   ##     ##  '#######'  #'      '#     '####' #    #          



                #########################################################
                #                        -***-                          #
                #          Department of theory and spectroscopy        #
                #                                                       #
                #                      Frank Neese                      #
                #                                                       #
                #     Directorship, Architecture, Infrastructure        #
                #                    SHARK, DRIVERS                     #
                #        Core code/Algorithms in most modules           #
                #                                                       #
                #        Max Planck Institute fuer Kohlenforschung      #
                #                Kaiser Wilhelm Platz 1                 #
                #                 D-45470 Muelheim/Ruhr                 #
                #                      Germany                          #
                #                                                       #
                #                  All rights reserved                  #
                #                        -***-                          #
                #########################################################


                         Program Version 6.1.0-f.0  -   RELEASE   -


 With contributions from (in alphabetic order):
[Max-Planck-Institut fuer Kohlenforschung]                               
  Daniel Aravena         : Magnetic Suceptibility                        
  Michael Atanasov       : Ab Initio Ligand Field Theory (pilot matlab implementation)
  Alexander A. Auer      : GIAO ZORA, VPT2 properties, NMR spectrum      
  Ute Becker             : All parallelization in ORCA, NUMFREQ, NUMCALC 
  Giovanni Bistoni       : ED, misc. LED, open-shell LED, HFLD           
  Dmytro Bykov           : pre 5.0 version of the SCF Hessian            
  Marcos Casanova-Páez   : Triplet and SCS-CIS(D). UHF-(DLPNO)-IP/EA/STEOM-CCSD. UHF-CVS-IP/STEOM-CCSD   
  Vijay G. Chilkuri      : MRCI spin determinant printing, contributions to CSF-ICE 
  Pauline Colinet        : FMM embedding                                 
  Dipayan Datta          : RHF DLPNO-CCSD density                        
  Achintya Kumar Dutta   : EOM-CC, STEOM-CC                              
  Nicolas Foglia         : Exact transition moments, OPA infrastructure, MCD improvements    
  Dmitry Ganyushin       : Spin-Orbit,Spin-Spin,Magnetic field MRCI      
  Miquel Garcia-Rates    : C-PCM and meta-GGA Hessian, CCSD/C-PCM, Gaussian charge scheme 
  Tiago L. C. Gouveia    : GS-ROHF, GS-ROCIS                             
  Yang Guo               : DLPNO-NEVPT2, F12-NEVPT2, CIM, IAO-localization        
  Andreas Hansen         : Spin unrestricted coupled pair/coupled cluster methods 
  Ingolf Harden          : AUTO-CI MPn and infrastructure                
  Benjamin Helmich-Paris : MC-RPA, TRAH-(SCF,CASSCF), AVAS, COSX integrals, SCF dyn. polar., MC-PDFT, srDFT 
  Lee Huntington         : MR-EOM, pCC                                   
  Robert Izsak           : Overlap fitted RIJCOSX, COSX-SCS-MP3, EOM     
  Riya Kayal             : Wick's Theorem for AUTO-CI, AUTO-CI UHF-CCSDT 
  Emily Kempfer          : AUTO-CI RHF CISDT and CCSDT, approximate NEVPT4
  Christian Kollmar      : KDIIS, OOCD, Brueckner-CCSD(T), CCSD density, CASPT2, CASPT2-K, improved NEVPT2 
  Axel Koslowski         : Symmetry handling                             
  Simone Kossmann        : meta-GGA functionals, TD-DFT gradient, OOMP2, (MP2 Hessian; deprecated post 5.0) 
  Lucas Lang             : DCDCAS, Hyperfine gauge corrections, ICE-SOC+SSC
  Marvin Lechner         : AUTO-CI (C++ implementation), FIC-MRCC        
  Spencer Leger          : CASSCF response                               
  Dagmar Lenk            : GEPOL surface, SMD, ORCA-2-JSON               
  Dimitrios Liakos       : Extrapolation schemes; Compound Job, Property file
  Dimitrios Manganas     : Further ROCIS development; embedding schemes. LFT, Crystal Embedding 
  Dimitrios Pantazis     : SARC Basis sets                               
  Anastasios Papadopoulos: AUTO-CI, single reference methods and gradients 
  Taras Petrenko         : pre 6.0 DFT Hessian and TD-DFT gradient,  ECA, NRVS 
  Petra Pikulova         : Analytic Raman intensities                    
  Peter Pinski           : DLPNO-MP2, DLPNO-MP2 Gradient                 
  Shashank Vittal Rao    : ES-AILFT, MagRelax                            
  Christoph Reimann      : Effective Core Potentials                     
  Marius Retegan         : Local ZFS, SOC                                
  Christoph Riplinger    : Optimizer, TS searches, QM/MM, DLPNO-CCSD(T), (RO)-DLPNO pert. Triples 
  Michael Roemelt        : Original ROCIS implementation, recursive CI coupling coefficients
  Masaaki Saitow         : Open-shell DLPNO-CCSD energy and density      
  Barbara Sandhoefer     : DKH picture change effects                    
  Yorick L. A. Schmerwitz: GMF and freeze-and-release deltaSCF, NEB S-IDPP initial path                    
  Kantharuban Sivalingam : CASSCF convergence/infrastructure, NEVPT2, NEVPT3, NEVPT4(SD), FIC-MRCI and CEPA variants
  Bernardo de Souza      : ESD, SOC TD-DFT                               
  Georgi L. Stoychev     : AutoAux, RI-MP2 NMR, DLPNO-MP2 response, X2C  
  Van Anh Tran           : RI-MP2 g-tensors                              
  Willem Van den Heuvel  : Paramagnetic NMR                              
  Zikuan Wang            : NOTCH, Electric field optimization            
  Frank Wennmohs         : Technical directorship and infrastructure     
  Hang Xu                : AUTO-CI-Response properties                   
                                                                         
[FACCTs GmbH]                                                            
  Markus Bursch, Nicolas Foglia, Miquel Garcia-Rates, Ingolf Harden, Hagen Neugebauer, Anastasios Papadopoulos, 
  Christoph Riplinger, Bernardo de Souza, Georgi L. Stoychev                                                    
                                                                 
  APM, various basis sets, CI-OPT, improved COSX, DLPNO-Multilevel,           
  DOCKER, DRACO, updates on ESD, Fragmentator, GOAT, IRC, LR-CPCM, L-BFGS, MBIS, meta-GGA TD-DFT gradient, ML-optimized integration grids, 
  MM, NACMEs, nearIR, NEB, NEB-TS, NL-DFT gradient (VV10), 2- and 3-layer-ONIOM, interface openCOSMO-RS, QMMM,   
  Crystal-QMMM, RESP, rigid body optimization, SF, symmetry and pop. for TD-DFT, various functionals, SOLVATOR                                   
                                                                         
[Other institutions]                                                     
  V. Asgeirsson          : NEB                                           
  Christoph Bannwarth    : sTDA-DFT, sTD-DFT, PBEh-3c, B97-3c, D3        
  Giovanni Bistoni       : ETS/NOCV, ADLD/ADEX, COVALED                  
  Martin Brehm           : Molecular dynamics                            
  Ronald Cardenas        : ETS/NOCV                                      
  Martina Colucci        : COVALED                                       
  Sebastian Ehlert       : rSCAN, r2SCAN, r2SCAN-3c, D4, dhf basis sets  
  Marvin Friede          : D4 for Fr, Ra, Ac-Lr                          
  Lars Goerigk           : TD-DFT with DH, B97 family of functionals     
  Stefan Grimme          : VdW corrections, initial TS optimization, DFT functionals, gCP, sTDA/sTD-DF 
  Waldemar Hujo          : DFT-NL                                        
  H. Jonsson             : NEB                                           
  Holger Kruse           : gCP                                           
  Marcel Mueller         : wB97X-3c, vDZP basis set                      
  Hagen Neugebauer       : wr2SCAN, Native XTB                           
  Gianluca Regni         : ADLD/ADEX                                     
  Tobias Risthaus        : pre 6.0 range-separated hybrid DFT and stability analysis
  Lukas Wittmann         : regularized MP2, r2SCAN double-hybrids, wr2SCAN        
                                                                         
We gratefully acknowledge several colleagues who have allowed us to      
interface, adapt or use parts of their codes:                            
  Ed Valeev, F. Pavosevic, A. Kumar             : LibInt (2-el integral package), F12 methods 
  Garnet Chan, S. Sharma, J. Yang, R. Olivares  : DMRG                   
  Ulf Ekstrom                                   : XCFun DFT Library      
  Mihaly Kallay                                 : mrcc  (arbitrary order and MRCC methods)
  Frank Weinhold                                : gennbo (NPA and NBO analysis)           
  Simon Mueller                                 : openCOSMO-RS                            
  Christopher J. Cramer and Donald G. Truhlar   : smd solvation model                     
  S Lehtola, MJT Oliveira, MAL Marques          : LibXC Library                           
  Liviu Ungur et al                             : ANISO software                          


 Your calculation uses the libint2 library for the computation of 2-el integrals
 For citations please refer to: http://libint.valeyev.net

 Your ORCA version has been built with support for libXC version: 7.0.0
 For citations please refer to: https://libxc.gitlab.io

 This ORCA versions uses:
   CBLAS   interface :  Fast vector & matrix operations
   LAPACKE interface :  Fast linear algebra routines
   SCALAPACK package :  Parallel linear algebra routines
   Shared memory     :  Shared parallel matrices
   BLAS/LAPACK       :  OpenBLAS 0.3.29  USE64BITINT DYNAMIC_ARCH NO_AFFINITY Cooperlake SINGLE_THREADED
        Core in use  :  Cooperlake
   Copyright (c) 2011-2014, The OpenBLAS Project


  ***********************************
  * Starting time: Tue Mar  3 21:16:43 2026
  * Host name:     c01b01n05
  * Process ID:    2605590
  * Working dir.:  /lustre1/jiangy/jiangy_liuxy/NMR/B9D7C2-SSSR-NMR/opt_conf
  ***********************************

NOTE: MaxCore=5000 MB was set to SCF,MP2,MDCI,CIPSI,MRCI,RASCI and CIS
      => If you want to overwrite this, your respective input block should be placed after the MaxCore statement


***************************************
The coordinates will be read from file: opt-conf-13.xyz
***************************************



Warning: The global flag for NMR shieldings has been found
         but shieldings for certain elements have also been explicitly requested in the EPRNMR block
         ==>> only the requested shieldings will be calculated

================================================================================

----- Orbital basis set information -----
Your calculation utilizes the basis: pcSseg-2
   F. Jensen, J. Chem. Theory Comput. 11, 132 (2015).

----- AuxJ basis set information -----
Your calculation utilizes the AutoAux generation procedure.
  G. L. Stoychev, A. A. Auer, F. Neese, J. Chem. Theory Comput. 13, 554 (2017)

----- AuxC basis set information -----
Your calculation utilizes the AutoAux generation procedure.
  G. L. Stoychev, A. A. Auer, F. Neese, J. Chem. Theory Comput. 13, 554 (2017)

----- AuxJK basis set information -----
Your calculation utilizes the AutoAux generation procedure.
  G. L. Stoychev, A. A. Auer, F. Neese, J. Chem. Theory Comput. 13, 554 (2017)

----- AuxX basis set information -----
Your calculation utilizes the AutoAux generation procedure.
  G. L. Stoychev, A. A. Auer, F. Neese, J. Chem. Theory Comput. 13, 554 (2017)

================================================================================
                                        WARNINGS
                       Please study these warnings very carefully!
================================================================================


================================================================================
                                       INPUT FILE
================================================================================
NAME = nmr-conf-13.inp
|  1> !TPSS PCSSEG-2 AUTOAUX NMR CPCM(Methanol)
|  2> 
|  3> %pal nprocs 60 end
|  4> %maxcore 5000
|  5> 
|  6> *XYZFILE 0 1 opt-conf-13.xyz
|  7> 
|  8> %EPRNMR
|  9>    NUCLEI = ALL C {SHIFT}
| 10>    NUCLEI = ALL H {SHIFT}
| 11>    TAU DOBSON
| 12> END
| 13> 
| 14> 
| 15>                          ****END OF INPUT****
================================================================================

                       ****************************
                       * Single Point Calculation *
                       ****************************

---------------------------------
CARTESIAN COORDINATES (ANGSTROEM)
---------------------------------
  C     28.785932  -29.018624    0.131307
  C     29.997928  -28.368108   -0.129024
  C     30.524170  -27.494045    0.826589
  C     29.812800  -27.218781    1.994905
  C     28.588114  -27.833964    2.228996
  C     28.086502  -28.745192    1.302569
  C     27.764742  -27.511661    3.450376
  C     26.530231  -26.636599    3.125968
  C     25.433735  -26.757046    4.223410
  C     24.012354  -26.862945    3.640612
  C     23.824361  -27.946741    2.604476
  C     24.381881  -29.220103    2.772181
  C     24.214321  -30.200548    1.806528
  C     23.463589  -29.931597    0.651721
  C     22.895988  -28.683172    0.486621
  C     23.084177  -27.697318    1.454304
  C     27.000631  -25.218356    2.820121
  C     25.488714  -25.695329    5.327586
  O     31.734224  -26.947769    0.527409
  O     28.363891  -29.894751   -0.816415
  O     30.673350  -28.673110   -1.286172
  O     23.306310  -30.891762   -0.308058
  O     24.738102  -31.459656    1.857045
  C     30.919276  -27.630072   -2.256490
  C     29.672087  -27.359100   -3.112422
  C     28.496314  -26.823012   -2.331562
  C     32.076255  -28.155906   -3.088714
  O     33.237298  -28.377349   -2.293740
  C     27.244892  -27.422248   -2.479312
  C     26.150514  -26.952756   -1.768852
  C     26.304007  -25.866323   -0.897364
  C     27.532883  -25.243230   -0.777707
  C     28.626369  -25.724320   -1.488546
  C     27.133296  -30.576937   -0.589145
  C     32.293723  -26.000861    1.433872
  C     25.546926  -31.811999    2.977990
  O     30.017703  -26.483707   -4.201463
  O     25.945819  -24.335724    2.410479
  O     24.929660  -24.426589    4.979424
  O     24.889147  -27.462243   -1.822668
  O     25.235860  -25.415978   -0.167791
  C     24.606642  -28.477325   -2.784715
  H     30.206145  -26.524408    2.722610
  H     27.139753  -29.226002    1.496225
  H     27.413676  -28.444855    3.895452
  H     28.383161  -27.014100    4.202832
  H     26.103474  -27.033702    2.202266
  H     25.632880  -27.694851    4.750357
  H     23.321253  -27.030230    4.475295
  H     23.721835  -25.911204    3.194891
  H     24.966560  -29.437740    3.653701
  H     22.324487  -28.480012   -0.409770
  H     22.646070  -26.717530    1.303531
  H     27.447560  -24.759518    3.704110
  H     27.771910  -25.252287    2.048122
  H     26.526248  -25.571768    5.663399
  H     24.912449  -26.052095    6.184627
  H     23.776227  -31.689129   -0.021083
  H     31.230830  -26.720023   -1.742263
  H     29.380341  -28.297268   -3.587590
  H     31.765419  -29.082875   -3.587416
  H     32.344567  -27.427297   -3.849820
  H     32.959313  -28.901171   -1.529910
  H     27.138479  -28.273744   -3.135814
  H     27.631019  -24.389973   -0.119716
  H     29.585776  -25.239664   -1.360972
  H     26.308196  -29.875125   -0.457932
  H     26.959835  -31.182123   -1.475611
  H     27.198517  -31.222724    0.289262
  H     32.480507  -26.452285    2.411257
  H     33.236311  -25.688808    0.990667
  H     31.638535  -25.134543    1.552079
  H     25.862922  -32.838097    2.808426
  H     26.422516  -31.162479    3.045063
  H     24.973652  -31.750846    3.905920
  H     30.139250  -25.591480   -3.850179
  H     25.559126  -24.681121    1.587285
  H     25.157139  -24.235512    4.050544
  H     24.478383  -26.002506   -0.322579
  H     24.820798  -28.119489   -3.794469
  H     25.185852  -29.379862   -2.584618
  H     23.547332  -28.696572   -2.685974

----------------------------
CARTESIAN COORDINATES (A.U.)
----------------------------
  NO LB      ZA    FRAG     MASS         X           Y           Z
   0 C     6.0000    0    12.011   54.397528  -54.837252    0.248135
   1 C     6.0000    0    12.011   56.687868  -53.607954   -0.243819
   2 C     6.0000    0    12.011   57.682321  -51.956215    1.562027
   3 C     6.0000    0    12.011   56.338027  -51.436042    3.769824
   4 C     6.0000    0    12.011   54.023706  -52.598569    4.212192
   5 C     6.0000    0    12.011   53.075798  -54.320540    2.461500
   6 C     6.0000    0    12.011   52.467758  -51.989505    6.520266
   7 C     6.0000    0    12.011   50.134871  -50.335877    5.907223
   8 C     6.0000    0    12.011   48.062794  -50.563489    7.981088
   9 C     6.0000    0    12.011   45.376774  -50.763609    6.879760
  10 C     6.0000    0    12.011   45.021518  -52.811686    4.921747
  11 C     6.0000    0    12.011   46.075077  -55.217992    5.238663
  12 C     6.0000    0    12.011   45.758436  -57.070765    3.413844
  13 C     6.0000    0    12.011   44.339758  -56.562521    1.231574
  14 C     6.0000    0    12.011   43.267148  -54.203339    0.919580
  15 C     6.0000    0    12.011   43.622773  -52.340345    2.748237
  16 C     6.0000    0    12.011   51.023797  -47.655786    5.329256
  17 C     6.0000    0    12.011   48.166689  -48.557134   10.067679
  18 O     8.0000    0    15.999   59.968993  -50.923904    0.996659
  19 O     8.0000    0    15.999   53.599985  -56.492893   -1.542801
  20 O     8.0000    0    15.999   57.964230  -54.184326   -2.430512
  21 O     8.0000    0    15.999   44.042543  -58.376970   -0.582146
  22 O     8.0000    0    15.999   46.748237  -59.450133    3.509307
  23 C     6.0000    0    12.011   58.428965  -52.213270   -4.264148
  24 C     6.0000    0    12.011   56.072118  -51.701206   -5.881626
  25 C     6.0000    0    12.011   53.850229  -50.688147   -4.406013
  26 C     6.0000    0    12.011   60.615338  -53.206952   -5.836824
  27 O     8.0000    0    15.999   62.809390  -53.625417   -4.334541
  28 C     6.0000    0    12.011   51.485385  -51.820539   -4.685220
  29 C     6.0000    0    12.011   49.417310  -50.933327   -3.342645
  30 C     6.0000    0    12.011   49.707369  -48.880267   -1.695773
  31 C     6.0000    0    12.011   52.029609  -47.702791   -1.469654
  32 C     6.0000    0    12.011   54.095998  -48.611921   -2.812944
  33 C     6.0000    0    12.011   51.274498  -57.782038   -1.113322
  34 C     6.0000    0    12.011   61.026293  -49.134507    2.709626
  35 C     6.0000    0    12.011   48.276695  -60.115965    5.627585
  36 O     8.0000    0    15.999   56.725238  -50.046953   -7.939614
  37 O     8.0000    0    15.999   49.030491  -45.987853    4.555145
  38 O     8.0000    0    15.999   47.110229  -46.159563    9.409747
  39 O     8.0000    0    15.999   47.033672  -51.896118   -3.444343
  40 O     8.0000    0    15.999   47.688864  -48.029238   -0.317079
  41 C     6.0000    0    12.011   46.499815  -53.814344   -5.262349
  42 H     1.0000    0     1.008   57.081341  -50.123868    5.144988
  43 H     1.0000    0     1.008   51.286700  -55.229140    2.827455
  44 H     1.0000    0     1.008   51.804340  -53.752986    7.361337
  45 H     1.0000    0     1.008   53.636400  -51.049251    7.942201
  46 H     1.0000    0     1.008   49.328417  -51.086292    4.161679
  47 H     1.0000    0     1.008   48.439122  -52.335684    8.976874
  48 H     1.0000    0     1.008   44.070782  -51.079732    8.457082
  49 H     1.0000    0     1.008   44.827772  -48.965079    6.037468
  50 H     1.0000    0     1.008   47.179962  -55.629266    6.904495
  51 H     1.0000    0     1.008   42.187166  -53.819423   -0.774352
  52 H     1.0000    0     1.008   42.794871  -50.488814    2.463318
  53 H     1.0000    0     1.008   51.868372  -46.788708    6.999753
  54 H     1.0000    0     1.008   52.481305  -47.719906    3.870390
  55 H     1.0000    0     1.008   50.127343  -48.323639   10.702273
  56 H     1.0000    0     1.008   47.077706  -49.231324   11.687252
  57 H     1.0000    0     1.008   44.930558  -59.883775   -0.039842
  58 H     1.0000    0     1.008   59.017715  -50.493525   -3.292401
  59 H     1.0000    0     1.008   55.520799  -53.474087   -6.779563
  60 H     1.0000    0     1.008   60.027943  -54.958670   -6.779234
  61 H     1.0000    0     1.008   61.122373  -51.830081   -7.275105
  62 H     1.0000    0     1.008   62.284076  -54.615298   -2.891111
  63 H     1.0000    0     1.008   51.284293  -53.429632   -5.925829
  64 H     1.0000    0     1.008   52.215058  -46.090370   -0.226230
  65 H     1.0000    0     1.008   55.909015  -47.696053   -2.571864
  66 H     1.0000    0     1.008   49.715285  -56.455804   -0.865366
  67 H     1.0000    0     1.008   50.946705  -58.925673   -2.788501
  68 H     1.0000    0     1.008   51.397748  -59.002398    0.546626
  69 H     1.0000    0     1.008   61.379263  -49.987575    4.556615
  70 H     1.0000    0     1.008   62.807525  -48.544812    1.872090
  71 H     1.0000    0     1.008   59.788167  -47.497402    2.933005
  72 H     1.0000    0     1.008   48.873840  -62.055010    5.307155
  73 H     1.0000    0     1.008   49.931319  -58.888550    5.754336
  74 H     1.0000    0     1.008   47.193363  -60.000403    7.381119
  75 H     1.0000    0     1.008   56.954928  -48.360888   -7.275784
  76 H     1.0000    0     1.008   48.299749  -46.640560    2.999535
  77 H     1.0000    0     1.008   47.540103  -45.798480    7.654420
  78 H     1.0000    0     1.008   46.257440  -49.137616   -0.609586
  79 H     1.0000    0     1.008   46.904510  -53.138132   -7.170507
  80 H     1.0000    0     1.008   47.594362  -55.519894   -4.884221
  81 H     1.0000    0     1.008   44.498009  -54.228663   -5.075755

--------------------------------
INTERNAL COORDINATES (ANGSTROEM)
--------------------------------
 C      0   0   0     0.000000000000     0.00000000     0.00000000
 C      1   0   0     1.399956354776     0.00000000     0.00000000
 C      2   1   0     1.397895540472   119.29670314     0.00000000
 C      3   2   1     1.395270368365   120.25410289   356.57503601
 C      4   3   2     1.390361157174   120.18413576     1.34150386
 C      1   2   3     1.391338100478   120.02863784     3.01860299
 C      5   4   3     1.507843292797   121.51990348   182.82088947
 C      7   5   4     1.547576034870   112.74680123   105.87369520
 C      8   7   5     1.556017391581   111.74728738   158.37340070
 C      9   8   7     1.539867251831   112.88293928   222.32205662
 C     10   9   8     1.511136637542   115.06600295    52.74888421
 C     11  10   9     1.400144227934   121.37247283    42.42406406
 C     12  11  10     1.386302448026   120.77291721   180.73646091
 C     13  12  11     1.403393878435   120.15245868   359.10281154
 C     14  13  12     1.381301851248   119.43114838     0.06708447
 C     11  10   9     1.390315933606   120.31799200   222.30287319
 C      8   7   5     1.525198725701   108.77165422   287.08386412
 C      9   8   7     1.532798778941   115.41510074    93.62405817
 O      3   2   1     1.360939965580   115.81184479   177.10768916
 O      1   2   3     1.357901190056   116.04633779   182.66514781
 O      2   1   3     1.374122556852   118.61952493   176.13166107
 O     14  13  12     1.366685505686   120.31780641   179.40821438
 O     13  12  11     1.364642724165   125.47625784   178.47574871
 C     21   2   1     1.445657787592   119.25414755   119.16876329
 C     24  21   2     1.536726562754   111.28484614   280.37596578
 C     25  24  21     1.509826237199   113.98936558    64.16239239
 C     24  21   2     1.519111204998   104.33100613   159.45746772
 O     27  24  21     1.424443720588   111.64462052   299.20326703
 C     26  25  24     1.395338415076   119.41798722   230.01002204
 C     29  26  25     1.386665057969   120.54132981   179.70058972
 C     30  29  26     1.401209055620   119.65144633     0.09490984
 C     31  30  29     1.383003943172   120.03118657     1.85929041
 C     32  31  30     1.390126393502   119.91959822   357.81787072
 C     20   1   2     1.425269704682   117.76725854   180.05002746
 C     19   3   2     1.425254290368   118.41812899   177.12977422
 C     23  13  12     1.426485138655   118.33446569   358.93033746
 O     25  24  21     1.439365395658   109.49869088   189.49474836
 O     17   8   7     1.435086879256   113.73176199   175.80269874
 O     18   9   8     1.429496606990   115.16925593    79.61095555
 O     30  29  26     1.361440241460   125.74984946   180.58936883
 O     31  30  29     1.369680684384   120.05263831   181.54475076
 C     40  30  29     1.426791692556   118.44663718   353.07325407
 H      4   3   2     1.080013225805   120.35435008   181.56372632
 H      6   1   2     1.079359255593   120.29384489   178.48829908
 H      7   5   4     1.091874650334   108.84863161   225.93164435
 H      7   5   4     1.093708288797   110.22832874   342.84017958
 H      8   7   5     1.092262664574   106.46164844    41.83598238
 H      9   8   7     1.093988223135   106.12895782   339.14780323
 H     10   9   8     1.096494553714   107.70839000   175.19769308
 H     10   9   8     1.090357709432   109.91512397   290.30392545
 H     12  11  10     1.079950762873   119.77680941   359.48726023
 H     15  14  13     1.082313884178   119.05333814   179.54379836
 H     16  11  10     1.083814866726   119.50305552     0.27633279
 H     17   8   7     1.091656537617   110.77657360   294.90722912
 H     17   8   7     1.091790141397   109.31562743    52.87231043
 H     18   9   8     1.097502936039   109.40890504   314.93590252
 H     18   9   8     1.092649390535   108.65996792   198.22458979
 H     22  14  13     0.969004832617   108.31981118     0.23920340
 H     24  21   2     1.090726834489   109.52002130    42.62181526
 H     25  24  21     1.091357013606   107.93168625   303.18464436
 H     27  24  21     1.097540083895   109.00066042    61.78185187
 H     27  24  21     1.087264095724   109.84530058   180.57249083
 H     28  27  24     0.967006810381   106.90186342    50.02126464
 H     29  26  25     1.080445951340   119.41451014     1.18277783
 H     32  31  30     1.081956632203   119.24297673   178.47893393
 H     33  32  31     1.082418243354   118.81547040   181.64177392
 H     34  20   1     1.091122229101   111.35971753    58.25425825
 H     34  20   1     1.087272286981   105.91148312   177.33173696
 H     34  20   1     1.092196216368   111.08122485   296.31119441
 H     35  19   3     1.092681326937   111.19351716    62.19343412
 H     35  19   3     1.087326406484   105.76757304   181.06255103
 H     35  19   3     1.092589492099   111.11198670   299.99038524
 H     36  23  13     1.086960136281   105.98719261   180.67953056
 H     36  23  13     1.092260272607   110.84880086   299.70685956
 H     36  23  13     1.092445575431   110.86093592    61.64472750
 H     37  25  24     0.966562157666   108.45873022   286.06259996
 H     38  17   8     0.972870722763   108.38048387   298.15705613
 H     39  18   9     0.975230354649   108.33990561   321.88102896
 H     41  31  30     0.970436516836   108.96746199     4.44765159
 H     42  40  30     1.092479618631   110.57125803   301.90184772
 H     42  40  30     1.090915403343   111.08736383    63.89825219
 H     42  40  30     1.086258385640   105.98541761   182.77717804

---------------------------
INTERNAL COORDINATES (A.U.)
---------------------------
 C      0   0   0     0.000000000000     0.00000000     0.00000000
 C      1   0   0     2.645534109969     0.00000000     0.00000000
 C      2   1   0     2.641639735321   119.29670314     0.00000000
 C      3   2   1     2.636678878985   120.25410289   356.57503601
 C      4   3   2     2.627401814301   120.18413576     1.34150386
 C      1   2   3     2.629247969593   120.02863784     3.01860299
 C      5   4   3     2.849410876256   121.51990348   182.82088947
 C      7   5   4     2.924494877324   112.74680123   105.87369520
 C      8   7   5     2.940446729707   111.74728738   158.37340070
 C      9   8   7     2.909927388555   112.88293928   222.32205662
 C     10   9   8     2.855634395889   115.06600295    52.74888421
 C     11  10   9     2.645889138786   121.37247283    42.42406406
 C     12  11  10     2.619731965554   120.77291721   180.73646091
 C     13  12  11     2.652030088264   120.15245868   359.10281154
 C     14  13  12     2.610282207138   119.43114838     0.06708447
 C     11  10   9     2.627316354142   120.31799200   222.30287319
 C      8   7   5     2.882207891380   108.77165422   287.08386412
 C      9   8   7     2.896569910607   115.41510074    93.62405817
 O      3   2   1     2.571803819654   115.81184479   177.10768916
 O      1   2   3     2.566061366131   116.04633779   182.66514781
 O      2   1   3     2.596715306894   118.61952493   176.13166107
 O     14  13  12     2.582661316947   120.31780641   179.40821438
 O     13  12  11     2.578801019320   125.47625784   178.47574871
 C     21   2   1     2.731897301920   119.25414755   119.16876329
 C     24  21   2     2.903992346327   111.28484614   280.37596578
 C     25  24  21     2.853158098115   113.98936558    64.16239239
 C     24  21   2     2.870704144418   104.33100613   159.45746772
 O     27  24  21     2.691808525095   111.64462052   299.20326703
 C     26  25  24     2.636807468632   119.41798722   230.01002204
 C     29  26  25     2.620417199040   120.54132981   179.70058972
 C     30  29  26     2.647901371493   119.65144633     0.09490984
 C     31  30  29     2.613498694728   120.03118657     1.85929041
 C     32  31  30     2.626958175255   119.91959822   357.81787072
 C     20   1   2     2.693369408823   117.76725854   180.05002746
 C     19   3   2     2.693340279992   118.41812899   177.12977422
 C     23  13  12     2.695666246167   118.33446569   358.93033746
 O     25  24  21     2.720006404437   109.49869088   189.49474836
 O     17   8   7     2.711921180178   113.73176199   175.80269874
 O     18   9   8     2.701357096580   115.16925593    79.61095555
 O     30  29  26     2.572749204058   125.74984946   180.58936883
 O     31  30  29     2.588321384408   120.05263831   181.54475076
 C     40  30  29     2.696245549084   118.44663718   353.07325407
 H      4   3   2     2.040929217784   120.35435008   181.56372632
 H      6   1   2     2.039693393183   120.29384489   178.48829908
 H      7   5   4     2.063344061703   108.84863161   225.93164435
 H      7   5   4     2.066809136225   110.22832874   342.84017958
 H      8   7   5     2.064077302351   106.46164844    41.83598238
 H      9   8   7     2.067338135460   106.12895782   339.14780323
 H     10   9   8     2.072074413855   107.70839000   175.19769308
 H     10   9   8     2.060477458836   109.91512397   290.30392545
 H     12  11  10     2.040811179949   119.77680941   359.48726023
 H     15  14  13     2.045276832037   119.05333814   179.54379836
 H     16  11  10     2.048113277985   119.50305552     0.27633279
 H     17   8   7     2.062931888402   110.77657360   294.90722912
 H     17   8   7     2.063184362955   109.31562743    52.87231043
 H     18   9   8     2.073979980288   109.40890504   314.93590252
 H     18   9   8     2.064808108507   108.65996792   198.22458979
 H     22  14  13     1.831153756093   108.31981118     0.23920340
 H     24  21   2     2.061175004104   109.52002130    42.62181526
 H     25  24  21     2.062365870050   107.93168625   303.18464436
 H     27  24  21     2.074050179562   109.00066042    61.78185187
 H     27  24  21     2.054631376164   109.84530058   180.57249083
 H     28  27  24     1.827378041257   106.90186342    50.02126464
 H     29  26  25     2.041746950536   119.41451014     1.18277783
 H     32  31  30     2.044601723644   119.24297673   178.47893393
 H     33  32  31     2.045474042299   118.81547040   181.64177392
 H     34  20   1     2.061922191634   111.35971753    58.25425825
 H     34  20   1     2.054646855395   105.91148312   177.33173696
 H     34  20   1     2.063951733440   111.08122485   296.31119441
 H     35  19   3     2.064868459560   111.19351716    62.19343412
 H     35  19   3     2.054749126436   105.76757304   181.06255103
 H     35  19   3     2.064694916866   111.11198670   299.99038524
 H     36  23  13     2.054056976061   105.98719261   180.67953056
 H     36  23  13     2.064072782189   110.84880086   299.70685956
 H     36  23  13     2.064422953778   110.86093592    61.64472750
 H     37  25  24     1.826537769400   108.45873022   286.06259996
 H     38  17   8     1.838459229732   108.38048387   298.15705613
 H     39  18   9     1.842918287773   108.33990561   321.88102896
 H     41  31  30     1.833859247176   108.96746199     4.44765159
 H     42  40  30     2.064487286104   110.57125803   301.90184772
 H     42  40  30     2.061531347595   111.08736383    63.89825219
 H     42  40  30     2.052730859536   105.98541761   182.77717804

---------------------
BASIS SET INFORMATION
---------------------
There are 3 groups of distinct atoms

 Group   1 Type C   : 11s7p2d1f contracted to 4s5p2d1f pattern {7211/31111/11/1}
 Group   2 Type O   : 11s7p2d1f contracted to 4s5p2d1f pattern {7211/31111/11/1}
 Group   3 Type H   : 6s3p1d contracted to 3s2p1d pattern {411/21/1}

Atom   0C    basis set group =>   1
Atom   1C    basis set group =>   1
Atom   2C    basis set group =>   1
Atom   3C    basis set group =>   1
Atom   4C    basis set group =>   1
Atom   5C    basis set group =>   1
Atom   6C    basis set group =>   1
Atom   7C    basis set group =>   1
Atom   8C    basis set group =>   1
Atom   9C    basis set group =>   1
Atom  10C    basis set group =>   1
Atom  11C    basis set group =>   1
Atom  12C    basis set group =>   1
Atom  13C    basis set group =>   1
Atom  14C    basis set group =>   1
Atom  15C    basis set group =>   1
Atom  16C    basis set group =>   1
Atom  17C    basis set group =>   1
Atom  18O    basis set group =>   2
Atom  19O    basis set group =>   2
Atom  20O    basis set group =>   2
Atom  21O    basis set group =>   2
Atom  22O    basis set group =>   2
Atom  23C    basis set group =>   1
Atom  24C    basis set group =>   1
Atom  25C    basis set group =>   1
Atom  26C    basis set group =>   1
Atom  27O    basis set group =>   2
Atom  28C    basis set group =>   1
Atom  29C    basis set group =>   1
Atom  30C    basis set group =>   1
Atom  31C    basis set group =>   1
Atom  32C    basis set group =>   1
Atom  33C    basis set group =>   1
Atom  34C    basis set group =>   1
Atom  35C    basis set group =>   1
Atom  36O    basis set group =>   2
Atom  37O    basis set group =>   2
Atom  38O    basis set group =>   2
Atom  39O    basis set group =>   2
Atom  40O    basis set group =>   2
Atom  41C    basis set group =>   1
Atom  42H    basis set group =>   3
Atom  43H    basis set group =>   3
Atom  44H    basis set group =>   3
Atom  45H    basis set group =>   3
Atom  46H    basis set group =>   3
Atom  47H    basis set group =>   3
Atom  48H    basis set group =>   3
Atom  49H    basis set group =>   3
Atom  50H    basis set group =>   3
Atom  51H    basis set group =>   3
Atom  52H    basis set group =>   3
Atom  53H    basis set group =>   3
Atom  54H    basis set group =>   3
Atom  55H    basis set group =>   3
Atom  56H    basis set group =>   3
Atom  57H    basis set group =>   3
Atom  58H    basis set group =>   3
Atom  59H    basis set group =>   3
Atom  60H    basis set group =>   3
Atom  61H    basis set group =>   3
Atom  62H    basis set group =>   3
Atom  63H    basis set group =>   3
Atom  64H    basis set group =>   3
Atom  65H    basis set group =>   3
Atom  66H    basis set group =>   3
Atom  67H    basis set group =>   3
Atom  68H    basis set group =>   3
Atom  69H    basis set group =>   3
Atom  70H    basis set group =>   3
Atom  71H    basis set group =>   3
Atom  72H    basis set group =>   3
Atom  73H    basis set group =>   3
Atom  74H    basis set group =>   3
Atom  75H    basis set group =>   3
Atom  76H    basis set group =>   3
Atom  77H    basis set group =>   3
Atom  78H    basis set group =>   3
Atom  79H    basis set group =>   3
Atom  80H    basis set group =>   3
Atom  81H    basis set group =>   3
---------------------------------
AUXILIARY/J BASIS SET INFORMATION
---------------------------------
There are 3 groups of distinct atoms

 Group   1 Type C   : 15s13p12d5f5g contracted to 15s13p12d5f5g pattern {111111111111111/1111111111111/111111111111/11111/11111}
 Group   2 Type O   : 15s13p12d5f5g contracted to 15s13p12d5f5g pattern {111111111111111/1111111111111/111111111111/11111/11111}
 Group   3 Type H   : 12s4p3d2f contracted to 12s4p3d2f pattern {111111111111/1111/111/11}

Atom   0C    basis set group =>   1
Atom   1C    basis set group =>   1
Atom   2C    basis set group =>   1
Atom   3C    basis set group =>   1
Atom   4C    basis set group =>   1
Atom   5C    basis set group =>   1
Atom   6C    basis set group =>   1
Atom   7C    basis set group =>   1
Atom   8C    basis set group =>   1
Atom   9C    basis set group =>   1
Atom  10C    basis set group =>   1
Atom  11C    basis set group =>   1
Atom  12C    basis set group =>   1
Atom  13C    basis set group =>   1
Atom  14C    basis set group =>   1
Atom  15C    basis set group =>   1
Atom  16C    basis set group =>   1
Atom  17C    basis set group =>   1
Atom  18O    basis set group =>   2
Atom  19O    basis set group =>   2
Atom  20O    basis set group =>   2
Atom  21O    basis set group =>   2
Atom  22O    basis set group =>   2
Atom  23C    basis set group =>   1
Atom  24C    basis set group =>   1
Atom  25C    basis set group =>   1
Atom  26C    basis set group =>   1
Atom  27O    basis set group =>   2
Atom  28C    basis set group =>   1
Atom  29C    basis set group =>   1
Atom  30C    basis set group =>   1
Atom  31C    basis set group =>   1
Atom  32C    basis set group =>   1
Atom  33C    basis set group =>   1
Atom  34C    basis set group =>   1
Atom  35C    basis set group =>   1
Atom  36O    basis set group =>   2
Atom  37O    basis set group =>   2
Atom  38O    basis set group =>   2
Atom  39O    basis set group =>   2
Atom  40O    basis set group =>   2
Atom  41C    basis set group =>   1
Atom  42H    basis set group =>   3
Atom  43H    basis set group =>   3
Atom  44H    basis set group =>   3
Atom  45H    basis set group =>   3
Atom  46H    basis set group =>   3
Atom  47H    basis set group =>   3
Atom  48H    basis set group =>   3
Atom  49H    basis set group =>   3
Atom  50H    basis set group =>   3
Atom  51H    basis set group =>   3
Atom  52H    basis set group =>   3
Atom  53H    basis set group =>   3
Atom  54H    basis set group =>   3
Atom  55H    basis set group =>   3
Atom  56H    basis set group =>   3
Atom  57H    basis set group =>   3
Atom  58H    basis set group =>   3
Atom  59H    basis set group =>   3
Atom  60H    basis set group =>   3
Atom  61H    basis set group =>   3
Atom  62H    basis set group =>   3
Atom  63H    basis set group =>   3
Atom  64H    basis set group =>   3
Atom  65H    basis set group =>   3
Atom  66H    basis set group =>   3
Atom  67H    basis set group =>   3
Atom  68H    basis set group =>   3
Atom  69H    basis set group =>   3
Atom  70H    basis set group =>   3
Atom  71H    basis set group =>   3
Atom  72H    basis set group =>   3
Atom  73H    basis set group =>   3
Atom  74H    basis set group =>   3
Atom  75H    basis set group =>   3
Atom  76H    basis set group =>   3
Atom  77H    basis set group =>   3
Atom  78H    basis set group =>   3
Atom  79H    basis set group =>   3
Atom  80H    basis set group =>   3
Atom  81H    basis set group =>   3
---------------------------------
AUXILIARY/C BASIS SET INFORMATION
---------------------------------
There are 3 groups of distinct atoms

 Group   1 Type C   : 15s13p12d5f5g contracted to 15s13p12d5f5g pattern {111111111111111/1111111111111/111111111111/11111/11111}
 Group   2 Type O   : 15s13p12d5f5g contracted to 15s13p12d5f5g pattern {111111111111111/1111111111111/111111111111/11111/11111}
 Group   3 Type H   : 12s4p3d2f contracted to 12s4p3d2f pattern {111111111111/1111/111/11}

Atom   0C    basis set group =>   1
Atom   1C    basis set group =>   1
Atom   2C    basis set group =>   1
Atom   3C    basis set group =>   1
Atom   4C    basis set group =>   1
Atom   5C    basis set group =>   1
Atom   6C    basis set group =>   1
Atom   7C    basis set group =>   1
Atom   8C    basis set group =>   1
Atom   9C    basis set group =>   1
Atom  10C    basis set group =>   1
Atom  11C    basis set group =>   1
Atom  12C    basis set group =>   1
Atom  13C    basis set group =>   1
Atom  14C    basis set group =>   1
Atom  15C    basis set group =>   1
Atom  16C    basis set group =>   1
Atom  17C    basis set group =>   1
Atom  18O    basis set group =>   2
Atom  19O    basis set group =>   2
Atom  20O    basis set group =>   2
Atom  21O    basis set group =>   2
Atom  22O    basis set group =>   2
Atom  23C    basis set group =>   1
Atom  24C    basis set group =>   1
Atom  25C    basis set group =>   1
Atom  26C    basis set group =>   1
Atom  27O    basis set group =>   2
Atom  28C    basis set group =>   1
Atom  29C    basis set group =>   1
Atom  30C    basis set group =>   1
Atom  31C    basis set group =>   1
Atom  32C    basis set group =>   1
Atom  33C    basis set group =>   1
Atom  34C    basis set group =>   1
Atom  35C    basis set group =>   1
Atom  36O    basis set group =>   2
Atom  37O    basis set group =>   2
Atom  38O    basis set group =>   2
Atom  39O    basis set group =>   2
Atom  40O    basis set group =>   2
Atom  41C    basis set group =>   1
Atom  42H    basis set group =>   3
Atom  43H    basis set group =>   3
Atom  44H    basis set group =>   3
Atom  45H    basis set group =>   3
Atom  46H    basis set group =>   3
Atom  47H    basis set group =>   3
Atom  48H    basis set group =>   3
Atom  49H    basis set group =>   3
Atom  50H    basis set group =>   3
Atom  51H    basis set group =>   3
Atom  52H    basis set group =>   3
Atom  53H    basis set group =>   3
Atom  54H    basis set group =>   3
Atom  55H    basis set group =>   3
Atom  56H    basis set group =>   3
Atom  57H    basis set group =>   3
Atom  58H    basis set group =>   3
Atom  59H    basis set group =>   3
Atom  60H    basis set group =>   3
Atom  61H    basis set group =>   3
Atom  62H    basis set group =>   3
Atom  63H    basis set group =>   3
Atom  64H    basis set group =>   3
Atom  65H    basis set group =>   3
Atom  66H    basis set group =>   3
Atom  67H    basis set group =>   3
Atom  68H    basis set group =>   3
Atom  69H    basis set group =>   3
Atom  70H    basis set group =>   3
Atom  71H    basis set group =>   3
Atom  72H    basis set group =>   3
Atom  73H    basis set group =>   3
Atom  74H    basis set group =>   3
Atom  75H    basis set group =>   3
Atom  76H    basis set group =>   3
Atom  77H    basis set group =>   3
Atom  78H    basis set group =>   3
Atom  79H    basis set group =>   3
Atom  80H    basis set group =>   3
Atom  81H    basis set group =>   3
----------------------------------
AUXILIARY/JK BASIS SET INFORMATION
----------------------------------
There are 3 groups of distinct atoms

 Group   1 Type C   : 15s13p12d5f5g contracted to 15s13p12d5f5g pattern {111111111111111/1111111111111/111111111111/11111/11111}
 Group   2 Type O   : 15s13p12d5f5g contracted to 15s13p12d5f5g pattern {111111111111111/1111111111111/111111111111/11111/11111}
 Group   3 Type H   : 12s4p3d2f contracted to 12s4p3d2f pattern {111111111111/1111/111/11}

Atom   0C    basis set group =>   1
Atom   1C    basis set group =>   1
Atom   2C    basis set group =>   1
Atom   3C    basis set group =>   1
Atom   4C    basis set group =>   1
Atom   5C    basis set group =>   1
Atom   6C    basis set group =>   1
Atom   7C    basis set group =>   1
Atom   8C    basis set group =>   1
Atom   9C    basis set group =>   1
Atom  10C    basis set group =>   1
Atom  11C    basis set group =>   1
Atom  12C    basis set group =>   1
Atom  13C    basis set group =>   1
Atom  14C    basis set group =>   1
Atom  15C    basis set group =>   1
Atom  16C    basis set group =>   1
Atom  17C    basis set group =>   1
Atom  18O    basis set group =>   2
Atom  19O    basis set group =>   2
Atom  20O    basis set group =>   2
Atom  21O    basis set group =>   2
Atom  22O    basis set group =>   2
Atom  23C    basis set group =>   1
Atom  24C    basis set group =>   1
Atom  25C    basis set group =>   1
Atom  26C    basis set group =>   1
Atom  27O    basis set group =>   2
Atom  28C    basis set group =>   1
Atom  29C    basis set group =>   1
Atom  30C    basis set group =>   1
Atom  31C    basis set group =>   1
Atom  32C    basis set group =>   1
Atom  33C    basis set group =>   1
Atom  34C    basis set group =>   1
Atom  35C    basis set group =>   1
Atom  36O    basis set group =>   2
Atom  37O    basis set group =>   2
Atom  38O    basis set group =>   2
Atom  39O    basis set group =>   2
Atom  40O    basis set group =>   2
Atom  41C    basis set group =>   1
Atom  42H    basis set group =>   3
Atom  43H    basis set group =>   3
Atom  44H    basis set group =>   3
Atom  45H    basis set group =>   3
Atom  46H    basis set group =>   3
Atom  47H    basis set group =>   3
Atom  48H    basis set group =>   3
Atom  49H    basis set group =>   3
Atom  50H    basis set group =>   3
Atom  51H    basis set group =>   3
Atom  52H    basis set group =>   3
Atom  53H    basis set group =>   3
Atom  54H    basis set group =>   3
Atom  55H    basis set group =>   3
Atom  56H    basis set group =>   3
Atom  57H    basis set group =>   3
Atom  58H    basis set group =>   3
Atom  59H    basis set group =>   3
Atom  60H    basis set group =>   3
Atom  61H    basis set group =>   3
Atom  62H    basis set group =>   3
Atom  63H    basis set group =>   3
Atom  64H    basis set group =>   3
Atom  65H    basis set group =>   3
Atom  66H    basis set group =>   3
Atom  67H    basis set group =>   3
Atom  68H    basis set group =>   3
Atom  69H    basis set group =>   3
Atom  70H    basis set group =>   3
Atom  71H    basis set group =>   3
Atom  72H    basis set group =>   3
Atom  73H    basis set group =>   3
Atom  74H    basis set group =>   3
Atom  75H    basis set group =>   3
Atom  76H    basis set group =>   3
Atom  77H    basis set group =>   3
Atom  78H    basis set group =>   3
Atom  79H    basis set group =>   3
Atom  80H    basis set group =>   3
Atom  81H    basis set group =>   3
---------------------------------
AUXILIARY/X BASIS SET INFORMATION
---------------------------------
There are 3 groups of distinct atoms

 Group   1 Type C   : 15s13p12d5f5g contracted to 15s13p12d5f5g pattern {111111111111111/1111111111111/111111111111/11111/11111}
 Group   2 Type O   : 15s13p12d5f5g contracted to 15s13p12d5f5g pattern {111111111111111/1111111111111/111111111111/11111/11111}
 Group   3 Type H   : 12s4p3d2f contracted to 12s4p3d2f pattern {111111111111/1111/111/11}

Atom   0C    basis set group =>   1
Atom   1C    basis set group =>   1
Atom   2C    basis set group =>   1
Atom   3C    basis set group =>   1
Atom   4C    basis set group =>   1
Atom   5C    basis set group =>   1
Atom   6C    basis set group =>   1
Atom   7C    basis set group =>   1
Atom   8C    basis set group =>   1
Atom   9C    basis set group =>   1
Atom  10C    basis set group =>   1
Atom  11C    basis set group =>   1
Atom  12C    basis set group =>   1
Atom  13C    basis set group =>   1
Atom  14C    basis set group =>   1
Atom  15C    basis set group =>   1
Atom  16C    basis set group =>   1
Atom  17C    basis set group =>   1
Atom  18O    basis set group =>   2
Atom  19O    basis set group =>   2
Atom  20O    basis set group =>   2
Atom  21O    basis set group =>   2
Atom  22O    basis set group =>   2
Atom  23C    basis set group =>   1
Atom  24C    basis set group =>   1
Atom  25C    basis set group =>   1
Atom  26C    basis set group =>   1
Atom  27O    basis set group =>   2
Atom  28C    basis set group =>   1
Atom  29C    basis set group =>   1
Atom  30C    basis set group =>   1
Atom  31C    basis set group =>   1
Atom  32C    basis set group =>   1
Atom  33C    basis set group =>   1
Atom  34C    basis set group =>   1
Atom  35C    basis set group =>   1
Atom  36O    basis set group =>   2
Atom  37O    basis set group =>   2
Atom  38O    basis set group =>   2
Atom  39O    basis set group =>   2
Atom  40O    basis set group =>   2
Atom  41C    basis set group =>   1
Atom  42H    basis set group =>   3
Atom  43H    basis set group =>   3
Atom  44H    basis set group =>   3
Atom  45H    basis set group =>   3
Atom  46H    basis set group =>   3
Atom  47H    basis set group =>   3
Atom  48H    basis set group =>   3
Atom  49H    basis set group =>   3
Atom  50H    basis set group =>   3
Atom  51H    basis set group =>   3
Atom  52H    basis set group =>   3
Atom  53H    basis set group =>   3
Atom  54H    basis set group =>   3
Atom  55H    basis set group =>   3
Atom  56H    basis set group =>   3
Atom  57H    basis set group =>   3
Atom  58H    basis set group =>   3
Atom  59H    basis set group =>   3
Atom  60H    basis set group =>   3
Atom  61H    basis set group =>   3
Atom  62H    basis set group =>   3
Atom  63H    basis set group =>   3
Atom  64H    basis set group =>   3
Atom  65H    basis set group =>   3
Atom  66H    basis set group =>   3
Atom  67H    basis set group =>   3
Atom  68H    basis set group =>   3
Atom  69H    basis set group =>   3
Atom  70H    basis set group =>   3
Atom  71H    basis set group =>   3
Atom  72H    basis set group =>   3
Atom  73H    basis set group =>   3
Atom  74H    basis set group =>   3
Atom  75H    basis set group =>   3
Atom  76H    basis set group =>   3
Atom  77H    basis set group =>   3
Atom  78H    basis set group =>   3
Atom  79H    basis set group =>   3
Atom  80H    basis set group =>   3
Atom  81H    basis set group =>   3
--------------------------------------------------------------------------
WARNING: There is at least one non-excluded one OpenFabrics device found,
but there are no active ports detected (or Open MPI was unable to use
them).  This is most certainly not what you wanted.  Check your
cables, subnet manager configuration, etc.  The openib BTL will be
ignored for this job.

  Local host: c01b01n05
--------------------------------------------------------------------------
--------------------------------------------------------------------------
WARNING: There was an error initializing an OpenFabrics device.

  Local host:   c01b01n05
  Local device: mlx5_0
--------------------------------------------------------------------------
[c01b01n05:2605600] 5 more processes have sent help message help-mpi-btl-openib.txt / no active ports found
[c01b01n05:2605600] Set MCA parameter "orte_base_help_aggregate" to 0 to see all help / error messages
[c01b01n05:2605600] 53 more processes have sent help message help-mpi-btl-openib.txt / error in device init


           ************************************************************
           *        Program running with 60 parallel MPI-processes    *
           *              working on a common directory               *
           ************************************************************
------------------------------------------------------------------------------
                             ORCA STARTUP CALCULATIONS
                           -- RI-GTO INTEGRALS CHOSEN --
------------------------------------------------------------------------------
------------------------------------------------------------------------------
                   ___                                                        
                  /   \      - P O W E R E D   B Y -                         
                 /     \                                                     
                 |  |  |   _    _      __       _____    __    __             
                 |  |  |  | |  | |    /  \     |  _  \  |  |  /  |          
                  \  \/   | |  | |   /    \    | | | |  |  | /  /          
                 / \  \   | |__| |  /  /\  \   | |_| |  |  |/  /          
                |  |  |   |  __  | /  /__\  \  |    /   |      \           
                |  |  |   | |  | | |   __   |  |    \   |  |\   \          
                \     /   | |  | | |  |  |  |  | |\  \  |  | \   \       
                 \___/    |_|  |_| |__|  |__|  |_| \__\ |__|  \__/        
                                                                              
                      - O R C A' S   B I G   F R I E N D -                    
                                      &                                       
                       - I N T E G R A L  F E E D E R -                       
                                                                              
 v1 FN, 2020, v2 2021, v3 2022-2024                                           
------------------------------------------------------------------------------


----------------------
SHARK INTEGRAL PACKAGE
----------------------

Number of atoms                             ...     82
Number of basis functions                   ...   2072
Number of shells                            ...    744
Maximum angular momentum                    ...      3
Integral batch strategy                     ... SHARK/LIBINT Hybrid
RI-J (if used) integral strategy            ... SPLIT-RIJ (Revised 2003 algorithm where possible)
Printlevel                                  ...      1
Contraction scheme used                     ... SEGMENTED contraction
Prescreening option                         ... SCHWARTZ
   Thresh                                   ... 1.000e-10
   Tcut                                     ... 1.000e-11
   Tpresel                                  ... 1.000e-11 
Coulomb Range Separation                    ... NOT USED
Exchange Range Separation                   ... NOT USED
Multipole approximations                    ... NOT USED
Finite Nucleus Model                        ... NOT USED
CABS basis                                  ... NOT available
Auxiliary Coulomb fitting basis             ... AVAILABLE
   # of basis functions in Aux-J            ...  10268
   # of shells in Aux-J                     ...   2940
   Maximum angular momentum in Aux-J        ...      4
Auxiliary J/K fitting basis                 ... AVAILABLE
   # of basis functions in Aux-JK           ...  10268
   # of shells in Aux-JK                    ...   2940
   Maximum angular momentum in Aux-JK       ...      4
Auxiliary Correlation fitting basis         ... AVAILABLE
   # of basis functions in Aux-C            ...  10268
   # of shells in Aux-C                     ...   2940
   Maximum angular momentum in Aux-C        ...      4
Auxiliary 'external' fitting basis          ... NOT available

Checking pre-screening integrals            ... done (  0.0 sec) Dimension = 744
   => SHARK Basis and OBASIS are compatible. Storing Pre-screening
Shell pair information
Shell pair cut-off parameter TPreSel        ...   1.0e-11
Total number of shell pairs                 ...    277140
Shell pairs after pre-screening             ...    152276
Total number of primitive shell pairs       ...    823733
Primitive shell pairs kept                  ...    278779
          la=0 lb=0:  28984 shell pairs
          la=1 lb=0:  50607 shell pairs
          la=1 lb=1:  20664 shell pairs
          la=2 lb=0:  19983 shell pairs
          la=2 lb=1:  15164 shell pairs
          la=2 lb=2:   2684 shell pairs
          la=3 lb=0:   6868 shell pairs
          la=3 lb=1:   5163 shell pairs
          la=3 lb=2:   1824 shell pairs
          la=3 lb=3:    335 shell pairs

Checking whether 4 symmetric matrices of dimension 2072 fit in memory
:Max Core in MB      =   5000.00
 MB in use           =    187.91
 MB left             =   4812.09
 MB needed           =     65.54
 Data fit in memory  = YES
Calculating RI/J V-Matrix + Cholesky decomp.... done (  7.7 sec)
Calculating RI/JK V-Matrix + Cholesky decomp.... done (  3.9 sec)
Calculating RI/C V-Matrix + Cholesky decomp.... done (  9.5 sec)
Calculating Nuclear repulsion               ... done (  0.0 sec) ENN=   5732.953001151119 Eh

Diagonalization of the overlap matrix:
Smallest eigenvalue                        ... 6.780e-06
Time for diagonalization                   ...    3.038 sec
Threshold for overlap eigenvalues          ... 1.000e-07
Number of eigenvalues below threshold      ... 0
Time for construction of square roots      ...    0.325 sec
Total time needed                          ...    3.396 sec

-------------------
DFT GRID GENERATION
-------------------

General Integration Accuracy     IntAcc      ... 4.388
Radial Grid Type                 RadialGrid  ... OptM3 with GC (2021)
Angular Grid (max. ang.)         AngularGrid ... 4 (Lebedev-302)
Angular grid pruning method      GridPruning ... 4 (adaptive)
Weight generation scheme         WeightScheme... mBecke (2022)
Basis function cutoff            BFCut       ... 1.0000e-10
Integration weight cutoff        WCut        ... 1.0000e-14
Partially contracted basis set               ... off
Rotationally invariant grid construction     ... off
Angular grids for H and He will be reduced by one unit
Diffuse basis detected: some atoms will have their outermost
                        angular grid increased by 1.

Total number of grid points                  ...   376770
Total number of batches                      ...     5931
Average number of points per batch           ...       63
Average number of grid points per atom       ...     4595
Grids setup in   4.8 sec
Initializing property integral containers    ... done (  0.3 sec)

SHARK setup successfully completed in  44.6 seconds

Maximum memory used throughout the entire STARTUP-calculation: 259.9 MB
--------------------------------------------------------------------------
WARNING: There was an error initializing an OpenFabrics device.

  Local host:   c01b01n05
  Local device: mlx5_0
--------------------------------------------------------------------------
--------------------------------------------------------------------------
WARNING: There is at least one non-excluded one OpenFabrics device found,
but there are no active ports detected (or Open MPI was unable to use
them).  This is most certainly not what you wanted.  Check your
cables, subnet manager configuration, etc.  The openib BTL will be
ignored for this job.

  Local host: c01b01n05
--------------------------------------------------------------------------


           ************************************************************
           *        Program running with 60 parallel MPI-processes    *
           *              working on a common directory               *
           ************************************************************
-------------------------------------------------------------------------------
                                 ORCA GUESS
                   Start orbitals & Density for SCF / CASSCF
-------------------------------------------------------------------------------

------------
SCF SETTINGS
------------
Hamiltonian:
 Density Functional     Method          .... DFT(GTOs)
 Exchange Functional    Exchange        .... TPSS
 Correlation Functional Correlation     .... TPSS
 LDA part of GGA corr.  LDAOpt          .... PW91-LDA
 Gradients option       PostSCFGGA      .... off
   NL short-range parameter             ....  5.000000
 RI-approximation to the Coulomb term is turned on
   Number of AuxJ basis functions       .... 10268


General Settings:
 Integral files         IntName         .... nmr-conf-13
 Hartree-Fock type      HFTyp           .... RHF
 Total Charge           Charge          ....    0
 Multiplicity           Mult            ....    1
 Number of Electrons    NEL             ....  314
 Basis Dimension        Dim             .... 2072
 Nuclear Repulsion      ENuc            ....   5732.9530011511 Eh

Convergence Acceleration:
 AO-DIIS                CNVDIIS         .... on
   Start iteration      DIISMaxIt       ....    12
   Startup error        DIISStart       ....  0.200000
   # of expansion vecs  DIISMaxEq       ....     5
   Bias factor          DIISBfac        ....   1.050
   Max. coefficient     DIISMaxC        ....  10.000
 MO-DIIS                CNVKDIIS        .... off
 Trust-Rad. Augm. Hess. CNVTRAH         .... auto
   Auto Start mean grad. ratio tolernc. ....  1.125000
   Auto Start start iteration           ....    50
   Auto Start num. interpolation iter.  ....    10
   Max. Number of Micro iterations      ....    24
   Max. Number of Macro iterations      .... Maxiter - #DIIS iter
   Number of Davidson start vectors     ....     2
   Converg. threshold    (grad. norm)   ....   5.000e-05
   Grad. Scal. Fac. for Micro threshold ....   0.100
   Minimum threshold for Micro iter.    ....   1.000e-02
   NR start threshold (gradient norm)   ....   1.000e-04
   Initial trust radius                 ....   0.400
   Minimum AH scaling param. (alpha)    ....   1.000
   Maximum AH scaling param. (alpha)    .... 1000.000
   Quad. conv. algorithm                .... NR
   White noise on init. David. guess    .... on
   Maximum white noise                  ....   0.010
   Pseudo random numbers                .... off
   Inactive MOs                         .... canonical
   Orbital update algorithm             .... Taylor
   Preconditioner                       .... Diag
   Full preconditioner red. dimension   ....   250
 SOSCF                 CNVSOSCF           .... on
   Start iteration     SOSCFMaxIt         ....   150
   Startup grad/error  SOSCFStart         ....  0.003300
   Hessian update      SOSCFHessUp        .... L-BFGS
   Autom. constraints  SOSCFAutoConstrain .... off
 Level Shifting         CNVShift        .... on
   Level shift para.    LevelShift      ....    0.2500
   Turn off err/grad.   ShiftErr        ....    0.0010
 Zerner damping         CNVZerner       .... off
 Static damping         CNVDamp         .... on
   Fraction old density DampFac         ....    0.7000
   Max. Damping (<1)    DampMax         ....    0.9800
   Min. Damping (>=0)   DampMin         ....    0.0000
   Turn off err/grad.   DampErr         ....    0.1000

SCF Procedure:
 Maximum # iterations   MaxIter         ....   125
 SCF integral mode      SCFMode         .... Direct
   Integral package                     .... SHARK and LIBINT hybrid scheme
 Reset frequency        DirectResetFreq ....    20
 Integral Threshold     Thresh          ....  1.000e-10 Eh
 Primitive CutOff       TCut            ....  1.000e-11 Eh

Convergence Tolerance:
 Convergence Check Mode ConvCheckMode   .... Total+1el-Energy
 Convergence forced     ConvForced      .... 0
 Energy Change          TolE            ....  1.000e-06 Eh
 1-El. energy change                    ....  1.000e-03 Eh
 Orbital Gradient       TolG            ....  5.000e-05
 Orbital Rotation angle TolX            ....  5.000e-05
 DIIS Error             TolErr          ....  1.000e-06

------------------------------
INITIAL GUESS: MODEL POTENTIAL
------------------------------
Loading Hartree-Fock densities                     ... done
Calculating cut-offs                               ... done
Initializing the effective Hamiltonian             ... done
Setting up the integral package (SHARK)            ... done
Starting the Coulomb interaction                   ... [c01b01n05:2605995] 48 more processes have sent help message help-mpi-btl-openib.txt / error in device init
[c01b01n05:2605995] Set MCA parameter "orte_base_help_aggregate" to 0 to see all help / error messages
[c01b01n05:2605995] 10 more processes have sent help message help-mpi-btl-openib.txt / no active ports found
done (   3.6 sec)
Making the grid                                    ... done (   0.9 sec)
Mapping shells                                     ... done
Starting the XC term evaluation                    ... done (   0.6 sec)
  promolecular density results
     # of electrons  =    313.959788374
     EX              =   -260.289878483
     EC              =    -10.641975862
     EX+EC           =   -270.931854345
Transforming the Hamiltonian                       ... done (   0.5 sec)
Diagonalizing the Hamiltonian                      ... done (   0.6 sec)
Back transforming the eigenvectors                 ... done (   0.5 sec)
Now organizing SCF variables                       ... done
                      ------------------
                      INITIAL GUESS DONE (   7.8 sec)
                      ------------------
             **** ENERGY FILE WAS UPDATED (nmr-conf-13.en.tmp) ****
Finished Guess after  15.3 sec
Maximum memory used throughout the entire GUESS-calculation: 290.9 MB
--------------------------------------------------------------------------
WARNING: There was an error initializing an OpenFabrics device.

  Local host:   c01b01n05
  Local device: mlx5_0
--------------------------------------------------------------------------
--------------------------------------------------------------------------
WARNING: There is at least one non-excluded one OpenFabrics device found,
but there are no active ports detected (or Open MPI was unable to use
them).  This is most certainly not what you wanted.  Check your
cables, subnet manager configuration, etc.  The openib BTL will be
ignored for this job.

  Local host: c01b01n05
--------------------------------------------------------------------------


           ************************************************************
           *        Program running with 60 parallel MPI-processes    *
           *              working on a common directory               *
           ************************************************************

-------------------------------------------------------------------------------------------
                                      ORCA LEAN-SCF
                              memory conserving SCF solver
-------------------------------------------------------------------------------------------

--------------------
CPCM SOLVATION MODEL
--------------------
CPCM parameters:
  Epsilon                                         ...      33.4280
  Refrac                                          ...       1.3288
  Rsolv                                           ...       1.3000
  Surface type                                    ... GAUSSIAN VDW
  Discretization scheme                           ... Constant charge density
    Threshold for H atoms                         ...       5.0000 (charges/Ang^2)
    Threshold for non-H atoms                     ...       5.0000 (charges/Ang^2)
  Epsilon function type                           ...         CPCM
Solvent:                                          ... METHANOL
Radii:
  Scheme                                          ... Element-dependent radii
  Radius for C  used is    3.8550 Bohr (=   2.0400 Ang.)
  Radius for O  used is    3.4469 Bohr (=   1.8240 Ang.)
  Radius for H  used is    2.4944 Bohr (=   1.3200 Ang.)
Calculating surface                               ...        done! (  0.6s)
Cavity surface points                             ...         6232
Cavity Volume                                     ...    4528.9874
Cavity Surface-area                               ...    2045.6303
Calculating surface distance matrix               ...        done! (  0.2s)
Performing Cholesky decomposition & store         ...        [c01b01n05:2606435] 49 more processes have sent help message help-mpi-btl-openib.txt / error in device init
[c01b01n05:2606435] Set MCA parameter "orte_base_help_aggregate" to 0 to see all help / error messages
[c01b01n05:2606435] 9 more processes have sent help message help-mpi-btl-openib.txt / no active ports found
done! (  0.7s)
Overall time for CPCM initialization              ...                 1.7s

----------------------------------------D-I-I-S--------------------------------------------
Iteration    Energy (Eh)           Delta-E    RMSDP     MaxDP     DIISErr   Damp  Time(sec)
-------------------------------------------------------------------------------------------
               ***  Starting incremental Fock matrix formation  ***
    1    -2033.0240162005129605     0.00e+00  8.23e-03  3.17e-01  2.39e-01  0.700  18.2
    2    -2033.4287083710660227    -4.05e-01  6.70e-03  2.58e-01  8.30e-02  0.700  10.1
                               ***Turning on AO-DIIS***
    3    -2033.5805137864399512    -1.52e-01  2.81e-03  8.75e-02  2.48e-02  0.700   8.4
    4    -2033.6720916452986785    -9.16e-02  4.74e-03  9.03e-02  1.15e-02  0.000   8.5
    5    -2033.8746520744662121    -2.03e-01  1.27e-03  3.13e-02  4.48e-03  0.000   7.3
                              *** Initializing SOSCF ***
---------------------------------------S-O-S-C-F--------------------------------------
Iteration    Energy (Eh)           Delta-E    RMSDP     MaxDP     MaxGrad    Time(sec)
--------------------------------------------------------------------------------------
    6    -2033.8760095816805915    -1.36e-03  3.99e-04  7.53e-03  1.19e-03     9.3
               *** Restarting incremental Fock matrix formation ***
    7    -2033.8761148079929626    -1.05e-04  3.17e-04  6.51e-03  1.38e-04     7.9
    8    -2033.8760905625713349     2.42e-05  8.33e-05  2.27e-03  5.60e-04     5.6
    9    -2033.8761300270371066    -3.95e-05  7.11e-05  1.56e-03  8.93e-05     5.9
   10    -2033.8761307755703456    -7.49e-07  1.87e-05  5.74e-04  8.60e-05     6.9
                 **** Energy Check signals convergence ****

               *****************************************************
               *                     SUCCESS                       *
               *           SCF CONVERGED AFTER  10 CYCLES          *
               *****************************************************

             **** ENERGY FILE WAS UPDATED (nmr-conf-13.en.tmp) ****

----------------
TOTAL SCF ENERGY
----------------

Total Energy       :      -2033.87613094447897 Eh          -55344.58319 eV

Components:
Nuclear Repulsion  :       5732.95300115111877 Eh          156001.58213 eV
Electronic Energy  :      -7766.78056594368809 Eh         -211344.84376 eV
One Electron Energy:     -14192.50051319499653 Eh         -386197.57287 eV
Two Electron Energy:       6425.71994725130844 Eh          174852.72911 eV
CPCM Dielectric    :         -0.04856615190998 Eh              -1.32155 eV

Virial components:
Potential Energy   :      -4061.11679275687675 Eh         -110508.60608 eV
Kinetic Energy     :       2027.24066181239755 Eh           55164.02289 eV
Virial Ratio       :          2.00327315313721

DFT components:
N(Alpha)           :      157.000173047302 electrons
N(Beta)            :      157.000173047302 electrons
N(Total)           :      314.000346094604 electrons
E(X)               :     -268.088597978845 Eh       
E(C)               :      -10.604715698592 Eh       
E(XC)              :     -278.693313677437 Eh       

CPCM Solvation Model Properties:
Surface-charge          :         -0.04278258325261
Corrected charge        :         -0.00000000000000
Outlying charge corr.   :          0.00007930285530 Eh               0.00216 eV
Free-energy (cav+disp)  :  This term is not implemented in the current solvation scheme

---------------
SCF CONVERGENCE
---------------

  Last Energy change         ...    7.4853e-07  Tolerance :   1.0000e-06
  Last MAX-Density change    ...    5.7410e-04  Tolerance :   1.0000e-05
  Last RMS-Density change    ...    1.8675e-05  Tolerance :   1.0000e-06
  Last DIIS Error            ...    1.1871e-03  Tolerance :   1.0000e-06
  Last Orbital Gradient      ...    8.5987e-05  Tolerance :   5.0000e-05
  Last Orbital Rotation      ...    1.5444e-04  Tolerance :   5.0000e-05


----------------
ORBITAL ENERGIES
----------------

  NO   OCC          E(Eh)            E(eV) 
   0   2.0000     -18.921709      -514.8859 
   1   2.0000     -18.918818      -514.8072 
   2   2.0000     -18.918567      -514.8004 
   3   2.0000     -18.911815      -514.6167 
   4   2.0000     -18.909567      -514.5555 
   5   2.0000     -18.909522      -514.5543 
   6   2.0000     -18.902457      -514.3620 
   7   2.0000     -18.885485      -513.9002 
   8   2.0000     -18.882598      -513.8216 
   9   2.0000     -18.879512      -513.7376 
  10   2.0000     -18.862794      -513.2827 
  11   2.0000     -10.048621      -273.4369 
  12   2.0000     -10.047423      -273.4043 
  13   2.0000     -10.044518      -273.3252 
  14   2.0000     -10.043566      -273.2993 
  15   2.0000     -10.043440      -273.2959 
  16   2.0000     -10.042487      -273.2700 
  17   2.0000     -10.041163      -273.2339 
  18   2.0000     -10.040004      -273.2024 
  19   2.0000     -10.036580      -273.1092 
  20   2.0000     -10.035871      -273.0899 
  21   2.0000     -10.033668      -273.0300 
  22   2.0000     -10.032904      -273.0092 
  23   2.0000     -10.031185      -272.9624 
  24   2.0000     -10.028891      -272.9000 
  25   2.0000     -10.026283      -272.8290 
  26   2.0000     -10.022653      -272.7303 
  27   2.0000      -9.990989      -271.8686 
  28   2.0000      -9.990703      -271.8609 
  29   2.0000      -9.988522      -271.8015 
  30   2.0000      -9.988066      -271.7891 
  31   2.0000      -9.987919      -271.7851 
  32   2.0000      -9.986435      -271.7447 
  33   2.0000      -9.985864      -271.7292 
  34   2.0000      -9.985505      -271.7194 
  35   2.0000      -9.984365      -271.6884 
  36   2.0000      -9.983277      -271.6588 
  37   2.0000      -9.983024      -271.6519 
  38   2.0000      -9.981152      -271.6009 
  39   2.0000      -9.978910      -271.5399 
  40   2.0000      -9.976520      -271.4749 
  41   2.0000      -9.974230      -271.4126 
  42   2.0000      -1.016270       -27.6541 
  43   2.0000      -1.011480       -27.5238 
  44   2.0000      -1.007805       -27.4238 
  45   2.0000      -0.997121       -27.1330 
  46   2.0000      -0.990743       -26.9595 
  47   2.0000      -0.983343       -26.7581 
  48   2.0000      -0.981030       -26.6952 
  49   2.0000      -0.957707       -26.0605 
  50   2.0000      -0.956736       -26.0341 
  51   2.0000      -0.949920       -25.8486 
  52   2.0000      -0.934397       -25.4262 
  53   2.0000      -0.799333       -21.7509 
  54   2.0000      -0.797416       -21.6988 
  55   2.0000      -0.794390       -21.6164 
  56   2.0000      -0.758795       -20.6479 
  57   2.0000      -0.733809       -19.9680 
  58   2.0000      -0.719120       -19.5683 
  59   2.0000      -0.703890       -19.1538 
  60   2.0000      -0.701496       -19.0887 
  61   2.0000      -0.698005       -18.9937 
  62   2.0000      -0.696823       -18.9615 
  63   2.0000      -0.687339       -18.7034 
  64   2.0000      -0.670736       -18.2517 
  65   2.0000      -0.651355       -17.7243 
  66   2.0000      -0.649466       -17.6729 
  67   2.0000      -0.649195       -17.6655 
  68   2.0000      -0.639430       -17.3998 
  69   2.0000      -0.622462       -16.9381 
  70   2.0000      -0.617478       -16.8024 
  71   2.0000      -0.615350       -16.7445 
  72   2.0000      -0.581097       -15.8125 
  73   2.0000      -0.569065       -15.4851 
  74   2.0000      -0.562967       -15.3191 
  75   2.0000      -0.558175       -15.1887 
  76   2.0000      -0.550169       -14.9709 
  77   2.0000      -0.543987       -14.8027 
  78   2.0000      -0.540587       -14.7101 
  79   2.0000      -0.530864       -14.4455 
  80   2.0000      -0.518131       -14.0991 
  81   2.0000      -0.514476       -13.9996 
  82   2.0000      -0.505860       -13.7652 
  83   2.0000      -0.498451       -13.5635 
  84   2.0000      -0.482566       -13.1313 
  85   2.0000      -0.476044       -12.9538 
  86   2.0000      -0.474069       -12.9001 
  87   2.0000      -0.470581       -12.8051 
  88   2.0000      -0.461789       -12.5659 
  89   2.0000      -0.455414       -12.3924 
  90   2.0000      -0.453665       -12.3449 
  91   2.0000      -0.449529       -12.2323 
  92   2.0000      -0.446472       -12.1491 
  93   2.0000      -0.442687       -12.0461 
  94   2.0000      -0.438789       -11.9400 
  95   2.0000      -0.434198       -11.8151 
  96   2.0000      -0.427929       -11.6446 
  97   2.0000      -0.426890       -11.6163 
  98   2.0000      -0.422385       -11.4937 
  99   2.0000      -0.418844       -11.3973 
 100   2.0000      -0.417427       -11.3588 
 101   2.0000      -0.414804       -11.2874 
 102   2.0000      -0.409865       -11.1530 
 103   2.0000      -0.407500       -11.0886 
 104   2.0000      -0.399816       -10.8795 
 105   2.0000      -0.398185       -10.8352 
 106   2.0000      -0.393825       -10.7165 
 107   2.0000      -0.392247       -10.6736 
 108   2.0000      -0.386414       -10.5149 
 109   2.0000      -0.384448       -10.4614 
 110   2.0000      -0.383297       -10.4300 
 111   2.0000      -0.381318       -10.3762 
 112   2.0000      -0.378633       -10.3031 
 113   2.0000      -0.378177       -10.2907 
 114   2.0000      -0.375627       -10.2213 
 115   2.0000      -0.372765       -10.1435 
 116   2.0000      -0.368181       -10.0187 
 117   2.0000      -0.364693        -9.9238 
[...]
 
 sDSO          -182.747          -67.360           67.803  iso=     -60.768
 sPSO           206.288           92.834          -34.388  iso=      88.244
        ---------------  ---------------  ---------------
 Total           23.540           25.474           33.415  iso=      27.476

 Orientation: 
  X           0.8754820    0.3402048    0.3432084
  Y           0.1588274    0.4681866   -0.8692382
  Z          -0.4564046    0.8155133    0.3558551

 --------------
 Nucleus  73H :
 --------------

Diamagnetic contribution to the shielding tensor (ppm) : 
           -72.339        -40.972        30.108
          -103.062          2.353        12.729
           128.276        -51.606       -81.925

Paramagnetic contribution to the shielding tensor (ppm): 
           101.912         42.023       -27.342
           104.741         24.695       -14.379
          -126.433         51.637       108.509

Total shielding tensor (ppm): 
            29.573          1.051         2.766
             1.679         27.048        -1.650
             1.843          0.030        26.583


 Diagonalized sT*s matrix:
 
 sDSO           -91.317          -17.859          -42.736  iso=     -50.637
 sPSO           115.871           45.502           73.742  iso=      78.372
        ---------------  ---------------  ---------------
 Total           24.555           27.643           31.006  iso=      27.735

 Orientation: 
  X          -0.4730983    0.0588873   -0.8790394
  Y           0.5092905    0.8324382   -0.2183343
  Z           0.7188889   -0.5509800   -0.4238158

 --------------
 Nucleus  74H :
 --------------

Diamagnetic contribution to the shielding tensor (ppm) : 
          -100.818         49.511        10.702
          -111.899         70.893         6.759
           144.331        -87.468        18.277

Paramagnetic contribution to the shielding tensor (ppm): 
           124.355        -48.473       -10.505
           112.389        -43.490       -10.517
          -145.406         85.030        14.273

Total shielding tensor (ppm): 
            23.537          1.038         0.197
             0.491         27.403        -3.757
            -1.075         -2.437        32.550


 Diagonalized sT*s matrix:
 
 sDSO           -83.584           27.343           44.593  iso=      -3.883
 sPSO           106.973           -1.294          -10.541  iso=      31.713
        ---------------  ---------------  ---------------
 Total           23.389           26.049           34.052  iso=      27.830

 Orientation: 
  X           0.9807184    0.1799830   -0.0761412
  Y          -0.1952797    0.8874632   -0.4174624
  Z          -0.0075636    0.4242819    0.9054986

 --------------
 Nucleus  75H :
 --------------

Diamagnetic contribution to the shielding tensor (ppm) : 
           171.366        -43.439        16.967
           165.097         -1.136        19.256
          -157.741        147.504        51.006

Paramagnetic contribution to the shielding tensor (ppm): 
          -148.175         45.273       -17.802
          -160.964         40.449       -19.419
           155.391       -146.735       -22.181

Total shielding tensor (ppm): 
            23.192          1.834        -0.835
             4.133         39.313        -0.164
            -2.349          0.768        28.825


 Diagonalized sT*s matrix:
 
 sDSO            93.712           99.565           27.959  iso=      73.745
 sPSO           -71.448          -70.342           11.883  iso=     -43.302
        ---------------  ---------------  ---------------
 Total           22.264           29.224           39.842  iso=      30.443

 Orientation: 
  X          -0.9483876   -0.2508149   -0.1940435
  Y           0.1865234    0.0536539   -0.9809843
  Z          -0.2564567    0.9665470    0.0041018

 --------------
 Nucleus  76H :
 --------------

Diamagnetic contribution to the shielding tensor (ppm) : 
            98.384         50.304       -55.567
            49.077         90.762       -49.648
           -57.447        -89.053       257.763

Paramagnetic contribution to the shielding tensor (ppm): 
           -76.523        -48.072        63.990
           -48.854        -68.421        55.757
            65.342         96.086      -219.141

Total shielding tensor (ppm): 
            21.861          2.232         8.423
             0.222         22.342         6.108
             7.895          7.032        38.622


 Diagonalized sT*s matrix:
 
 sDSO           230.822           53.162          162.926  iso=     148.970
 sPSO          -212.942          -32.143         -119.000  iso=    -121.362
        ---------------  ---------------  ---------------
 Total           17.880           21.019           43.926  iso=      27.608

 Orientation: 
  X           0.7685236    0.5432549    0.3380024
  Y           0.4576625   -0.8359247    0.3029439
  Z          -0.4471203    0.0781285    0.8910552

 --------------
 Nucleus  77H :
 --------------

Diamagnetic contribution to the shielding tensor (ppm) : 
           131.065         77.987       -94.084
            98.593        116.779       -81.596
            30.059        -56.286       172.401

Paramagnetic contribution to the shielding tensor (ppm): 
          -114.103        -79.536        85.870
          -100.647        -94.036        78.723
           -38.196         53.080      -131.403

Total shielding tensor (ppm): 
            16.963         -1.549        -8.214
            -2.054         22.743        -2.873
            -8.137         -3.206        40.998


 Diagonalized sT*s matrix:
 
 sDSO           150.076           63.480          206.689  iso=     140.082
 sPSO          -136.402          -40.237         -162.903  iso=    -113.181
        ---------------  ---------------  ---------------
 Total           13.675           23.243           43.786  iso=      26.901

 Orientation: 
  X           0.9082970    0.3092050   -0.2817602
  Y           0.2873956   -0.9506638   -0.1167995
  Z           0.3039742   -0.0251120    0.9523492

 --------------
 Nucleus  78H :
 --------------

Diamagnetic contribution to the shielding tensor (ppm) : 
            96.432         48.160       -91.030
            42.564         89.208       -89.308
           -60.262        -46.437       197.138

Paramagnetic contribution to the shielding tensor (ppm): 
           -67.164        -39.218        89.762
           -37.050        -63.980        93.851
            59.176         50.418      -175.102

Total shielding tensor (ppm): 
            29.268          8.942        -1.268
             5.514         25.228         4.543
            -1.086          3.981        22.036


 Diagonalized sT*s matrix:
 
 sDSO           115.081          155.641          112.055  iso=     127.593
 sPSO           -98.498         -130.658          -77.089  iso=    -102.082
        ---------------  ---------------  ---------------
 Total           16.583           24.983           34.966  iso=      25.511

 Orientation: 
  X           0.4569330   -0.4828340   -0.7470499
  Y          -0.6507053    0.3911670   -0.6508233
  Z           0.6064609    0.7834920   -0.1354456

 --------------
 Nucleus  79H :
 --------------

Diamagnetic contribution to the shielding tensor (ppm) : 
            56.729         35.979       -41.732
            32.846         63.274       -47.736
          -147.352        135.707        94.272

Paramagnetic contribution to the shielding tensor (ppm): 
           -30.738        -34.598        43.938
           -33.471        -39.094        49.173
           149.184       -134.252       -60.102

Total shielding tensor (ppm): 
            25.991          1.381         2.206
            -0.625         24.180         1.437
             1.832          1.456        34.170


 Diagonalized sT*s matrix:
 
 sDSO            45.564          102.850           65.860  iso=      71.425
 sPSO           -21.594          -77.329          -31.011  iso=     -43.311
        ---------------  ---------------  ---------------
 Total           23.970           25.520           34.850  iso=      28.114

 Orientation: 
  X           0.0747717    0.9724576    0.2207612
  Y          -0.9887420    0.0435244    0.1431603
  Z           0.1296088   -0.2289802    0.9647640

 --------------
 Nucleus  80H :
 --------------

Diamagnetic contribution to the shielding tensor (ppm) : 
           -10.600          7.043       -57.495
           -48.238         62.431       -54.287
           -64.448         64.622       -38.417

Paramagnetic contribution to the shielding tensor (ppm): 
            36.649         -6.726        57.496
            47.065        -32.071        55.116
            64.218        -62.612        65.127

Total shielding tensor (ppm): 
            26.049          0.317         0.001
            -1.173         30.360         0.829
            -0.230          2.010        26.710


 Diagonalized sT*s matrix:
 
 sDSO             0.353          -49.780           62.841  iso=       4.471
 sPSO            25.653           76.007          -31.955  iso=      23.235
        ---------------  ---------------  ---------------
 Total           26.005           26.227           30.886  iso=      27.706

 Orientation: 
  X           0.9791074   -0.1749536   -0.1036339
  Y           0.1520763    0.2916935    0.9443451
  Z          -0.1349873   -0.9403755    0.3122055

 --------------
 Nucleus  81H :
 --------------

Diamagnetic contribution to the shielding tensor (ppm) : 
            24.252         53.197       -41.119
           -13.207         82.433       -45.362
           -71.142         35.419       112.217

Paramagnetic contribution to the shielding tensor (ppm): 
             4.611        -50.819        41.115
            16.568        -57.179        46.563
            74.200        -32.887       -84.370

Total shielding tensor (ppm): 
            28.864          2.378        -0.004
             3.361         25.254         1.201
             3.058          2.533        27.847


 Diagonalized sT*s matrix:
 
 sDSO            52.028          138.255           28.619  iso=      72.967
 sPSO           -28.577         -111.499            3.140  iso=     -45.646
        ---------------  ---------------  ---------------
 Total           23.451           26.756           31.758  iso=      27.322

 Orientation: 
  X           0.4006423    0.5353901    0.7435342
  Y          -0.8852773    0.0170359    0.4647515
  Z           0.2361566   -0.8444331    0.4807940



--------------------------------
CHEMICAL SHIELDING SUMMARY (ppm)
--------------------------------


  Nucleus  Element    Isotropic     Anisotropy
  -------  -------  ------------   ------------
      0       C           25.208        124.685 
      1       C           44.666         92.761 
      2       C           26.409        117.853 
      3       C           77.096        123.821 
      4       C           39.719        192.545 
      5       C           76.881        133.972 
      6       C          136.441         37.498 
      7       C          133.740         20.080 
      8       C          131.622         20.001 
      9       C          139.373         23.272 
     10       C           44.297        183.395 
     11       C           70.169        157.594 
     12       C           29.816        119.775 
     13       C           32.622        121.762 
     14       C           65.430        147.063 
     15       C           57.269        146.350 
     16       C          112.471         69.513 
     17       C          112.644         62.861 
     23       C           94.468         46.060 
     24       C           99.230         35.237 
     25       C           43.888        182.271 
     26       C          111.337         57.734 
     28       C           67.335        142.525 
     29       C           32.022        119.467 
     30       C           32.959        120.133 
     31       C           67.372        148.431 
     32       C           62.648        174.384 
     33       C          123.748         74.512 
     34       C          124.914         78.709 
     35       C          124.665         75.673 
     41       C          124.480         76.768 
     42       H           25.544          9.866 
     43       H           26.227          6.907 
     44       H           29.177          4.481 
     45       H           29.441          5.888 
     46       H           30.358          5.298 
     47       H           29.225          4.376 
     48       H           28.587          8.729 
     49       H           28.598          3.263 
     50       H           24.465         10.101 
     51       H           24.426          3.104 
     52       H           24.707          5.456 
     53       H           28.007          4.802 
     54       H           27.846          7.613 
     55       H           27.171          5.721 
     56       H           27.871          7.986 
     57       H           25.542         12.324 
     58       H           26.489          2.608 
     59       H           27.517          4.441 
     60       H           27.825          6.042 
     61       H           27.358          4.352 
     62       H           29.233         13.684 
     63       H           24.870          8.561 
     64       H           25.238          4.895 
     65       H           25.131          5.443 
     66       H           29.143          9.529 
     67       H           27.730          6.401 
     68       H           28.356          9.465 
     69       H           28.019          9.697 
     70       H           27.566          9.521 
     71       H           27.839          7.609 
     72       H           27.476          8.908 
     73       H           27.735          4.908 
     74       H           27.830          9.332 
     75       H           30.443         14.098 
     76       H           27.608         24.477 
     77       H           26.901         25.327 
     78       H           25.511         14.183 
     79       H           28.114         10.105 
     80       H           27.706          4.770 
     81       H           27.322          6.655 


NMR shielding tensor and spin rotation calculation done in   2.9 sec 

Maximum memory used throughout the entire PROP-calculation: 368.9 MB
--------------------------------------------------------------------------
WARNING: There was an error initializing an OpenFabrics device.

  Local host:   c01b01n05
  Local device: mlx5_0
--------------------------------------------------------------------------
--------------------------------------------------------------------------
WARNING: There is at least one non-excluded one OpenFabrics device found,
but there are no active ports detected (or Open MPI was unable to use
them).  This is most certainly not what you wanted.  Check your
cables, subnet manager configuration, etc.  The openib BTL will be
ignored for this job.

  Local host: c01b01n05
--------------------------------------------------------------------------
[c01b01n05:2608184] 49 more processes have sent help message help-mpi-btl-openib.txt / error in device init
[c01b01n05:2608184] Set MCA parameter "orte_base_help_aggregate" to 0 to see all help / error messages
[c01b01n05:2608184] 9 more processes have sent help message help-mpi-btl-openib.txt / no active ports found

--------------------------------
SUGGESTED CITATIONS FOR THIS RUN
--------------------------------

Below you find a list of papers that are relevant to this ORCA run
We neither can nor want to force you to cite these papers, but we appreciate if you do
You receive ORCA, which is the product of decades of hard work by many enthusiastic individuals, for free
The only thing we kindly ask in return is that you cite our papers,
We deeply appreciate it, if you show your appreciation for ORCA by not just citing the generic ORCA reference.

Please note that relegating all ORCA citations to the supporting information does *not* help us.
SI sections are not indexed - citations you put there will not count into any citation statistics
But we need these citations in order to attract the funding resources that allow us to do what we are doing

Therefore, if you are a happy ORCA user, please consider citing a few of the papers listed below in the main body of your paper

In addition to the list printed below, the program has created the file nmr-conf-13.bibtex that contains the list in bibtex format
You can import this file easily into all common literature databanks and citation aid programs


List of essential papers. We consider these as the minimum necessary citations

  1. Neese, F.
     Software update: the ORCA program system, version 6.0
     WIRES Comput. Molec. Sci. 2025 15(1), e70019
     doi.org/10.1002/wcms.7019

List of papers to cite with high priority. The work reported in these papers was absolutely
necessary for this run to complete.
Our perspective: the developers of density functionals and basis sets usually get cited in chemistry papers
Good! But without the algorithms to do something with them, the functionals or basis sets would not do anything.
Hence, in our opinion, the algorithm design and method developments papers are equally worthy of getting cited

  1. Neese, F.
     An improvement of the resolution of the identity approximation for the formation of the Coulomb matrix
     J. Comp. Chem. 2003 24(14), 1740-1747
     doi.org/10.1002/jcc.10318
  2. Stoychev, G.L.; Auer, A.A.; Neese, F.
     Automatic Generation of Auxiliary Basis Sets
     J. Theo. Comp. Chem. 2017 13 , 554-562
     doi.org/10.1021/acs.jctc.6b01041
  3. Stoychev, G.L.; Auer, A.A.; Izsak, R.; Neese, F.
     Self-Consistent Field Calculation of Nuclear Magnetic Resonance Chemical Shielding Constants Using Gauge-Including Atomic Orbitals and Approximate Two-Electron Integrals
     J. Chem. Theory Comput. 2018 14(2), 619-637
     doi.org/10.1021/acs.jctc.7b01006
  4. Garcia-Rates, M.; Neese, F.
     Effect of the Solute Cavity on the Solvation Energy and its Derivatives within the Framework of the Gaussian Charge Scheme
     J. Comput. Chem. 2020 41 , 922-939
     doi.org/10.1002/jcc.26139
  5. Neese, F.
     The SHARK Integral Generation and Digestion System
     J. Comp. Chem. 2022 44(3), 381
     doi.org/10.1002/jcc.26942

List of suggested additional citations. These are papers that are important in the 'surrounding' of 
of this run, or papers that preceded the highly important papers. If you like your results we are grateful for a citation.

  1. Neese, F.
     The ORCA program system
     WIRES Comput. Molec. Sci. 2012 2(1), 73-78
     doi.org/10.1002/wcms.81
  2. Neese, F.
     Software update: the ORCA program system, version 4.0
     WIRES Comput. Molec. Sci. 2018 8(1), 1-6
     doi.org/10.1002/wcms.1327
  3. Neese, F.; Wennmohs, F.; Becker, U.; Riplinger, C.
     The ORCA quantum chemistry program package
     J. Chem. Phys. 2020 152(22), 224108
     doi.org/10.1063/5.0004608
  4. Neese, F.
     Software update: The ORCA program system—Version 5.0
     WIRES Comput. Molec. Sci. 2022 12(1), e1606
     doi.org/10.1002/wcms.1606

List of optional additional citations

  1. Neese, F.
     Approximate second-order SCF convergence for spin unrestricted wavefunctions
     Chem. Phys. Lett. 2000 325(1-3), 93-98
     doi.org/10.1016/s0009-2614(00)00662-x

Timings for individual modules:

Sum of individual times          ...      311.807 sec (=   5.197 min)
Startup calculation              ...      103.768 sec (=   1.729 min)  33.3 %
SCF iterations                   ...      128.571 sec (=   2.143 min)  41.2 %
Property integrals               ...       52.810 sec (=   0.880 min)  16.9 %
SCF Response                     ...       15.685 sec (=   0.261 min)   5.0 %
Property calculations            ...       10.973 sec (=   0.183 min)   3.5 %
                             ****ORCA TERMINATED NORMALLY****
TOTAL RUN TIME: 0 days 0 hours 5 minutes 45 seconds 635 msec
