
                                 *****************
                                 * O   R   C   A *
                                 *****************

                                            #,                                       
                                            ###                                      
                                            ####                                     
                                            #####                                    
                                            ######                                   
                                           ########,                                 
                                     ,,################,,,,,                         
                               ,,#################################,,                 
                          ,,##########################################,,             
                       ,#########################################, ''#####,          
                    ,#############################################,,   '####,        
                  ,##################################################,,,,####,       
                ,###########''''           ''''###############################       
              ,#####''   ,,,,##########,,,,          '''####'''          '####       
            ,##' ,,,,###########################,,,                        '##       
           ' ,,###''''                  '''############,,,                           
         ,,##''                                '''############,,,,        ,,,,,,###''
      ,#''                                            '''#######################'''  
     '                                                          ''''####''''         
             ,#######,   #######,   ,#######,      ##                                
            ,#'     '#,  ##    ##  ,#'     '#,    #''#        ,####,    ,#,          
            ##       ##  ##   ,#'  ##            #'  '#       #'       ,# #          
            ##       ##  #######   ##           ,######,      #####,      #          
            '#,     ,#'  ##    ##  '#,     ,#' ,#      #,     #,   #      #          
             '#######'   ##     ##  '#######'  #'      '#     '####' #    #          



                #########################################################
                #                        -***-                          #
                #          Department of theory and spectroscopy        #
                #                                                       #
                #                      Frank Neese                      #
                #                                                       #
                #     Directorship, Architecture, Infrastructure        #
                #                    SHARK, DRIVERS                     #
                #        Core code/Algorithms in most modules           #
                #                                                       #
                #        Max Planck Institute fuer Kohlenforschung      #
                #                Kaiser Wilhelm Platz 1                 #
                #                 D-45470 Muelheim/Ruhr                 #
                #                      Germany                          #
                #                                                       #
                #                  All rights reserved                  #
                #                        -***-                          #
                #########################################################


                         Program Version 6.1.0-f.0  -   RELEASE   -


 With contributions from (in alphabetic order):
[Max-Planck-Institut fuer Kohlenforschung]                               
  Daniel Aravena         : Magnetic Suceptibility                        
  Michael Atanasov       : Ab Initio Ligand Field Theory (pilot matlab implementation)
  Alexander A. Auer      : GIAO ZORA, VPT2 properties, NMR spectrum      
  Ute Becker             : All parallelization in ORCA, NUMFREQ, NUMCALC 
  Giovanni Bistoni       : ED, misc. LED, open-shell LED, HFLD           
  Dmytro Bykov           : pre 5.0 version of the SCF Hessian            
  Marcos Casanova-Páez   : Triplet and SCS-CIS(D). UHF-(DLPNO)-IP/EA/STEOM-CCSD. UHF-CVS-IP/STEOM-CCSD   
  Vijay G. Chilkuri      : MRCI spin determinant printing, contributions to CSF-ICE 
  Pauline Colinet        : FMM embedding                                 
  Dipayan Datta          : RHF DLPNO-CCSD density                        
  Achintya Kumar Dutta   : EOM-CC, STEOM-CC                              
  Nicolas Foglia         : Exact transition moments, OPA infrastructure, MCD improvements    
  Dmitry Ganyushin       : Spin-Orbit,Spin-Spin,Magnetic field MRCI      
  Miquel Garcia-Rates    : C-PCM and meta-GGA Hessian, CCSD/C-PCM, Gaussian charge scheme 
  Tiago L. C. Gouveia    : GS-ROHF, GS-ROCIS                             
  Yang Guo               : DLPNO-NEVPT2, F12-NEVPT2, CIM, IAO-localization        
  Andreas Hansen         : Spin unrestricted coupled pair/coupled cluster methods 
  Ingolf Harden          : AUTO-CI MPn and infrastructure                
  Benjamin Helmich-Paris : MC-RPA, TRAH-(SCF,CASSCF), AVAS, COSX integrals, SCF dyn. polar., MC-PDFT, srDFT 
  Lee Huntington         : MR-EOM, pCC                                   
  Robert Izsak           : Overlap fitted RIJCOSX, COSX-SCS-MP3, EOM     
  Riya Kayal             : Wick's Theorem for AUTO-CI, AUTO-CI UHF-CCSDT 
  Emily Kempfer          : AUTO-CI RHF CISDT and CCSDT, approximate NEVPT4
  Christian Kollmar      : KDIIS, OOCD, Brueckner-CCSD(T), CCSD density, CASPT2, CASPT2-K, improved NEVPT2 
  Axel Koslowski         : Symmetry handling                             
  Simone Kossmann        : meta-GGA functionals, TD-DFT gradient, OOMP2, (MP2 Hessian; deprecated post 5.0) 
  Lucas Lang             : DCDCAS, Hyperfine gauge corrections, ICE-SOC+SSC
  Marvin Lechner         : AUTO-CI (C++ implementation), FIC-MRCC        
  Spencer Leger          : CASSCF response                               
  Dagmar Lenk            : GEPOL surface, SMD, ORCA-2-JSON               
  Dimitrios Liakos       : Extrapolation schemes; Compound Job, Property file
  Dimitrios Manganas     : Further ROCIS development; embedding schemes. LFT, Crystal Embedding 
  Dimitrios Pantazis     : SARC Basis sets                               
  Anastasios Papadopoulos: AUTO-CI, single reference methods and gradients 
  Taras Petrenko         : pre 6.0 DFT Hessian and TD-DFT gradient,  ECA, NRVS 
  Petra Pikulova         : Analytic Raman intensities                    
  Peter Pinski           : DLPNO-MP2, DLPNO-MP2 Gradient                 
  Shashank Vittal Rao    : ES-AILFT, MagRelax                            
  Christoph Reimann      : Effective Core Potentials                     
  Marius Retegan         : Local ZFS, SOC                                
  Christoph Riplinger    : Optimizer, TS searches, QM/MM, DLPNO-CCSD(T), (RO)-DLPNO pert. Triples 
  Michael Roemelt        : Original ROCIS implementation, recursive CI coupling coefficients
  Masaaki Saitow         : Open-shell DLPNO-CCSD energy and density      
  Barbara Sandhoefer     : DKH picture change effects                    
  Yorick L. A. Schmerwitz: GMF and freeze-and-release deltaSCF, NEB S-IDPP initial path                    
  Kantharuban Sivalingam : CASSCF convergence/infrastructure, NEVPT2, NEVPT3, NEVPT4(SD), FIC-MRCI and CEPA variants
  Bernardo de Souza      : ESD, SOC TD-DFT                               
  Georgi L. Stoychev     : AutoAux, RI-MP2 NMR, DLPNO-MP2 response, X2C  
  Van Anh Tran           : RI-MP2 g-tensors                              
  Willem Van den Heuvel  : Paramagnetic NMR                              
  Zikuan Wang            : NOTCH, Electric field optimization            
  Frank Wennmohs         : Technical directorship and infrastructure     
  Hang Xu                : AUTO-CI-Response properties                   
                                                                         
[FACCTs GmbH]                                                            
  Markus Bursch, Nicolas Foglia, Miquel Garcia-Rates, Ingolf Harden, Hagen Neugebauer, Anastasios Papadopoulos, 
  Christoph Riplinger, Bernardo de Souza, Georgi L. Stoychev                                                    
                                                                 
  APM, various basis sets, CI-OPT, improved COSX, DLPNO-Multilevel,           
  DOCKER, DRACO, updates on ESD, Fragmentator, GOAT, IRC, LR-CPCM, L-BFGS, MBIS, meta-GGA TD-DFT gradient, ML-optimized integration grids, 
  MM, NACMEs, nearIR, NEB, NEB-TS, NL-DFT gradient (VV10), 2- and 3-layer-ONIOM, interface openCOSMO-RS, QMMM,   
  Crystal-QMMM, RESP, rigid body optimization, SF, symmetry and pop. for TD-DFT, various functionals, SOLVATOR                                   
                                                                         
[Other institutions]                                                     
  V. Asgeirsson          : NEB                                           
  Christoph Bannwarth    : sTDA-DFT, sTD-DFT, PBEh-3c, B97-3c, D3        
  Giovanni Bistoni       : ETS/NOCV, ADLD/ADEX, COVALED                  
  Martin Brehm           : Molecular dynamics                            
  Ronald Cardenas        : ETS/NOCV                                      
  Martina Colucci        : COVALED                                       
  Sebastian Ehlert       : rSCAN, r2SCAN, r2SCAN-3c, D4, dhf basis sets  
  Marvin Friede          : D4 for Fr, Ra, Ac-Lr                          
  Lars Goerigk           : TD-DFT with DH, B97 family of functionals     
  Stefan Grimme          : VdW corrections, initial TS optimization, DFT functionals, gCP, sTDA/sTD-DF 
  Waldemar Hujo          : DFT-NL                                        
  H. Jonsson             : NEB                                           
  Holger Kruse           : gCP                                           
  Marcel Mueller         : wB97X-3c, vDZP basis set                      
  Hagen Neugebauer       : wr2SCAN, Native XTB                           
  Gianluca Regni         : ADLD/ADEX                                     
  Tobias Risthaus        : pre 6.0 range-separated hybrid DFT and stability analysis
  Lukas Wittmann         : regularized MP2, r2SCAN double-hybrids, wr2SCAN        
                                                                         
We gratefully acknowledge several colleagues who have allowed us to      
interface, adapt or use parts of their codes:                            
  Ed Valeev, F. Pavosevic, A. Kumar             : LibInt (2-el integral package), F12 methods 
  Garnet Chan, S. Sharma, J. Yang, R. Olivares  : DMRG                   
  Ulf Ekstrom                                   : XCFun DFT Library      
  Mihaly Kallay                                 : mrcc  (arbitrary order and MRCC methods)
  Frank Weinhold                                : gennbo (NPA and NBO analysis)           
  Simon Mueller                                 : openCOSMO-RS                            
  Christopher J. Cramer and Donald G. Truhlar   : smd solvation model                     
  S Lehtola, MJT Oliveira, MAL Marques          : LibXC Library                           
  Liviu Ungur et al                             : ANISO software                          


 Your calculation uses the libint2 library for the computation of 2-el integrals
 For citations please refer to: http://libint.valeyev.net

 Your ORCA version has been built with support for libXC version: 7.0.0
 For citations please refer to: https://libxc.gitlab.io

 This ORCA versions uses:
   CBLAS   interface :  Fast vector & matrix operations
   LAPACKE interface :  Fast linear algebra routines
   SCALAPACK package :  Parallel linear algebra routines
   Shared memory     :  Shared parallel matrices
   BLAS/LAPACK       :  OpenBLAS 0.3.29  USE64BITINT DYNAMIC_ARCH NO_AFFINITY Cooperlake SINGLE_THREADED
        Core in use  :  Cooperlake
   Copyright (c) 2011-2014, The OpenBLAS Project


  ***********************************
  * Starting time: Tue Mar  3 21:10:37 2026
  * Host name:     c01b01n06
  * Process ID:    53540
  * Working dir.:  /lustre1/jiangy/jiangy_liuxy/NMR/B9D7C2-SSSR-NMR/opt_conf
  ***********************************

NOTE: MaxCore=5000 MB was set to SCF,MP2,MDCI,CIPSI,MRCI,RASCI and CIS
      => If you want to overwrite this, your respective input block should be placed after the MaxCore statement


***************************************
The coordinates will be read from file: opt-conf-9.xyz
***************************************



Warning: The global flag for NMR shieldings has been found
         but shieldings for certain elements have also been explicitly requested in the EPRNMR block
         ==>> only the requested shieldings will be calculated

================================================================================

----- Orbital basis set information -----
Your calculation utilizes the basis: pcSseg-2
   F. Jensen, J. Chem. Theory Comput. 11, 132 (2015).

----- AuxJ basis set information -----
Your calculation utilizes the AutoAux generation procedure.
  G. L. Stoychev, A. A. Auer, F. Neese, J. Chem. Theory Comput. 13, 554 (2017)

----- AuxC basis set information -----
Your calculation utilizes the AutoAux generation procedure.
  G. L. Stoychev, A. A. Auer, F. Neese, J. Chem. Theory Comput. 13, 554 (2017)

----- AuxJK basis set information -----
Your calculation utilizes the AutoAux generation procedure.
  G. L. Stoychev, A. A. Auer, F. Neese, J. Chem. Theory Comput. 13, 554 (2017)

----- AuxX basis set information -----
Your calculation utilizes the AutoAux generation procedure.
  G. L. Stoychev, A. A. Auer, F. Neese, J. Chem. Theory Comput. 13, 554 (2017)

================================================================================
                                        WARNINGS
                       Please study these warnings very carefully!
================================================================================


================================================================================
                                       INPUT FILE
================================================================================
NAME = nmr-conf-9.inp
|  1> !TPSS PCSSEG-2 AUTOAUX NMR CPCM(Methanol)
|  2> 
|  3> %pal nprocs 60 end
|  4> %maxcore 5000
|  5> 
|  6> *XYZFILE 0 1 opt-conf-9.xyz
|  7> 
|  8> %EPRNMR
|  9>    NUCLEI = ALL C {SHIFT}
| 10>    NUCLEI = ALL H {SHIFT}
| 11>    TAU DOBSON
| 12> END
| 13> 
| 14> 
| 15>                          ****END OF INPUT****
================================================================================

                       ****************************
                       * Single Point Calculation *
                       ****************************

---------------------------------
CARTESIAN COORDINATES (ANGSTROEM)
---------------------------------
  C     30.301752  -26.849903    0.374284
  C     29.976136  -28.031677   -0.295736
  C     29.152683  -28.976166    0.348378
  C     28.647352  -28.723386    1.609065
  C     28.951962  -27.536171    2.261023
  C     29.778725  -26.616368    1.643001
  C     28.319908  -27.264052    3.596391
  C     26.836005  -26.888591    3.409591
  C     25.997641  -27.181794    4.675795
  C     24.547554  -27.573542    4.336447
  C     24.423876  -28.620588    3.266116
  C     23.585025  -28.386992    2.179202
  C     23.449030  -29.325263    1.171478
  C     24.170399  -30.527492    1.236391
  C     24.995831  -30.764789    2.321315
  C     25.115604  -29.821387    3.328285
  C     26.766257  -25.443071    2.899699
  C     25.982346  -26.034018    5.702538
  O     28.905999  -30.111914   -0.369412
  O     31.122393  -25.948588   -0.271030
  O     30.404786  -28.441589   -1.528046
  O     24.054915  -31.449591    0.240513
  O     22.649043  -29.194447    0.055522
  C     30.872752  -27.560053   -2.530024
  C     29.837734  -26.500616   -3.045336
  C     28.559827  -26.493262   -2.235603
  C     31.297504  -28.512234   -3.663103
  O     30.241231  -29.354453   -4.036380
  C     27.753096  -27.627966   -2.264016
  C     26.635055  -27.708215   -1.457518
  C     26.286593  -26.617094   -0.646407
  C     27.039067  -25.460196   -0.688478
  C     28.179857  -25.403534   -1.472310
  C     31.492211  -24.772371    0.411082
  C     28.199846  -31.152234    0.269619
  C     21.824457  -28.058315   -0.042056
  O     30.459458  -25.245051   -3.113721
  O     25.463278  -25.024791    2.565231
  O     25.066699  -25.008420    5.427605
  O     25.793585  -28.789935   -1.360009
  O     25.188776  -26.699721    0.168423
  C     26.031770  -29.884897   -2.215144
  H     27.998129  -29.433429    2.094554
  H     30.017143  -25.704530    2.165099
  H     28.388398  -28.165180    4.208380
  H     28.845692  -26.461719    4.116005
  H     26.440530  -27.528191    2.612613
  H     26.468808  -28.034356    5.175898
  H     24.079100  -27.939268    5.255001
  H     24.001665  -26.681718    4.028238
  H     23.039594  -27.457435    2.134508
  H     25.528569  -31.701715    2.367973
  H     25.755815  -30.031072    4.171130
  H     27.130920  -24.743028    3.656414
  H     27.425800  -25.366078    2.025707
  H     27.002552  -25.630033    5.805831
  H     25.685335  -26.431622    6.678337
  H     23.384348  -31.123164   -0.375475
  H     31.757613  -27.013650   -2.181930
  H     29.583115  -26.755773   -4.080453
  H     31.587719  -27.941381   -4.546335
  H     32.157134  -29.105546   -3.319906
  H     29.930108  -29.770121   -3.219960
  H     28.030180  -28.443819   -2.910771
  H     26.724693  -24.607963   -0.106870
  H     28.758277  -24.493299   -1.496624
  H     32.018267  -24.998505    1.342855
  H     32.169346  -24.243694   -0.259644
  H     30.625131  -24.139301    0.624503
  H     28.196923  -31.983648   -0.434085
  H     28.699648  -31.463926    1.191529
  H     27.168266  -30.863830    0.493365
  H     21.136809  -27.992408    0.806240
  H     22.411508  -27.137297   -0.108349
  H     21.254375  -28.188281   -0.960589
  H     30.761075  -25.030555   -2.220669
  H     25.176753  -25.542728    1.797104
  H     25.115922  -24.789245    4.484565
  H     24.817027  -27.587300    0.054593
  H     25.865903  -29.609135   -3.261047
  H     27.047547  -30.266929   -2.096179
  H     25.319271  -30.652258   -1.917680

----------------------------
CARTESIAN COORDINATES (A.U.)
----------------------------
  NO LB      ZA    FRAG     MASS         X           Y           Z
   0 C     6.0000    0    12.011   57.262013  -50.738963    0.707294
   1 C     6.0000    0    12.011   56.646687  -52.972193   -0.558860
   2 C     6.0000    0    12.011   55.090586  -54.757019    0.658339
   3 C     6.0000    0    12.011   54.135650  -54.279333    3.040693
   4 C     6.0000    0    12.011   54.711279  -52.035821    4.272714
   5 C     6.0000    0    12.011   56.273635  -50.297646    3.104822
   6 C     6.0000    0    12.011   53.516870  -51.521591    6.796195
   7 C     6.0000    0    12.011   50.712700  -50.812074    6.443193
   8 C     6.0000    0    12.011   49.128422  -51.366147    8.835972
   9 C     6.0000    0    12.011   46.388155  -52.106443    8.194698
  10 C     6.0000    0    12.011   46.154436  -54.085074    6.172065
  11 C     6.0000    0    12.011   44.569238  -53.643640    4.118095
  12 C     6.0000    0    12.011   44.312244  -55.416715    2.213773
  13 C     6.0000    0    12.011   45.675434  -57.688600    2.336440
  14 C     6.0000    0    12.011   47.235274  -58.137026    4.386649
  15 C     6.0000    0    12.011   47.461614  -56.354254    6.289547
  16 C     6.0000    0    12.011   50.580896  -48.080437    5.479636
  17 C     6.0000    0    12.011   49.099517  -49.197164   10.776234
  18 O     8.0000    0    15.999   54.624422  -56.903271   -0.698088
  19 O     8.0000    0    15.999   58.812799  -49.035725   -0.512173
  20 O     8.0000    0    15.999   57.456719  -53.746814   -2.887588
  21 O     8.0000    0    15.999   45.457201  -59.431114    0.454504
  22 O     8.0000    0    15.999   42.800489  -55.169510    0.104921
  23 C     6.0000    0    12.011   58.341046  -52.080953   -4.781053
  24 C     6.0000    0    12.011   56.385146  -50.078906   -5.754851
  25 C     6.0000    0    12.011   53.970252  -50.065010   -4.224677
  26 C     6.0000    0    12.011   59.143711  -53.880313   -6.922262
  27 O     8.0000    0    15.999   57.147645  -55.471877   -7.627652
  28 C     6.0000    0    12.011   52.445751  -52.209290   -4.278370
  29 C     6.0000    0    12.011   50.332960  -52.360938   -2.754310
  30 C     6.0000    0    12.011   49.674461  -50.299018   -1.221532
  31 C     6.0000    0    12.011   51.096431  -48.112798   -1.301034
  32 C     6.0000    0    12.011   53.252213  -48.005722   -2.782263
  33 C     6.0000    0    12.011   59.511654  -46.812997    0.776832
  34 C     6.0000    0    12.011   53.289986  -58.869191    0.509506
  35 C     6.0000    0    12.011   41.242246  -53.022532   -0.079474
  36 O     8.0000    0    15.999   57.560034  -47.706233   -5.884081
  37 O     8.0000    0    15.999   48.118623  -47.290001    4.847584
  38 O     8.0000    0    15.999   47.369196  -47.259064   10.256687
  39 O     8.0000    0    15.999   48.742812  -54.405093   -2.570045
  40 O     8.0000    0    15.999   47.599889  -50.455160    0.318274
  41 C     6.0000    0    12.011   49.192915  -56.474271   -4.186015
  42 H     1.0000    0     1.008   52.908795  -55.621120    3.958133
  43 H     1.0000    0     1.008   56.724179  -48.574523    4.091444
  44 H     1.0000    0     1.008   53.646297  -53.224477    7.952685
  45 H     1.0000    0     1.008   54.510459  -50.005401    7.778122
  46 H     1.0000    0     1.008   49.965361  -52.020742    4.937123
  47 H     1.0000    0     1.008   50.018797  -52.977255    9.781029
  48 H     1.0000    0     1.008   45.502904  -52.797565    9.930512
  49 H     1.0000    0     1.008   45.356574  -50.421140    7.612266
  50 H     1.0000    0     1.008   43.538524  -51.887033    4.033635
  51 H     1.0000    0     1.008   48.242003  -59.907560    4.474820
  52 H     1.0000    0     1.008   48.671436  -56.750502    7.882293
  53 H     1.0000    0     1.008   51.270009  -46.757546    6.909621
  54 H     1.0000    0     1.008   51.827250  -47.934940    3.828032
  55 H     1.0000    0     1.008   51.027427  -48.433744   10.971431
  56 H     1.0000    0     1.008   48.538249  -49.948527   12.620228
  57 H     1.0000    0     1.008   44.190013  -58.814256   -0.709546
  58 H     1.0000    0     1.008   60.013191  -51.048400   -4.123250
  59 H     1.0000    0     1.008   55.903985  -50.561084   -7.710938
  60 H     1.0000    0     1.008   59.692138  -52.801557   -8.591328
  61 H     1.0000    0     1.008   60.768177  -55.001511   -6.273713
  62 H     1.0000    0     1.008   56.559708  -56.257375   -6.084843
  63 H     1.0000    0     1.008   52.969364  -53.751028   -5.500559
  64 H     1.0000    0     1.008   50.502351  -46.502312   -0.201954
  65 H     1.0000    0     1.008   54.345267  -46.285627   -2.828210
  66 H     1.0000    0     1.008   60.505756  -47.240328    2.537628
  67 H     1.0000    0     1.008   60.791255  -45.813943   -0.490657
  68 H     1.0000    0     1.008   57.873111  -45.616667    1.180139
  69 H     1.0000    0     1.008   53.284463  -60.440335   -0.820302
  70 H     1.0000    0     1.008   54.234475  -59.458203    2.251663
  71 H     1.0000    0     1.008   51.340582  -58.324186    0.932325
  72 H     1.0000    0     1.008   39.942779  -52.897986    1.523573
  73 H     1.0000    0     1.008   42.351613  -51.282059   -0.204751
  74 H     1.0000    0     1.008   40.164948  -53.268131   -1.815250
  75 H     1.0000    0     1.008   58.130007  -47.300894   -4.196456
  76 H     1.0000    0     1.008   47.577168  -48.268760    3.396034
  77 H     1.0000    0     1.008   47.462214  -46.844884    8.474600
  78 H     1.0000    0     1.008   46.897384  -52.132443    0.103165
  79 H     1.0000    0     1.008   48.879472  -55.953155   -6.162485
  80 H     1.0000    0     1.008   51.112456  -57.196207   -3.961204
  81 H     1.0000    0     1.008   47.846489  -57.924374   -3.623890

--------------------------------
INTERNAL COORDINATES (ANGSTROEM)
--------------------------------
 C      0   0   0     0.000000000000     0.00000000     0.00000000
 C      1   0   0     1.396976543147     0.00000000     0.00000000
 C      2   1   0     1.408906429690   118.95100545     0.00000000
 C      3   2   1     1.381517091565   120.55149962     1.61700270
 C      4   3   2     1.388278254609   120.31528664   359.62554995
 C      5   4   3     1.382579502567   119.35468272   359.23736357
 C      5   4   3     1.502248397602   118.68786624   176.53095181
 C      7   5   4     1.542022082742   109.95629783   285.73766563
 C      8   7   5     1.546639871397   112.10415031   155.59129864
 C      9   8   7     1.539926963811   112.22521390   211.84231940
 C     10   9   8     1.502401647239   114.31799537    48.20039815
 C     11  10   9     1.392702842937   119.25405265   231.47049591
 C     12  11  10     1.383601802542   120.92239477   179.75812622
 C     13  12  11     1.403546498662   119.77967680   359.60873677
 C     14  13  12     1.383729875811   119.32392205     0.89634667
 C     15  14  13     1.385042035728   120.31889080   359.56807580
 C      8   7   5     1.534399848225   108.26307831   283.77756144
 C      9   8   7     1.540072779588   114.19858206    87.01667473
 O      3   2   1     1.366015551537   115.00423508   181.16074623
 O      1   2   3     1.379220443558   117.84663459   179.23187532
 O      2   1   3     1.367609776328   127.78289212   182.75463344
 O     14  13  12     1.362121286442   120.16357341   180.80125136
 O     13  12  11     1.379293415299   125.58931063   180.02696099
 C     21   2   1     1.414234173794   123.73038137   336.95381936
 C     24  21   2     1.568188354443   115.81898206   298.31615531
 C     25  24  21     1.512867231294   112.63810524     7.70260091
 C     24  21   2     1.539782698787   103.13106193   176.89840830
 O     27  24  21     1.401563305664   111.08100011    55.32486769
 C     26  25  24     1.392542953994   118.32467945   295.05446954
 C     29  26  25     1.380903454874   120.29696079   174.74409183
 C     30  29  26     1.403521418630   119.56163652     2.48139241
 C     31  30  29     1.380724239834   119.89914617     1.85629330
 C     26  25  24     1.383654515732   122.07655171   114.76773119
 C     20   1   2     1.409087515160   118.36999934   181.97524248
 C     19   3   2     1.410418203825   117.74896553   173.83962701
 C     23  13  12     1.407216868752   118.19898353   355.42152353
 O     25  24  21     1.402732804748   109.15897445   134.51938520
 O     17   8   7     1.408751528998   113.61926840   174.15673888
 O     18   9   8     1.402087307844   114.89204353    81.81894184
 O     30  29  26     1.373935365369   125.66687379   182.58455708
 O     31  30  29     1.369662809796   119.72967643   180.88584722
 C     40  30  29     1.409584652765   117.71285951   355.62249074
 H      4   3   2     1.077659803199   120.72407186   178.52485332
 H      6   5   4     1.077440002106   118.60333037   180.75795799
 H      7   5   4     1.091445383384   108.81229796    45.33168993
 H      7   5   4     1.090956593505   110.72150670   163.94523672
 H      8   7   5     1.095747587151   107.05556471    38.77953254
 H      9   8   7     1.094971279005   106.75453299   329.89094289
 H     10   9   8     1.094050332086   107.65149899   169.78279001
 H     10   9   8     1.090109154998   109.01009084   285.80141740
 H     12  11  10     1.078687735959   118.77912006   359.77061135
 H     15  14  13     1.078803856249   118.51742276   178.76047316
 H     16  15  14     1.078992753982   119.13415300   179.29872290
 H     17   8   7     1.093461692855   110.97719340   294.02943197
 H     17   8   7     1.097626923403   107.66015303    51.78519171
 H     18   9   8     1.102131305546   109.05456166   316.78634015
 H     18   9   8     1.094754925234   109.04199401   199.67079671
 H     22  14  13     0.967293478882   107.21248314   355.65638586
 H     24  21   2     1.096679491657   110.65066279    60.91665094
 H     25  24  21     1.096085531404   107.84096331   248.52670301
 H     27  24  21     1.090961046655   110.21595142   174.25715402
 H     27  24  21     1.099440172488   108.64408042   293.73730555
 H     28  27  24     0.967531789537   106.00809599   307.27272374
 H     29  26  25     1.077350114108   118.70598660   355.92381136
 H     32  31  30     1.078609730716   119.12812693   176.19288925
 H     33  26  25     1.078744129194   120.32248931     4.66926483
 H     34  20   1     1.093651361465   111.47361507    59.01872505
 H     34  20   1     1.089901403338   105.66769582   177.30711280
 H     34  20   1     1.094602473054   111.66999125   296.12453787
 H     35  19   3     1.089245693141   105.76159289   185.27697367
 H     35  19   3     1.094016407125   111.29789780   303.70280911
 H     35  19   3     1.094256235246   111.72995603    66.43164593
 H     36  23  13     1.093988121618   111.29649662   301.47318881
 H     36  23  13     1.094211726591   111.67833397    64.16654555
 H     36  23  13     1.088846706207   105.60005690   182.85004676
 H     37  25  24     0.966707807563   106.96900988   300.26633636
 H     38  17   8     0.969729235215   107.62365175   293.47278996
 H     39  18   9     0.969424981344   108.84262763   315.89837443
 H     41  31  30     0.968995984873   107.02992422     1.60318002
 H     42  40  30     1.094289565368   111.00601222   294.30056929
 H     42  40  30     1.091743822976   111.28051885    56.49405493
 H     42  40  30     1.088568585943   105.73632606   175.21278960

---------------------------
INTERNAL COORDINATES (A.U.)
---------------------------
 C      0   0   0     0.000000000000     0.00000000     0.00000000
 C      1   0   0     2.639903082060     0.00000000     0.00000000
 C      2   1   0     2.662447300434   118.95100545     0.00000000
 C      3   2   1     2.610688952390   120.55149962     1.61700270
 C      4   3   2     2.623465698890   120.31528664   359.62554995
 C      5   4   3     2.612696618224   119.35468272   359.23736357
 C      5   4   3     2.838838056590   118.68786624   176.53095181
 C      7   5   4     2.913999428841   109.95629783   285.73766563
 C      8   7   5     2.922725784744   112.10415031   155.59129864
 C      9   8   7     2.910040227844   112.22521390   211.84231940
 C     10   9   8     2.839127656433   114.31799537    48.20039815
 C     11  10   9     2.631826959084   119.25405265   231.47049591
 C     12  11  10     2.614628485204   120.92239477   179.75812622
 C     13  12  11     2.652318498696   119.77967680   359.60873677
 C     14  13  12     2.614870508608   119.32392205     0.89634667
 C     15  14  13     2.617350131495   120.31889080   359.56807580
 C      8   7   5     2.899595493076   108.26307831   283.77756144
 C      9   8   7     2.910315779728   114.19858206    87.01667473
 O      3   2   1     2.581395287083   115.00423508   181.16074623
 O      1   2   3     2.606348916630   117.84663459   179.23187532
 O      2   1   3     2.584407935333   127.78289212   182.75463344
 O     14  13  12     2.574036192560   120.16357341   180.80125136
 O     13  12  11     2.606486813236   125.58931063   180.02696099
 C     21   2   1     2.672515277703   123.73038137   336.95381936
 C     24  21   2     2.963446516303   115.81898206   298.31615531
 C     25  24  21     2.858904744129   112.63810524     7.70260091
 C     24  21   2     2.909767606458   103.13106193   176.89840830
 O     27  24  21     2.648570807058   111.08100011    55.32486769
 C     26  25  24     2.631524812770   118.32467945   295.05446954
 C     29  26  25     2.609529347098   120.29696079   174.74409183
 C     30  29  26     2.652271104303   119.56163652     2.48139241
 C     31  30  29     2.609190679753   119.89914617     1.85629330
 C     26  25  24     2.614728098697   122.07655171   114.76773119
 C     20   1   2     2.662789502380   118.36999934   181.97524248
 C     19   3   2     2.665304139526   117.74896553   173.83962701
 C     23  13  12     2.659254492975   118.19898353   355.42152353
 O     25  24  21     2.650780840040   109.15897445   134.51938520
 O     17   8   7     2.662154580549   113.61926840   174.15673888
 O     18   9   8     2.649561027672   114.89204353    81.81894184
 O     30  29  26     2.596361566257   125.66687379   182.58455708
 O     31  30  29     2.588287606332   119.72967643   180.88584722
 C     40  30  29     2.663728956305   117.71285951   355.62249074
 H      4   3   2     2.036481893582   120.72407186   178.52485332
 H      6   5   4     2.036066529713   118.60333037   180.75795799
 H      7   5   4     2.062532864728   108.81229796    45.33168993
 H      7   5   4     2.061609185719   110.72150670   163.94523672
 H      8   7   5     2.070662851620   107.05556471    38.77953254
 H      9   8   7     2.069195841829   106.75453299   329.89094289
 H     10   9   8     2.067455504369   107.65149899   169.78279001
 H     10   9   8     2.060007759027   109.01009084   285.80141740
 H     12  11  10     2.038424404983   118.77912006   359.77061135
 H     15  14  13     2.038643840529   118.51742276   178.76047316
 H     16  15  14     2.039000805512   119.13415300   179.29872290
 H     17   8   7     2.066343137431   110.97719340   294.02943197
 H     17   8   7     2.074214282451   107.66015303    51.78519171
 H     18   9   8     2.082726331103   109.05456166   316.78634015
 H     18   9   8     2.068786992454   109.04199401   199.67079671
 H     22  14  13     1.827919766215   107.21248314   355.65638586
 H     24  21   2     2.072423895920   110.65066279    60.91665094
 H     25  24  21     2.071301473707   107.84096331   248.52670301
 H     27  24  21     2.061617600955   110.21595142   174.25715402
 H     27  24  21     2.077640826634   108.64408042   293.73730555
 H     28  27  24     1.828370108089   106.00809599   307.27272374
 H     29  26  25     2.035896666013   118.70598660   355.92381136
 H     32  31  30     2.038276996436   119.12812693   176.19288925
 H     33  26  25     2.038530972752   120.32248931     4.66926483
 H     34  20   1     2.066701559159   111.47361507    59.01872505
 H     34  20   1     2.059615165284   105.66769582   177.30711280
 H     34  20   1     2.068498899586   111.66999125   296.12453787
 H     35  19   3     2.058376052590   105.76159289   185.27697367
 H     35  19   3     2.067391395483   111.29789780   303.70280911
 H     35  19   3     2.067844604951   111.72995603    66.43164593
 H     36  23  13     2.067337943620   111.29649662   301.47318881
 H     36  23  13     2.067760495782   111.67833397    64.16654555
 H     36  23  13     2.057622076553   105.60005690   182.85004676
 H     37  25  24     1.826813007818   106.96900988   300.26633636
 H     38  17   8     1.832522678613   107.62365175   293.47278996
 H     39  18   9     1.831947722121   108.84262763   315.89837443
 H     41  31  30     1.831137036279   107.02992422     1.60318002
 H     42  40  30     2.067907589754   111.00601222   294.30056929
 H     42  40  30     2.063096833826   111.28051885    56.49405493
 H     42  40  30     2.057096505421   105.73632606   175.21278960

---------------------
BASIS SET INFORMATION
---------------------
There are 3 groups of distinct atoms

 Group   1 Type C   : 11s7p2d1f contracted to 4s5p2d1f pattern {7211/31111/11/1}
 Group   2 Type O   : 11s7p2d1f contracted to 4s5p2d1f pattern {7211/31111/11/1}
 Group   3 Type H   : 6s3p1d contracted to 3s2p1d pattern {411/21/1}

Atom   0C    basis set group =>   1
Atom   1C    basis set group =>   1
Atom   2C    basis set group =>   1
Atom   3C    basis set group =>   1
Atom   4C    basis set group =>   1
Atom   5C    basis set group =>   1
Atom   6C    basis set group =>   1
Atom   7C    basis set group =>   1
Atom   8C    basis set group =>   1
Atom   9C    basis set group =>   1
Atom  10C    basis set group =>   1
Atom  11C    basis set group =>   1
Atom  12C    basis set group =>   1
Atom  13C    basis set group =>   1
Atom  14C    basis set group =>   1
Atom  15C    basis set group =>   1
Atom  16C    basis set group =>   1
Atom  17C    basis set group =>   1
Atom  18O    basis set group =>   2
Atom  19O    basis set group =>   2
Atom  20O    basis set group =>   2
Atom  21O    basis set group =>   2
Atom  22O    basis set group =>   2
Atom  23C    basis set group =>   1
Atom  24C    basis set group =>   1
Atom  25C    basis set group =>   1
Atom  26C    basis set group =>   1
Atom  27O    basis set group =>   2
Atom  28C    basis set group =>   1
Atom  29C    basis set group =>   1
Atom  30C    basis set group =>   1
Atom  31C    basis set group =>   1
Atom  32C    basis set group =>   1
Atom  33C    basis set group =>   1
Atom  34C    basis set group =>   1
Atom  35C    basis set group =>   1
Atom  36O    basis set group =>   2
Atom  37O    basis set group =>   2
Atom  38O    basis set group =>   2
Atom  39O    basis set group =>   2
Atom  40O    basis set group =>   2
Atom  41C    basis set group =>   1
Atom  42H    basis set group =>   3
Atom  43H    basis set group =>   3
Atom  44H    basis set group =>   3
Atom  45H    basis set group =>   3
Atom  46H    basis set group =>   3
Atom  47H    basis set group =>   3
Atom  48H    basis set group =>   3
Atom  49H    basis set group =>   3
Atom  50H    basis set group =>   3
Atom  51H    basis set group =>   3
Atom  52H    basis set group =>   3
Atom  53H    basis set group =>   3
Atom  54H    basis set group =>   3
Atom  55H    basis set group =>   3
Atom  56H    basis set group =>   3
Atom  57H    basis set group =>   3
Atom  58H    basis set group =>   3
Atom  59H    basis set group =>   3
Atom  60H    basis set group =>   3
Atom  61H    basis set group =>   3
Atom  62H    basis set group =>   3
Atom  63H    basis set group =>   3
Atom  64H    basis set group =>   3
Atom  65H    basis set group =>   3
Atom  66H    basis set group =>   3
Atom  67H    basis set group =>   3
Atom  68H    basis set group =>   3
Atom  69H    basis set group =>   3
Atom  70H    basis set group =>   3
Atom  71H    basis set group =>   3
Atom  72H    basis set group =>   3
Atom  73H    basis set group =>   3
Atom  74H    basis set group =>   3
Atom  75H    basis set group =>   3
Atom  76H    basis set group =>   3
Atom  77H    basis set group =>   3
Atom  78H    basis set group =>   3
Atom  79H    basis set group =>   3
Atom  80H    basis set group =>   3
Atom  81H    basis set group =>   3
---------------------------------
AUXILIARY/J BASIS SET INFORMATION
---------------------------------
There are 3 groups of distinct atoms

 Group   1 Type C   : 15s13p12d5f5g contracted to 15s13p12d5f5g pattern {111111111111111/1111111111111/111111111111/11111/11111}
 Group   2 Type O   : 15s13p12d5f5g contracted to 15s13p12d5f5g pattern {111111111111111/1111111111111/111111111111/11111/11111}
 Group   3 Type H   : 12s4p3d2f contracted to 12s4p3d2f pattern {111111111111/1111/111/11}

Atom   0C    basis set group =>   1
Atom   1C    basis set group =>   1
Atom   2C    basis set group =>   1
Atom   3C    basis set group =>   1
Atom   4C    basis set group =>   1
Atom   5C    basis set group =>   1
Atom   6C    basis set group =>   1
Atom   7C    basis set group =>   1
Atom   8C    basis set group =>   1
Atom   9C    basis set group =>   1
Atom  10C    basis set group =>   1
Atom  11C    basis set group =>   1
Atom  12C    basis set group =>   1
Atom  13C    basis set group =>   1
Atom  14C    basis set group =>   1
Atom  15C    basis set group =>   1
Atom  16C    basis set group =>   1
Atom  17C    basis set group =>   1
Atom  18O    basis set group =>   2
Atom  19O    basis set group =>   2
Atom  20O    basis set group =>   2
Atom  21O    basis set group =>   2
Atom  22O    basis set group =>   2
Atom  23C    basis set group =>   1
Atom  24C    basis set group =>   1
Atom  25C    basis set group =>   1
Atom  26C    basis set group =>   1
Atom  27O    basis set group =>   2
Atom  28C    basis set group =>   1
Atom  29C    basis set group =>   1
Atom  30C    basis set group =>   1
Atom  31C    basis set group =>   1
Atom  32C    basis set group =>   1
Atom  33C    basis set group =>   1
Atom  34C    basis set group =>   1
Atom  35C    basis set group =>   1
Atom  36O    basis set group =>   2
Atom  37O    basis set group =>   2
Atom  38O    basis set group =>   2
Atom  39O    basis set group =>   2
Atom  40O    basis set group =>   2
Atom  41C    basis set group =>   1
Atom  42H    basis set group =>   3
Atom  43H    basis set group =>   3
Atom  44H    basis set group =>   3
Atom  45H    basis set group =>   3
Atom  46H    basis set group =>   3
Atom  47H    basis set group =>   3
Atom  48H    basis set group =>   3
Atom  49H    basis set group =>   3
Atom  50H    basis set group =>   3
Atom  51H    basis set group =>   3
Atom  52H    basis set group =>   3
Atom  53H    basis set group =>   3
Atom  54H    basis set group =>   3
Atom  55H    basis set group =>   3
Atom  56H    basis set group =>   3
Atom  57H    basis set group =>   3
Atom  58H    basis set group =>   3
Atom  59H    basis set group =>   3
Atom  60H    basis set group =>   3
Atom  61H    basis set group =>   3
Atom  62H    basis set group =>   3
Atom  63H    basis set group =>   3
Atom  64H    basis set group =>   3
Atom  65H    basis set group =>   3
Atom  66H    basis set group =>   3
Atom  67H    basis set group =>   3
Atom  68H    basis set group =>   3
Atom  69H    basis set group =>   3
Atom  70H    basis set group =>   3
Atom  71H    basis set group =>   3
Atom  72H    basis set group =>   3
Atom  73H    basis set group =>   3
Atom  74H    basis set group =>   3
Atom  75H    basis set group =>   3
Atom  76H    basis set group =>   3
Atom  77H    basis set group =>   3
Atom  78H    basis set group =>   3
Atom  79H    basis set group =>   3
Atom  80H    basis set group =>   3
Atom  81H    basis set group =>   3
---------------------------------
AUXILIARY/C BASIS SET INFORMATION
---------------------------------
There are 3 groups of distinct atoms

 Group   1 Type C   : 15s13p12d5f5g contracted to 15s13p12d5f5g pattern {111111111111111/1111111111111/111111111111/11111/11111}
 Group   2 Type O   : 15s13p12d5f5g contracted to 15s13p12d5f5g pattern {111111111111111/1111111111111/111111111111/11111/11111}
 Group   3 Type H   : 12s4p3d2f contracted to 12s4p3d2f pattern {111111111111/1111/111/11}

Atom   0C    basis set group =>   1
Atom   1C    basis set group =>   1
Atom   2C    basis set group =>   1
Atom   3C    basis set group =>   1
Atom   4C    basis set group =>   1
Atom   5C    basis set group =>   1
Atom   6C    basis set group =>   1
Atom   7C    basis set group =>   1
Atom   8C    basis set group =>   1
Atom   9C    basis set group =>   1
Atom  10C    basis set group =>   1
Atom  11C    basis set group =>   1
Atom  12C    basis set group =>   1
Atom  13C    basis set group =>   1
Atom  14C    basis set group =>   1
Atom  15C    basis set group =>   1
Atom  16C    basis set group =>   1
Atom  17C    basis set group =>   1
Atom  18O    basis set group =>   2
Atom  19O    basis set group =>   2
Atom  20O    basis set group =>   2
Atom  21O    basis set group =>   2
Atom  22O    basis set group =>   2
Atom  23C    basis set group =>   1
Atom  24C    basis set group =>   1
Atom  25C    basis set group =>   1
Atom  26C    basis set group =>   1
Atom  27O    basis set group =>   2
Atom  28C    basis set group =>   1
Atom  29C    basis set group =>   1
Atom  30C    basis set group =>   1
Atom  31C    basis set group =>   1
Atom  32C    basis set group =>   1
Atom  33C    basis set group =>   1
Atom  34C    basis set group =>   1
Atom  35C    basis set group =>   1
Atom  36O    basis set group =>   2
Atom  37O    basis set group =>   2
Atom  38O    basis set group =>   2
Atom  39O    basis set group =>   2
Atom  40O    basis set group =>   2
Atom  41C    basis set group =>   1
Atom  42H    basis set group =>   3
Atom  43H    basis set group =>   3
Atom  44H    basis set group =>   3
Atom  45H    basis set group =>   3
Atom  46H    basis set group =>   3
Atom  47H    basis set group =>   3
Atom  48H    basis set group =>   3
Atom  49H    basis set group =>   3
Atom  50H    basis set group =>   3
Atom  51H    basis set group =>   3
Atom  52H    basis set group =>   3
Atom  53H    basis set group =>   3
Atom  54H    basis set group =>   3
Atom  55H    basis set group =>   3
Atom  56H    basis set group =>   3
Atom  57H    basis set group =>   3
Atom  58H    basis set group =>   3
Atom  59H    basis set group =>   3
Atom  60H    basis set group =>   3
Atom  61H    basis set group =>   3
Atom  62H    basis set group =>   3
Atom  63H    basis set group =>   3
Atom  64H    basis set group =>   3
Atom  65H    basis set group =>   3
Atom  66H    basis set group =>   3
Atom  67H    basis set group =>   3
Atom  68H    basis set group =>   3
Atom  69H    basis set group =>   3
Atom  70H    basis set group =>   3
Atom  71H    basis set group =>   3
Atom  72H    basis set group =>   3
Atom  73H    basis set group =>   3
Atom  74H    basis set group =>   3
Atom  75H    basis set group =>   3
Atom  76H    basis set group =>   3
Atom  77H    basis set group =>   3
Atom  78H    basis set group =>   3
Atom  79H    basis set group =>   3
Atom  80H    basis set group =>   3
Atom  81H    basis set group =>   3
----------------------------------
AUXILIARY/JK BASIS SET INFORMATION
----------------------------------
There are 3 groups of distinct atoms

 Group   1 Type C   : 15s13p12d5f5g contracted to 15s13p12d5f5g pattern {111111111111111/1111111111111/111111111111/11111/11111}
 Group   2 Type O   : 15s13p12d5f5g contracted to 15s13p12d5f5g pattern {111111111111111/1111111111111/111111111111/11111/11111}
 Group   3 Type H   : 12s4p3d2f contracted to 12s4p3d2f pattern {111111111111/1111/111/11}

Atom   0C    basis set group =>   1
Atom   1C    basis set group =>   1
Atom   2C    basis set group =>   1
Atom   3C    basis set group =>   1
Atom   4C    basis set group =>   1
Atom   5C    basis set group =>   1
Atom   6C    basis set group =>   1
Atom   7C    basis set group =>   1
Atom   8C    basis set group =>   1
Atom   9C    basis set group =>   1
Atom  10C    basis set group =>   1
Atom  11C    basis set group =>   1
Atom  12C    basis set group =>   1
Atom  13C    basis set group =>   1
Atom  14C    basis set group =>   1
Atom  15C    basis set group =>   1
Atom  16C    basis set group =>   1
Atom  17C    basis set group =>   1
Atom  18O    basis set group =>   2
Atom  19O    basis set group =>   2
Atom  20O    basis set group =>   2
Atom  21O    basis set group =>   2
Atom  22O    basis set group =>   2
Atom  23C    basis set group =>   1
Atom  24C    basis set group =>   1
Atom  25C    basis set group =>   1
Atom  26C    basis set group =>   1
Atom  27O    basis set group =>   2
Atom  28C    basis set group =>   1
Atom  29C    basis set group =>   1
Atom  30C    basis set group =>   1
Atom  31C    basis set group =>   1
Atom  32C    basis set group =>   1
Atom  33C    basis set group =>   1
Atom  34C    basis set group =>   1
Atom  35C    basis set group =>   1
Atom  36O    basis set group =>   2
Atom  37O    basis set group =>   2
Atom  38O    basis set group =>   2
Atom  39O    basis set group =>   2
Atom  40O    basis set group =>   2
Atom  41C    basis set group =>   1
Atom  42H    basis set group =>   3
Atom  43H    basis set group =>   3
Atom  44H    basis set group =>   3
Atom  45H    basis set group =>   3
Atom  46H    basis set group =>   3
Atom  47H    basis set group =>   3
Atom  48H    basis set group =>   3
Atom  49H    basis set group =>   3
Atom  50H    basis set group =>   3
Atom  51H    basis set group =>   3
Atom  52H    basis set group =>   3
Atom  53H    basis set group =>   3
Atom  54H    basis set group =>   3
Atom  55H    basis set group =>   3
Atom  56H    basis set group =>   3
Atom  57H    basis set group =>   3
Atom  58H    basis set group =>   3
Atom  59H    basis set group =>   3
Atom  60H    basis set group =>   3
Atom  61H    basis set group =>   3
Atom  62H    basis set group =>   3
Atom  63H    basis set group =>   3
Atom  64H    basis set group =>   3
Atom  65H    basis set group =>   3
Atom  66H    basis set group =>   3
Atom  67H    basis set group =>   3
Atom  68H    basis set group =>   3
Atom  69H    basis set group =>   3
Atom  70H    basis set group =>   3
Atom  71H    basis set group =>   3
Atom  72H    basis set group =>   3
Atom  73H    basis set group =>   3
Atom  74H    basis set group =>   3
Atom  75H    basis set group =>   3
Atom  76H    basis set group =>   3
Atom  77H    basis set group =>   3
Atom  78H    basis set group =>   3
Atom  79H    basis set group =>   3
Atom  80H    basis set group =>   3
Atom  81H    basis set group =>   3
---------------------------------
AUXILIARY/X BASIS SET INFORMATION
---------------------------------
There are 3 groups of distinct atoms

 Group   1 Type C   : 15s13p12d5f5g contracted to 15s13p12d5f5g pattern {111111111111111/1111111111111/111111111111/11111/11111}
 Group   2 Type O   : 15s13p12d5f5g contracted to 15s13p12d5f5g pattern {111111111111111/1111111111111/111111111111/11111/11111}
 Group   3 Type H   : 12s4p3d2f contracted to 12s4p3d2f pattern {111111111111/1111/111/11}

Atom   0C    basis set group =>   1
Atom   1C    basis set group =>   1
Atom   2C    basis set group =>   1
Atom   3C    basis set group =>   1
Atom   4C    basis set group =>   1
Atom   5C    basis set group =>   1
Atom   6C    basis set group =>   1
Atom   7C    basis set group =>   1
Atom   8C    basis set group =>   1
Atom   9C    basis set group =>   1
Atom  10C    basis set group =>   1
Atom  11C    basis set group =>   1
Atom  12C    basis set group =>   1
Atom  13C    basis set group =>   1
Atom  14C    basis set group =>   1
Atom  15C    basis set group =>   1
Atom  16C    basis set group =>   1
Atom  17C    basis set group =>   1
Atom  18O    basis set group =>   2
Atom  19O    basis set group =>   2
Atom  20O    basis set group =>   2
Atom  21O    basis set group =>   2
Atom  22O    basis set group =>   2
Atom  23C    basis set group =>   1
Atom  24C    basis set group =>   1
Atom  25C    basis set group =>   1
Atom  26C    basis set group =>   1
Atom  27O    basis set group =>   2
Atom  28C    basis set group =>   1
Atom  29C    basis set group =>   1
Atom  30C    basis set group =>   1
Atom  31C    basis set group =>   1
Atom  32C    basis set group =>   1
Atom  33C    basis set group =>   1
Atom  34C    basis set group =>   1
Atom  35C    basis set group =>   1
Atom  36O    basis set group =>   2
Atom  37O    basis set group =>   2
Atom  38O    basis set group =>   2
Atom  39O    basis set group =>   2
Atom  40O    basis set group =>   2
Atom  41C    basis set group =>   1
Atom  42H    basis set group =>   3
Atom  43H    basis set group =>   3
Atom  44H    basis set group =>   3
Atom  45H    basis set group =>   3
Atom  46H    basis set group =>   3
Atom  47H    basis set group =>   3
Atom  48H    basis set group =>   3
Atom  49H    basis set group =>   3
Atom  50H    basis set group =>   3
Atom  51H    basis set group =>   3
Atom  52H    basis set group =>   3
Atom  53H    basis set group =>   3
Atom  54H    basis set group =>   3
Atom  55H    basis set group =>   3
Atom  56H    basis set group =>   3
Atom  57H    basis set group =>   3
Atom  58H    basis set group =>   3
Atom  59H    basis set group =>   3
Atom  60H    basis set group =>   3
Atom  61H    basis set group =>   3
Atom  62H    basis set group =>   3
Atom  63H    basis set group =>   3
Atom  64H    basis set group =>   3
Atom  65H    basis set group =>   3
Atom  66H    basis set group =>   3
Atom  67H    basis set group =>   3
Atom  68H    basis set group =>   3
Atom  69H    basis set group =>   3
Atom  70H    basis set group =>   3
Atom  71H    basis set group =>   3
Atom  72H    basis set group =>   3
Atom  73H    basis set group =>   3
Atom  74H    basis set group =>   3
Atom  75H    basis set group =>   3
Atom  76H    basis set group =>   3
Atom  77H    basis set group =>   3
Atom  78H    basis set group =>   3
Atom  79H    basis set group =>   3
Atom  80H    basis set group =>   3
Atom  81H    basis set group =>   3
--------------------------------------------------------------------------
WARNING: There was an error initializing an OpenFabrics device.

  Local host:   c01b01n06
  Local device: mlx5_0
--------------------------------------------------------------------------
--------------------------------------------------------------------------
WARNING: There is at least one non-excluded one OpenFabrics device found,
but there are no active ports detected (or Open MPI was unable to use
them).  This is most certainly not what you wanted.  Check your
cables, subnet manager configuration, etc.  The openib BTL will be
ignored for this job.

  Local host: c01b01n06
--------------------------------------------------------------------------
[c01b01n06:53549] 53 more processes have sent help message help-mpi-btl-openib.txt / error in device init
[c01b01n06:53549] Set MCA parameter "orte_base_help_aggregate" to 0 to see all help / error messages
[c01b01n06:53549] 5 more processes have sent help message help-mpi-btl-openib.txt / no active ports found


           ************************************************************
           *        Program running with 60 parallel MPI-processes    *
           *              working on a common directory               *
           ************************************************************
------------------------------------------------------------------------------
                             ORCA STARTUP CALCULATIONS
                           -- RI-GTO INTEGRALS CHOSEN --
------------------------------------------------------------------------------
------------------------------------------------------------------------------
                   ___                                                        
                  /   \      - P O W E R E D   B Y -                         
                 /     \                                                     
                 |  |  |   _    _      __       _____    __    __             
                 |  |  |  | |  | |    /  \     |  _  \  |  |  /  |          
                  \  \/   | |  | |   /    \    | | | |  |  | /  /          
                 / \  \   | |__| |  /  /\  \   | |_| |  |  |/  /          
                |  |  |   |  __  | /  /__\  \  |    /   |      \           
                |  |  |   | |  | | |   __   |  |    \   |  |\   \          
                \     /   | |  | | |  |  |  |  | |\  \  |  | \   \       
                 \___/    |_|  |_| |__|  |__|  |_| \__\ |__|  \__/        
                                                                              
                      - O R C A' S   B I G   F R I E N D -                    
                                      &                                       
                       - I N T E G R A L  F E E D E R -                       
                                                                              
 v1 FN, 2020, v2 2021, v3 2022-2024                                           
------------------------------------------------------------------------------


----------------------
SHARK INTEGRAL PACKAGE
----------------------

Number of atoms                             ...     82
Number of basis functions                   ...   2072
Number of shells                            ...    744
Maximum angular momentum                    ...      3
Integral batch strategy                     ... SHARK/LIBINT Hybrid
RI-J (if used) integral strategy            ... SPLIT-RIJ (Revised 2003 algorithm where possible)
Printlevel                                  ...      1
Contraction scheme used                     ... SEGMENTED contraction
Prescreening option                         ... SCHWARTZ
   Thresh                                   ... 1.000e-10
   Tcut                                     ... 1.000e-11
   Tpresel                                  ... 1.000e-11 
Coulomb Range Separation                    ... NOT USED
Exchange Range Separation                   ... NOT USED
Multipole approximations                    ... NOT USED
Finite Nucleus Model                        ... NOT USED
CABS basis                                  ... NOT available
Auxiliary Coulomb fitting basis             ... AVAILABLE
   # of basis functions in Aux-J            ...  10268
   # of shells in Aux-J                     ...   2940
   Maximum angular momentum in Aux-J        ...      4
Auxiliary J/K fitting basis                 ... AVAILABLE
   # of basis functions in Aux-JK           ...  10268
   # of shells in Aux-JK                    ...   2940
   Maximum angular momentum in Aux-JK       ...      4
Auxiliary Correlation fitting basis         ... AVAILABLE
   # of basis functions in Aux-C            ...  10268
   # of shells in Aux-C                     ...   2940
   Maximum angular momentum in Aux-C        ...      4
Auxiliary 'external' fitting basis          ... NOT available

Checking pre-screening integrals            ... done (  0.0 sec) Dimension = 744
   => SHARK Basis and OBASIS are compatible. Storing Pre-screening
Shell pair information
Shell pair cut-off parameter TPreSel        ...   1.0e-11
Total number of shell pairs                 ...    277140
Shell pairs after pre-screening             ...    154864
Total number of primitive shell pairs       ...    823733
Primitive shell pairs kept                  ...    283848
          la=0 lb=0:  29287 shell pairs
          la=1 lb=0:  51329 shell pairs
          la=1 lb=1:  21008 shell pairs
          la=2 lb=0:  20330 shell pairs
          la=2 lb=1:  15502 shell pairs
          la=2 lb=2:   2774 shell pairs
          la=3 lb=0:   7034 shell pairs
          la=3 lb=1:   5333 shell pairs
          la=3 lb=2:   1902 shell pairs
          la=3 lb=3:    365 shell pairs

Checking whether 4 symmetric matrices of dimension 2072 fit in memory
:Max Core in MB      =   5000.00
 MB in use           =    191.09
 MB left             =   4808.91
 MB needed           =     65.54
 Data fit in memory  = YES
Calculating RI/J V-Matrix + Cholesky decomp.... done ( 10.0 sec)
Calculating RI/JK V-Matrix + Cholesky decomp.... done (  3.9 sec)
Calculating RI/C V-Matrix + Cholesky decomp.... done ( 12.7 sec)
Calculating Nuclear repulsion               ... done (  0.0 sec) ENN=   5845.436805123503 Eh

Diagonalization of the overlap matrix:
Smallest eigenvalue                        ... 6.944e-06
Time for diagonalization                   ...    2.098 sec
Threshold for overlap eigenvalues          ... 1.000e-07
Number of eigenvalues below threshold      ... 0
Time for construction of square roots      ...    0.487 sec
Total time needed                          ...    2.627 sec

-------------------
DFT GRID GENERATION
-------------------

General Integration Accuracy     IntAcc      ... 4.388
Radial Grid Type                 RadialGrid  ... OptM3 with GC (2021)
Angular Grid (max. ang.)         AngularGrid ... 4 (Lebedev-302)
Angular grid pruning method      GridPruning ... 4 (adaptive)
Weight generation scheme         WeightScheme... mBecke (2022)
Basis function cutoff            BFCut       ... 1.0000e-10
Integration weight cutoff        WCut        ... 1.0000e-14
Partially contracted basis set               ... off
Rotationally invariant grid construction     ... off
Angular grids for H and He will be reduced by one unit
Diffuse basis detected: some atoms will have their outermost
                        angular grid increased by 1.

Total number of grid points                  ...   376232
Total number of batches                      ...     5918
Average number of points per batch           ...       63
Average number of grid points per atom       ...     4588
Grids setup in   3.2 sec
Initializing property integral containers    ... done (  0.1 sec)

SHARK setup successfully completed in  51.2 seconds

Maximum memory used throughout the entire STARTUP-calculation: 263.2 MB
--------------------------------------------------------------------------
WARNING: There was an error initializing an OpenFabrics device.

  Local host:   c01b01n06
  Local device: mlx5_0
--------------------------------------------------------------------------
--------------------------------------------------------------------------
WARNING: There is at least one non-excluded one OpenFabrics device found,
but there are no active ports detected (or Open MPI was unable to use
them).  This is most certainly not what you wanted.  Check your
cables, subnet manager configuration, etc.  The openib BTL will be
ignored for this job.

  Local host: c01b01n06
--------------------------------------------------------------------------


           ************************************************************
           *        Program running with 60 parallel MPI-processes    *
           *              working on a common directory               *
           ************************************************************
-------------------------------------------------------------------------------
                                 ORCA GUESS
                   Start orbitals & Density for SCF / CASSCF
-------------------------------------------------------------------------------

------------
SCF SETTINGS
------------
Hamiltonian:
 Density Functional     Method          .... DFT(GTOs)
 Exchange Functional    Exchange        .... TPSS
 Correlation Functional Correlation     .... TPSS
 LDA part of GGA corr.  LDAOpt          .... PW91-LDA
 Gradients option       PostSCFGGA      .... off
   NL short-range parameter             ....  5.000000
 RI-approximation to the Coulomb term is turned on
   Number of AuxJ basis functions       .... 10268


General Settings:
 Integral files         IntName         .... nmr-conf-9
 Hartree-Fock type      HFTyp           .... RHF
 Total Charge           Charge          ....    0
 Multiplicity           Mult            ....    1
 Number of Electrons    NEL             ....  314
 Basis Dimension        Dim             .... 2072
 Nuclear Repulsion      ENuc            ....   5845.4368051235 Eh

Convergence Acceleration:
 AO-DIIS                CNVDIIS         .... on
   Start iteration      DIISMaxIt       ....    12
   Startup error        DIISStart       ....  0.200000
   # of expansion vecs  DIISMaxEq       ....     5
   Bias factor          DIISBfac        ....   1.050
   Max. coefficient     DIISMaxC        ....  10.000
 MO-DIIS                CNVKDIIS        .... off
 Trust-Rad. Augm. Hess. CNVTRAH         .... auto
   Auto Start mean grad. ratio tolernc. ....  1.125000
   Auto Start start iteration           ....    50
   Auto Start num. interpolation iter.  ....    10
   Max. Number of Micro iterations      ....    24
   Max. Number of Macro iterations      .... Maxiter - #DIIS iter
   Number of Davidson start vectors     ....     2
   Converg. threshold    (grad. norm)   ....   5.000e-05
   Grad. Scal. Fac. for Micro threshold ....   0.100
   Minimum threshold for Micro iter.    ....   1.000e-02
   NR start threshold (gradient norm)   ....   1.000e-04
   Initial trust radius                 ....   0.400
   Minimum AH scaling param. (alpha)    ....   1.000
   Maximum AH scaling param. (alpha)    .... 1000.000
   Quad. conv. algorithm                .... NR
   White noise on init. David. guess    .... on
   Maximum white noise                  ....   0.010
   Pseudo random numbers                .... off
   Inactive MOs                         .... canonical
   Orbital update algorithm             .... Taylor
   Preconditioner                       .... Diag
   Full preconditioner red. dimension   ....   250
 SOSCF                 CNVSOSCF           .... on
   Start iteration     SOSCFMaxIt         ....   150
   Startup grad/error  SOSCFStart         ....  0.003300
   Hessian update      SOSCFHessUp        .... L-BFGS
   Autom. constraints  SOSCFAutoConstrain .... off
 Level Shifting         CNVShift        .... on
   Level shift para.    LevelShift      ....    0.2500
   Turn off err/grad.   ShiftErr        ....    0.0010
 Zerner damping         CNVZerner       .... off
 Static damping         CNVDamp         .... on
   Fraction old density DampFac         ....    0.7000
   Max. Damping (<1)    DampMax         ....    0.9800
   Min. Damping (>=0)   DampMin         ....    0.0000
   Turn off err/grad.   DampErr         ....    0.1000

SCF Procedure:
 Maximum # iterations   MaxIter         ....   125
 SCF integral mode      SCFMode         .... Direct
   Integral package                     .... SHARK and LIBINT hybrid scheme
 Reset frequency        DirectResetFreq ....    20
 Integral Threshold     Thresh          ....  1.000e-10 Eh
 Primitive CutOff       TCut            ....  1.000e-11 Eh

Convergence Tolerance:
 Convergence Check Mode ConvCheckMode   .... Total+1el-Energy
 Convergence forced     ConvForced      .... 0
 Energy Change          TolE            ....  1.000e-06 Eh
 1-El. energy change                    ....  1.000e-03 Eh
 Orbital Gradient       TolG            ....  5.000e-05
 Orbital Rotation angle TolX            ....  5.000e-05
 DIIS Error             TolErr          ....  1.000e-06

------------------------------
INITIAL GUESS: MODEL POTENTIAL
------------------------------
Loading Hartree-Fock densities                     ... done
Calculating cut-offs                               ... done
Initializing the effective Hamiltonian             ... done
Setting up the integral package (SHARK)            ... done
Starting the Coulomb interaction                   ... done (   1.1 sec)
Making the grid                                    ... done (   0.6 sec)
Mapping shells                                     ... done
Starting the XC term evaluation                    ... [c01b01n06:53954] 51 more processes have sent help message help-mpi-btl-openib.txt / error in device init
[c01b01n06:53954] Set MCA parameter "orte_base_help_aggregate" to 0 to see all help / error messages
[c01b01n06:53954] 7 more processes have sent help message help-mpi-btl-openib.txt / no active ports found
done (   1.5 sec)
  promolecular density results
     # of electrons  =    313.969728804
     EX              =   -260.376147920
     EC              =    -10.673031814
     EX+EC           =   -271.049179734
Transforming the Hamiltonian                       ... done (   0.3 sec)
Diagonalizing the Hamiltonian                      ... done (   0.5 sec)
Back transforming the eigenvectors                 ... done (   0.2 sec)
Now organizing SCF variables                       ... done
                      ------------------
                      INITIAL GUESS DONE (   5.3 sec)
                      ------------------
             **** ENERGY FILE WAS UPDATED (nmr-conf-9.en.tmp) ****
Finished Guess after  13.4 sec
Maximum memory used throughout the entire GUESS-calculation: 296.7 MB
--------------------------------------------------------------------------
WARNING: There was an error initializing an OpenFabrics device.

  Local host:   c01b01n06
  Local device: mlx5_0
--------------------------------------------------------------------------
--------------------------------------------------------------------------
WARNING: There is at least one non-excluded one OpenFabrics device found,
but there are no active ports detected (or Open MPI was unable to use
them).  This is most certainly not what you wanted.  Check your
cables, subnet manager configuration, etc.  The openib BTL will be
ignored for this job.

  Local host: c01b01n06
--------------------------------------------------------------------------


           ************************************************************
           *        Program running with 60 parallel MPI-processes    *
           *              working on a common directory               *
           ************************************************************

-------------------------------------------------------------------------------------------
                                      ORCA LEAN-SCF
                              memory conserving SCF solver
-------------------------------------------------------------------------------------------

--------------------
CPCM SOLVATION MODEL
--------------------
CPCM parameters:
  Epsilon                                         ...      33.4280
  Refrac                                          ...       1.3288
  Rsolv                                           ...       1.3000
  Surface type                                    ... GAUSSIAN VDW
  Discretization scheme                           ... Constant charge density
    Threshold for H atoms                         ...       5.0000 (charges/Ang^2)
    Threshold for non-H atoms                     ...       5.0000 (charges/Ang^2)
  Epsilon function type                           ...         CPCM
Solvent:                                          ... METHANOL
Radii:
  Scheme                                          ... Element-dependent radii
  Radius for C  used is    3.8550 Bohr (=   2.0400 Ang.)
  Radius for O  used is    3.4469 Bohr (=   1.8240 Ang.)
  Radius for H  used is    2.4944 Bohr (=   1.3200 Ang.)
Calculating surface                               ...        [c01b01n06:54401] 54 more processes have sent help message help-mpi-btl-openib.txt / error in device init
[c01b01n06:54401] Set MCA parameter "orte_base_help_aggregate" to 0 to see all help / error messages
[c01b01n06:54401] 4 more processes have sent help message help-mpi-btl-openib.txt / no active ports found
done! (  0.2s)
Cavity surface points                             ...         5954
Cavity Volume                                     ...    4453.2617
Cavity Surface-area                               ...    1935.1635
Calculating surface distance matrix               ...        done! (  0.2s)
Performing Cholesky decomposition & store         ...        done! (  0.6s)
Overall time for CPCM initialization              ...                 1.0s

----------------------------------------D-I-I-S--------------------------------------------
Iteration    Energy (Eh)           Delta-E    RMSDP     MaxDP     DIISErr   Damp  Time(sec)
-------------------------------------------------------------------------------------------
               ***  Starting incremental Fock matrix formation  ***
    1    -2032.9818552589431420     0.00e+00  8.07e-03  2.67e-01  2.36e-01  0.700  17.2
    2    -2033.3952107006916776    -4.13e-01  6.51e-03  2.10e-01  8.45e-02  0.700   9.8
                               ***Turning on AO-DIIS***
    3    -2033.5493155490557911    -1.54e-01  2.84e-03  7.24e-02  2.46e-02  0.700  10.7
    4    -2033.6423057621595945    -9.30e-02  4.86e-03  8.03e-02  1.19e-02  0.000   8.2
    5    -2033.8484233513145227    -2.06e-01  1.27e-03  3.62e-02  4.83e-03  0.000   7.7
                              *** Initializing SOSCF ***
---------------------------------------S-O-S-C-F--------------------------------------
Iteration    Energy (Eh)           Delta-E    RMSDP     MaxDP     MaxGrad    Time(sec)
--------------------------------------------------------------------------------------
    6    -2033.8498191302724081    -1.40e-03  4.19e-04  1.22e-02  1.49e-03     8.5
               *** Restarting incremental Fock matrix formation ***
    7    -2033.8499306946978322    -1.12e-04  3.25e-04  9.48e-03  1.29e-04     7.4
    8    -2033.8499074755982292     2.32e-05  8.35e-05  1.99e-03  5.78e-04     6.5
    9    -2033.8499464822007212    -3.90e-05  7.35e-05  1.81e-03  1.15e-04     6.6
   10    -2033.8499466071061761    -1.25e-07  2.33e-05  8.75e-04  1.00e-04     6.7
                 **** Energy Check signals convergence ****

               *****************************************************
               *                     SUCCESS                       *
               *           SCF CONVERGED AFTER  10 CYCLES          *
               *****************************************************

             **** ENERGY FILE WAS UPDATED (nmr-conf-9.en.tmp) ****

----------------
TOTAL SCF ENERGY
----------------

Total Energy       :      -2033.84994659643144 Eh          -55343.87067 eV

Components:
Nuclear Repulsion  :       5845.43680512350329 Eh          159062.42204 eV
Electronic Energy  :      -7879.24970697000936 Eh         -214405.28468 eV
One Electron Energy:     -14417.94914512260766 Eh         -392332.34203 eV
Two Electron Energy:       6538.69943815259830 Eh          177927.05735 eV
CPCM Dielectric    :         -0.03704474992531 Eh              -1.00804 eV

Virial components:
Potential Energy   :      -4061.57442644474668 Eh         -110521.05893 eV
Kinetic Energy     :       2027.72447984831501 Eh           55177.18825 eV
Virial Ratio       :          2.00302085752231

DFT components:
N(Alpha)           :      157.000091554200 electrons
N(Beta)            :      157.000091554200 electrons
N(Total)           :      314.000183108400 electrons
E(X)               :     -268.191944807100 Eh       
E(C)               :      -10.625891272293 Eh       
E(XC)              :     -278.817836079393 Eh       

CPCM Solvation Model Properties:
Surface-charge          :         -0.04366764571896
Corrected charge        :          0.00000000000000
Outlying charge corr.   :          0.00008358043227 Eh               0.00227 eV
Free-energy (cav+disp)  :  This term is not implemented in the current solvation scheme

---------------
SCF CONVERGENCE
---------------

  Last Energy change         ...    1.2491e-07  Tolerance :   1.0000e-06
  Last MAX-Density change    ...    8.7466e-04  Tolerance :   1.0000e-05
  Last RMS-Density change    ...    2.3273e-05  Tolerance :   1.0000e-06
  Last DIIS Error            ...    1.4945e-03  Tolerance :   1.0000e-06
  Last Orbital Gradient      ...    1.0048e-04  Tolerance :   5.0000e-05
  Last Orbital Rotation      ...    2.0454e-04  Tolerance :   5.0000e-05


----------------
ORBITAL ENERGIES
----------------

  NO   OCC          E(Eh)            E(eV) 
   0   2.0000     -18.920298      -514.8475 
   1   2.0000     -18.918110      -514.7879 
   2   2.0000     -18.917589      -514.7738 
   3   2.0000     -18.916282      -514.7382 
   4   2.0000     -18.911359      -514.6042 
   5   2.0000     -18.910944      -514.5930 
   6   2.0000     -18.910128      -514.5707 
   7   2.0000     -18.882945      -513.8311 
   8   2.0000     -18.882883      -513.8294 
   9   2.0000     -18.880378      -513.7612 
  10   2.0000     -18.870030      -513.4796 
  11   2.0000     -10.045826      -273.3608 
  12   2.0000     -10.045667      -273.3565 
  13   2.0000     -10.044371      -273.3212 
  14   2.0000     -10.043684      -273.3025 
  15   2.0000     -10.043330      -273.2929 
  16   2.0000     -10.042579      -273.2725 
  17   2.0000     -10.042276      -273.2642 
  18   2.0000     -10.041552      -273.2445 
  19   2.0000     -10.041174      -273.2342 
  20   2.0000     -10.036246      -273.1001 
  21   2.0000     -10.035078      -273.0684 
  22   2.0000     -10.031347      -272.9668 
  23   2.0000     -10.031299      -272.9655 
  24   2.0000     -10.030436      -272.9420 
  25   2.0000     -10.024067      -272.7687 
  26   2.0000     -10.022630      -272.7296 
  27   2.0000      -9.985922      -271.7308 
  28   2.0000      -9.985477      -271.7186 
  29   2.0000      -9.985280      -271.7133 
  30   2.0000      -9.984671      -271.6967 
  31   2.0000      -9.983575      -271.6669 
  32   2.0000      -9.983394      -271.6620 
  33   2.0000      -9.982871      -271.6477 
  34   2.0000      -9.982435      -271.6359 
  35   2.0000      -9.981396      -271.6076 
  36   2.0000      -9.980650      -271.5873 
  37   2.0000      -9.978883      -271.5392 
  38   2.0000      -9.978572      -271.5307 
  39   2.0000      -9.977179      -271.4928 
  40   2.0000      -9.975141      -271.4374 
  41   2.0000      -9.972869      -271.3756 
  42   2.0000      -1.015818       -27.6418 
  43   2.0000      -1.015076       -27.6216 
  44   2.0000      -1.013280       -27.5728 
  45   2.0000      -1.000701       -27.2305 
  46   2.0000      -0.990188       -26.9444 
  47   2.0000      -0.989405       -26.9231 
  48   2.0000      -0.987191       -26.8628 
  49   2.0000      -0.966137       -26.2899 
  50   2.0000      -0.962591       -26.1934 
  51   2.0000      -0.960486       -26.1362 
  52   2.0000      -0.948947       -25.8222 
  53   2.0000      -0.800751       -21.7895 
  54   2.0000      -0.798696       -21.7336 
  55   2.0000      -0.796424       -21.6718 
  56   2.0000      -0.758930       -20.6515 
  57   2.0000      -0.733612       -19.9626 
  58   2.0000      -0.718003       -19.5379 
  59   2.0000      -0.703738       -19.1497 
  60   2.0000      -0.701717       -19.0947 
  61   2.0000      -0.700075       -19.0500 
  62   2.0000      -0.698715       -19.0130 
  63   2.0000      -0.686440       -18.6790 
  64   2.0000      -0.669744       -18.2247 
  65   2.0000      -0.650421       -17.6988 
  66   2.0000      -0.647561       -17.6210 
  67   2.0000      -0.646352       -17.5881 
  68   2.0000      -0.638113       -17.3639 
  69   2.0000      -0.621498       -16.9118 
  70   2.0000      -0.618661       -16.8346 
  71   2.0000      -0.616871       -16.7859 
  72   2.0000      -0.583893       -15.8885 
  73   2.0000      -0.567444       -15.4409 
  74   2.0000      -0.561340       -15.2748 
  75   2.0000      -0.560574       -15.2540 
  76   2.0000      -0.552173       -15.0254 
  77   2.0000      -0.545160       -14.8345 
  78   2.0000      -0.540394       -14.7049 
  79   2.0000      -0.533123       -14.5070 
  80   2.0000      -0.519162       -14.1271 
  81   2.0000      -0.511876       -13.9289 
  82   2.0000      -0.508821       -13.8457 
  83   2.0000      -0.499467       -13.5912 
  84   2.0000      -0.488146       -13.2831 
  85   2.0000      -0.478491       -13.0204 
  86   2.0000      -0.476802       -12.9744 
  87   2.0000      -0.469553       -12.7772 
  88   2.0000      -0.463104       -12.6017 
  89   2.0000      -0.457170       -12.4402 
  90   2.0000      -0.452601       -12.3159 
  91   2.0000      -0.449231       -12.2242 
  92   2.0000      -0.447456       -12.1759 
  93   2.0000      -0.444062       -12.0835 
  94   2.0000      -0.440364       -11.9829 
  95   2.0000      -0.437163       -11.8958 
  96   2.0000      -0.431395       -11.7389 
  97   2.0000      -0.429887       -11.6978 
  98   2.0000      -0.425873       -11.5886 
  99   2.0000      -0.424424       -11.5492 
 100   2.0000      -0.416896       -11.3443 
 101   2.0000      -0.414218       -11.2714 
 102   2.0000      -0.409068       -11.1313 
 103   2.0000      -0.404482       -11.0065 
 104   2.0000      -0.403322       -10.9750 
 105   2.0000      -0.402553       -10.9540 
 106   2.0000      -0.399380       -10.8677 
 107   2.0000      -0.393762       -10.7148 
 108   2.0000      -0.389771       -10.6062 
 109   2.0000      -0.387402       -10.5418 
 110   2.0000      -0.386949       -10.5294 
 111   2.0000      -0.383213       -10.4277 
 112   2.0000      -0.381758       -10.3882 
 113   2.0000      -0.378292       -10.2939 
 114   2.0000      -0.375341       -10.2136 
 115   2.0000      -0.372821       -10.1450 
 116   2.0000      -0.366805        -9.9813 
 117   2.0000      -0.366205        -9.9650 
[...]
 
 sDSO           238.994          126.001           41.610  iso=     135.535
 sPSO          -215.579         -100.446           -7.057  iso=    -107.694
        ---------------  ---------------  ---------------
 Total           23.415           25.555           34.553  iso=      27.841

 Orientation: 
  X          -0.0989412    0.3987249   -0.9117177
  Y          -0.7272315    0.5964093    0.3397503
  Z           0.6792238    0.6966451    0.2309559

 --------------
 Nucleus  73H :
 --------------

Diamagnetic contribution to the shielding tensor (ppm) : 
           132.735         66.924       -56.445
            75.931        104.021       -52.864
           -61.707        -34.694       227.516

Paramagnetic contribution to the shielding tensor (ppm): 
          -104.540        -67.826        56.916
           -76.026        -73.076        52.113
            63.640         32.848      -203.562

Total shielding tensor (ppm): 
            28.196         -0.902         0.470
            -0.095         30.944        -0.751
             1.933         -1.846        23.954


 Diagonalized sT*s matrix:
 
 sDSO           228.616          145.745           89.910  iso=     154.757
 sPSO          -205.150         -117.459          -58.568  iso=    -127.059
        ---------------  ---------------  ---------------
 Total           23.466           28.286           31.342  iso=      27.698

 Orientation: 
  X          -0.2143631   -0.9498982    0.2274682
  Y           0.1430913   -0.2609093   -0.9546995
  Z           0.9662160   -0.1721037    0.1918515

 --------------
 Nucleus  74H :
 --------------

Diamagnetic contribution to the shielding tensor (ppm) : 
            54.029         96.875       -18.122
            10.634        114.901       -23.736
           -52.026          9.011       166.069

Paramagnetic contribution to the shielding tensor (ppm): 
           -24.294        -98.560        22.960
           -14.060        -89.231        22.267
            56.122         -8.657      -139.120

Total shielding tensor (ppm): 
            29.735         -1.685         4.839
            -3.426         25.670        -1.469
             4.096          0.354        26.949


 Diagonalized sT*s matrix:
 
 sDSO           175.864          117.708           41.427  iso=     111.666
 sPSO          -152.768          -92.183           -7.692  iso=     -84.215
        ---------------  ---------------  ---------------
 Total           23.095           25.524           33.735  iso=      27.452

 Orientation: 
  X          -0.6077709   -0.0838544    0.7896727
  Y          -0.4639762    0.8445190   -0.2674204
  Z           0.6444692    0.5289197    0.5521806

 --------------
 Nucleus  75H :
 --------------

Diamagnetic contribution to the shielding tensor (ppm) : 
           146.630        -73.772         1.431
           121.915        -48.006        -7.487
           -78.158         89.128        30.921

Paramagnetic contribution to the shielding tensor (ppm): 
          -124.304         79.089         4.286
          -117.708         73.733        10.787
            82.866        -85.089         6.445

Total shielding tensor (ppm): 
            22.326          5.317         5.717
             4.207         25.727         3.300
             4.709          4.039        37.366


 Diagonalized sT*s matrix:
 
 sDSO            90.312           -2.329           41.562  iso=      43.182
 sPSO           -71.641           28.397           -0.882  iso=     -14.709
        ---------------  ---------------  ---------------
 Total           18.671           26.068           40.680  iso=      28.473

 Orientation: 
  X           0.8593115    0.3952257    0.3246234
  Y          -0.4948399    0.8029194    0.3323461
  Z          -0.1292947   -0.4462255    0.8855313

 --------------
 Nucleus  76H :
 --------------

Diamagnetic contribution to the shielding tensor (ppm) : 
            68.835         55.207       -43.591
            19.978         94.531       -28.932
            -3.828        -44.432       242.763

Paramagnetic contribution to the shielding tensor (ppm): 
           -45.790        -51.294        50.013
           -19.153        -68.573        38.937
             8.895         54.476      -207.368

Total shielding tensor (ppm): 
            23.045          3.913         6.423
             0.825         25.958        10.005
             5.066         10.044        35.395


 Diagonalized sT*s matrix:
 
 sDSO           201.887           43.029          161.214  iso=     135.377
 sPSO          -182.792          -21.298         -117.640  iso=    -107.244
        ---------------  ---------------  ---------------
 Total           19.094           21.731           43.573  iso=      28.133

 Orientation: 
  X           0.4008937    0.8767280    0.2657673
  Y           0.7133671   -0.4807581    0.5098813
  Z          -0.5747970    0.0148185    0.8181618

 --------------
 Nucleus  77H :
 --------------

Diamagnetic contribution to the shielding tensor (ppm) : 
            82.540         93.959       -85.522
            47.489        132.217       -72.283
            50.052        -40.747       186.724

Paramagnetic contribution to the shielding tensor (ppm): 
           -63.539        -97.695        83.027
           -51.541       -107.996        69.484
           -52.054         37.470      -144.365

Total shielding tensor (ppm): 
            19.001         -3.736        -2.495
            -4.052         24.221        -2.799
            -2.003         -3.277        42.360


 Diagonalized sT*s matrix:
 
 sDSO           144.538           51.601          205.342  iso=     133.827
 sPSO          -128.070          -25.452         -162.378  iso=    -105.300
        ---------------  ---------------  ---------------
 Total           16.469           26.149           42.965  iso=      28.527

 Orientation: 
  X           0.8629545    0.5010976   -0.0648906
  Y           0.4881337   -0.8599377   -0.1491063
  Z           0.1305186   -0.0969967    0.9866897

 --------------
 Nucleus  78H :
 --------------

Diamagnetic contribution to the shielding tensor (ppm) : 
            93.929         16.153       -70.511
            41.061         67.110       -63.532
           -33.180        -20.529       155.426

Paramagnetic contribution to the shielding tensor (ppm): 
           -68.354         -6.134        63.254
           -35.605        -35.079        65.906
            28.219         22.173      -133.332

Total shielding tensor (ppm): 
            25.575         10.019        -7.256
             5.456         32.031         2.374
            -4.961          1.644        22.094


 Diagonalized sT*s matrix:
 
 sDSO            75.935          119.207          121.323  iso=     105.488
 sPSO           -60.951          -91.864          -83.950  iso=     -78.922
        ---------------  ---------------  ---------------
 Total           14.984           27.342           37.373  iso=      26.567

 Orientation: 
  X           0.6816201   -0.4780689   -0.5539351
  Y          -0.3475380    0.4546771   -0.8200525
  Z           0.6439032    0.7514778    0.1437699

 --------------
 Nucleus  79H :
 --------------

Diamagnetic contribution to the shielding tensor (ppm) : 
             3.285         58.267       -25.618
           -22.005         88.211       -27.399
          -179.249        165.531        38.446

Paramagnetic contribution to the shielding tensor (ppm): 
            22.862        -56.449        26.618
            22.258        -63.682        30.854
           180.557       -162.387        -4.898

Total shielding tensor (ppm): 
            26.147          1.819         1.000
             0.253         24.529         3.455
             1.307          3.144        33.548


 Diagonalized sT*s matrix:
 
 sDSO            22.727           52.823           54.393  iso=      43.314
 sPSO             0.578          -26.762          -19.535  iso=     -15.240
        ---------------  ---------------  ---------------
 Total           23.304           26.061           34.858  iso=      28.075

 Orientation: 
  X           0.2443539    0.9564661    0.1595737
  Y          -0.9309110    0.1853145    0.3147430
  Z           0.2714697   -0.2254576    0.9356672

 --------------
 Nucleus  80H :
 --------------

Diamagnetic contribution to the shielding tensor (ppm) : 
           -36.382         -1.902       -48.323
           -84.020         50.397       -40.689
          -141.251         97.492       -98.049

Paramagnetic contribution to the shielding tensor (ppm): 
            65.142          1.120        48.039
            81.050        -22.635        41.694
           140.114        -95.734       124.394

Total shielding tensor (ppm): 
            28.760         -0.782        -0.283
            -2.969         27.763         1.006
            -1.137          1.758        26.345


 Diagonalized sT*s matrix:
 
 sDSO           -53.601         -111.261           80.828  iso=     -28.011
 sPSO            79.035          138.026          -50.160  iso=      55.634
        ---------------  ---------------  ---------------
 Total           25.434           26.765           30.668  iso=      27.622

 Orientation: 
  X          -0.1670741    0.6561797   -0.7358766
  Y          -0.5982188    0.5258173    0.6046904
  Z           0.7837222    0.5412434    0.3046886

 --------------
 Nucleus  81H :
 --------------

Diamagnetic contribution to the shielding tensor (ppm) : 
           -46.571         29.625       -34.132
           -71.661         70.784       -29.160
           -72.048         78.092        10.839

Paramagnetic contribution to the shielding tensor (ppm): 
            72.700        -27.318        31.076
            75.490        -42.051        29.654
            70.701        -74.787        16.280

Total shielding tensor (ppm): 
            26.129          2.307        -3.056
             3.829         28.732         0.493
            -1.347          3.305        27.119


 Diagonalized sT*s matrix:
 
 sDSO           -39.972           54.485           20.539  iso=      11.684
 sPSO            62.321          -25.669           10.278  iso=      15.643
        ---------------  ---------------  ---------------
 Total           22.349           28.816           30.817  iso=      27.327

 Orientation: 
  X          -0.7021859   -0.5025995   -0.5043102
  Y           0.4870368    0.1776008   -0.8551334
  Z          -0.5193555    0.8460802   -0.1200756



--------------------------------
CHEMICAL SHIELDING SUMMARY (ppm)
--------------------------------


  Nucleus  Element    Isotropic     Anisotropy
  -------  -------  ------------   ------------
      0       C           30.270        106.418 
      1       C           46.384        102.460 
      2       C           27.362        117.763 
      3       C           77.060        135.051 
      4       C           43.556        189.916 
      5       C           76.977        128.316 
      6       C          137.788         32.320 
      7       C          131.989         21.508 
      8       C          129.568         17.826 
      9       C          140.866         26.489 
     10       C           44.654        186.148 
     11       C           66.403        140.954 
     12       C           31.512        116.069 
     13       C           31.948        124.182 
     14       C           65.958        147.251 
     15       C           59.072        167.992 
     16       C          112.984         67.707 
     17       C          114.783         60.154 
     23       C           91.867         33.505 
     24       C          101.706         37.259 
     25       C           45.072        172.638 
     26       C          110.844         37.796 
     28       C           70.449        158.114 
     29       C           31.936        114.774 
     30       C           33.698        118.159 
     31       C           68.954        146.299 
     32       C           64.825        176.175 
     33       C          126.900         73.109 
     34       C          124.263         74.191 
     35       C          125.709         75.328 
     41       C          124.807         76.795 
     42       H           25.934          7.994 
     43       H           25.864          9.617 
     44       H           29.470          5.105 
     45       H           29.706          6.050 
     46       H           30.141          7.080 
     47       H           29.291          4.863 
     48       H           28.641          8.853 
     49       H           28.354          3.657 
     50       H           24.748          8.217 
     51       H           24.606          3.165 
     52       H           24.493          7.110 
     53       H           28.087          4.536 
     54       H           27.710          8.017 
     55       H           27.306          5.587 
     56       H           27.790          8.786 
     57       H           25.227         11.936 
     58       H           26.681          3.653 
     59       H           26.394          4.511 
     60       H           27.862          7.840 
     61       H           27.486          8.461 
     62       H           28.827         18.988 
     63       H           24.833          9.878 
     64       H           25.232          5.803 
     65       H           24.873          6.628 
     66       H           28.075         10.494 
     67       H           27.532          9.994 
     68       H           27.968          7.524 
     69       H           27.550          7.774 
     70       H           28.116          8.607 
     71       H           28.059         10.691 
     72       H           27.841         10.068 
     73       H           27.698          5.466 
     74       H           27.452          9.425 
     75       H           28.473         18.311 
     76       H           28.133         23.161 
     77       H           28.527         21.656 
     78       H           26.567         16.210 
     79       H           28.075         10.175 
     80       H           27.622          4.569 
     81       H           27.327          5.234 


NMR shielding tensor and spin rotation calculation done in   3.5 sec 

Maximum memory used throughout the entire PROP-calculation: 372.2 MB
--------------------------------------------------------------------------
WARNING: There was an error initializing an OpenFabrics device.

  Local host:   c01b01n06
  Local device: mlx5_0
--------------------------------------------------------------------------
--------------------------------------------------------------------------
WARNING: There is at least one non-excluded one OpenFabrics device found,
but there are no active ports detected (or Open MPI was unable to use
them).  This is most certainly not what you wanted.  Check your
cables, subnet manager configuration, etc.  The openib BTL will be
ignored for this job.

  Local host: c01b01n06
--------------------------------------------------------------------------
[c01b01n06:56117] 52 more processes have sent help message help-mpi-btl-openib.txt / error in device init
[c01b01n06:56117] Set MCA parameter "orte_base_help_aggregate" to 0 to see all help / error messages
[c01b01n06:56117] 6 more processes have sent help message help-mpi-btl-openib.txt / no active ports found

--------------------------------
SUGGESTED CITATIONS FOR THIS RUN
--------------------------------

Below you find a list of papers that are relevant to this ORCA run
We neither can nor want to force you to cite these papers, but we appreciate if you do
You receive ORCA, which is the product of decades of hard work by many enthusiastic individuals, for free
The only thing we kindly ask in return is that you cite our papers,
We deeply appreciate it, if you show your appreciation for ORCA by not just citing the generic ORCA reference.

Please note that relegating all ORCA citations to the supporting information does *not* help us.
SI sections are not indexed - citations you put there will not count into any citation statistics
But we need these citations in order to attract the funding resources that allow us to do what we are doing

Therefore, if you are a happy ORCA user, please consider citing a few of the papers listed below in the main body of your paper

In addition to the list printed below, the program has created the file nmr-conf-9.bibtex that contains the list in bibtex format
You can import this file easily into all common literature databanks and citation aid programs


List of essential papers. We consider these as the minimum necessary citations

  1. Neese, F.
     Software update: the ORCA program system, version 6.0
     WIRES Comput. Molec. Sci. 2025 15(1), e70019
     doi.org/10.1002/wcms.7019

List of papers to cite with high priority. The work reported in these papers was absolutely
necessary for this run to complete.
Our perspective: the developers of density functionals and basis sets usually get cited in chemistry papers
Good! But without the algorithms to do something with them, the functionals or basis sets would not do anything.
Hence, in our opinion, the algorithm design and method developments papers are equally worthy of getting cited

  1. Neese, F.
     An improvement of the resolution of the identity approximation for the formation of the Coulomb matrix
     J. Comp. Chem. 2003 24(14), 1740-1747
     doi.org/10.1002/jcc.10318
  2. Stoychev, G.L.; Auer, A.A.; Neese, F.
     Automatic Generation of Auxiliary Basis Sets
     J. Theo. Comp. Chem. 2017 13 , 554-562
     doi.org/10.1021/acs.jctc.6b01041
  3. Stoychev, G.L.; Auer, A.A.; Izsak, R.; Neese, F.
     Self-Consistent Field Calculation of Nuclear Magnetic Resonance Chemical Shielding Constants Using Gauge-Including Atomic Orbitals and Approximate Two-Electron Integrals
     J. Chem. Theory Comput. 2018 14(2), 619-637
     doi.org/10.1021/acs.jctc.7b01006
  4. Garcia-Rates, M.; Neese, F.
     Effect of the Solute Cavity on the Solvation Energy and its Derivatives within the Framework of the Gaussian Charge Scheme
     J. Comput. Chem. 2020 41 , 922-939
     doi.org/10.1002/jcc.26139
  5. Neese, F.
     The SHARK Integral Generation and Digestion System
     J. Comp. Chem. 2022 44(3), 381
     doi.org/10.1002/jcc.26942

List of suggested additional citations. These are papers that are important in the 'surrounding' of 
of this run, or papers that preceded the highly important papers. If you like your results we are grateful for a citation.

  1. Neese, F.
     The ORCA program system
     WIRES Comput. Molec. Sci. 2012 2(1), 73-78
     doi.org/10.1002/wcms.81
  2. Neese, F.
     Software update: the ORCA program system, version 4.0
     WIRES Comput. Molec. Sci. 2018 8(1), 1-6
     doi.org/10.1002/wcms.1327
  3. Neese, F.; Wennmohs, F.; Becker, U.; Riplinger, C.
     The ORCA quantum chemistry program package
     J. Chem. Phys. 2020 152(22), 224108
     doi.org/10.1063/5.0004608
  4. Neese, F.
     Software update: The ORCA program system—Version 5.0
     WIRES Comput. Molec. Sci. 2022 12(1), e1606
     doi.org/10.1002/wcms.1606

List of optional additional citations

  1. Neese, F.
     Approximate second-order SCF convergence for spin unrestricted wavefunctions
     Chem. Phys. Lett. 2000 325(1-3), 93-98
     doi.org/10.1016/s0009-2614(00)00662-x

Timings for individual modules:

Sum of individual times          ...      314.568 sec (=   5.243 min)
Startup calculation              ...      112.734 sec (=   1.879 min)  35.8 %
SCF iterations                   ...      122.636 sec (=   2.044 min)  39.0 %
Property integrals               ...       52.936 sec (=   0.882 min)  16.8 %
SCF Response                     ...       16.211 sec (=   0.270 min)   5.2 %
Property calculations            ...       10.050 sec (=   0.168 min)   3.2 %
                             ****ORCA TERMINATED NORMALLY****
TOTAL RUN TIME: 0 days 0 hours 5 minutes 42 seconds 208 msec
