
                                 *****************
                                 * O   R   C   A *
                                 *****************

                                            #,                                       
                                            ###                                      
                                            ####                                     
                                            #####                                    
                                            ######                                   
                                           ########,                                 
                                     ,,################,,,,,                         
                               ,,#################################,,                 
                          ,,##########################################,,             
                       ,#########################################, ''#####,          
                    ,#############################################,,   '####,        
                  ,##################################################,,,,####,       
                ,###########''''           ''''###############################       
              ,#####''   ,,,,##########,,,,          '''####'''          '####       
            ,##' ,,,,###########################,,,                        '##       
           ' ,,###''''                  '''############,,,                           
         ,,##''                                '''############,,,,        ,,,,,,###''
      ,#''                                            '''#######################'''  
     '                                                          ''''####''''         
             ,#######,   #######,   ,#######,      ##                                
            ,#'     '#,  ##    ##  ,#'     '#,    #''#        ,####,    ,#,          
            ##       ##  ##   ,#'  ##            #'  '#       #'       ,# #          
            ##       ##  #######   ##           ,######,      #####,      #          
            '#,     ,#'  ##    ##  '#,     ,#' ,#      #,     #,   #      #          
             '#######'   ##     ##  '#######'  #'      '#     '####' #    #          



                #########################################################
                #                        -***-                          #
                #          Department of theory and spectroscopy        #
                #                                                       #
                #                      Frank Neese                      #
                #                                                       #
                #     Directorship, Architecture, Infrastructure        #
                #                    SHARK, DRIVERS                     #
                #        Core code/Algorithms in most modules           #
                #                                                       #
                #        Max Planck Institute fuer Kohlenforschung      #
                #                Kaiser Wilhelm Platz 1                 #
                #                 D-45470 Muelheim/Ruhr                 #
                #                      Germany                          #
                #                                                       #
                #                  All rights reserved                  #
                #                        -***-                          #
                #########################################################


                         Program Version 6.1.0-f.0  -   RELEASE   -


 With contributions from (in alphabetic order):
[Max-Planck-Institut fuer Kohlenforschung]                               
  Daniel Aravena         : Magnetic Suceptibility                        
  Michael Atanasov       : Ab Initio Ligand Field Theory (pilot matlab implementation)
  Alexander A. Auer      : GIAO ZORA, VPT2 properties, NMR spectrum      
  Ute Becker             : All parallelization in ORCA, NUMFREQ, NUMCALC 
  Giovanni Bistoni       : ED, misc. LED, open-shell LED, HFLD           
  Dmytro Bykov           : pre 5.0 version of the SCF Hessian            
  Marcos Casanova-Páez   : Triplet and SCS-CIS(D). UHF-(DLPNO)-IP/EA/STEOM-CCSD. UHF-CVS-IP/STEOM-CCSD   
  Vijay G. Chilkuri      : MRCI spin determinant printing, contributions to CSF-ICE 
  Pauline Colinet        : FMM embedding                                 
  Dipayan Datta          : RHF DLPNO-CCSD density                        
  Achintya Kumar Dutta   : EOM-CC, STEOM-CC                              
  Nicolas Foglia         : Exact transition moments, OPA infrastructure, MCD improvements    
  Dmitry Ganyushin       : Spin-Orbit,Spin-Spin,Magnetic field MRCI      
  Miquel Garcia-Rates    : C-PCM and meta-GGA Hessian, CCSD/C-PCM, Gaussian charge scheme 
  Tiago L. C. Gouveia    : GS-ROHF, GS-ROCIS                             
  Yang Guo               : DLPNO-NEVPT2, F12-NEVPT2, CIM, IAO-localization        
  Andreas Hansen         : Spin unrestricted coupled pair/coupled cluster methods 
  Ingolf Harden          : AUTO-CI MPn and infrastructure                
  Benjamin Helmich-Paris : MC-RPA, TRAH-(SCF,CASSCF), AVAS, COSX integrals, SCF dyn. polar., MC-PDFT, srDFT 
  Lee Huntington         : MR-EOM, pCC                                   
  Robert Izsak           : Overlap fitted RIJCOSX, COSX-SCS-MP3, EOM     
  Riya Kayal             : Wick's Theorem for AUTO-CI, AUTO-CI UHF-CCSDT 
  Emily Kempfer          : AUTO-CI RHF CISDT and CCSDT, approximate NEVPT4
  Christian Kollmar      : KDIIS, OOCD, Brueckner-CCSD(T), CCSD density, CASPT2, CASPT2-K, improved NEVPT2 
  Axel Koslowski         : Symmetry handling                             
  Simone Kossmann        : meta-GGA functionals, TD-DFT gradient, OOMP2, (MP2 Hessian; deprecated post 5.0) 
  Lucas Lang             : DCDCAS, Hyperfine gauge corrections, ICE-SOC+SSC
  Marvin Lechner         : AUTO-CI (C++ implementation), FIC-MRCC        
  Spencer Leger          : CASSCF response                               
  Dagmar Lenk            : GEPOL surface, SMD, ORCA-2-JSON               
  Dimitrios Liakos       : Extrapolation schemes; Compound Job, Property file
  Dimitrios Manganas     : Further ROCIS development; embedding schemes. LFT, Crystal Embedding 
  Dimitrios Pantazis     : SARC Basis sets                               
  Anastasios Papadopoulos: AUTO-CI, single reference methods and gradients 
  Taras Petrenko         : pre 6.0 DFT Hessian and TD-DFT gradient,  ECA, NRVS 
  Petra Pikulova         : Analytic Raman intensities                    
  Peter Pinski           : DLPNO-MP2, DLPNO-MP2 Gradient                 
  Shashank Vittal Rao    : ES-AILFT, MagRelax                            
  Christoph Reimann      : Effective Core Potentials                     
  Marius Retegan         : Local ZFS, SOC                                
  Christoph Riplinger    : Optimizer, TS searches, QM/MM, DLPNO-CCSD(T), (RO)-DLPNO pert. Triples 
  Michael Roemelt        : Original ROCIS implementation, recursive CI coupling coefficients
  Masaaki Saitow         : Open-shell DLPNO-CCSD energy and density      
  Barbara Sandhoefer     : DKH picture change effects                    
  Yorick L. A. Schmerwitz: GMF and freeze-and-release deltaSCF, NEB S-IDPP initial path                    
  Kantharuban Sivalingam : CASSCF convergence/infrastructure, NEVPT2, NEVPT3, NEVPT4(SD), FIC-MRCI and CEPA variants
  Bernardo de Souza      : ESD, SOC TD-DFT                               
  Georgi L. Stoychev     : AutoAux, RI-MP2 NMR, DLPNO-MP2 response, X2C  
  Van Anh Tran           : RI-MP2 g-tensors                              
  Willem Van den Heuvel  : Paramagnetic NMR                              
  Zikuan Wang            : NOTCH, Electric field optimization            
  Frank Wennmohs         : Technical directorship and infrastructure     
  Hang Xu                : AUTO-CI-Response properties                   
                                                                         
[FACCTs GmbH]                                                            
  Markus Bursch, Nicolas Foglia, Miquel Garcia-Rates, Ingolf Harden, Hagen Neugebauer, Anastasios Papadopoulos, 
  Christoph Riplinger, Bernardo de Souza, Georgi L. Stoychev                                                    
                                                                 
  APM, various basis sets, CI-OPT, improved COSX, DLPNO-Multilevel,           
  DOCKER, DRACO, updates on ESD, Fragmentator, GOAT, IRC, LR-CPCM, L-BFGS, MBIS, meta-GGA TD-DFT gradient, ML-optimized integration grids, 
  MM, NACMEs, nearIR, NEB, NEB-TS, NL-DFT gradient (VV10), 2- and 3-layer-ONIOM, interface openCOSMO-RS, QMMM,   
  Crystal-QMMM, RESP, rigid body optimization, SF, symmetry and pop. for TD-DFT, various functionals, SOLVATOR                                   
                                                                         
[Other institutions]                                                     
  V. Asgeirsson          : NEB                                           
  Christoph Bannwarth    : sTDA-DFT, sTD-DFT, PBEh-3c, B97-3c, D3        
  Giovanni Bistoni       : ETS/NOCV, ADLD/ADEX, COVALED                  
  Martin Brehm           : Molecular dynamics                            
  Ronald Cardenas        : ETS/NOCV                                      
  Martina Colucci        : COVALED                                       
  Sebastian Ehlert       : rSCAN, r2SCAN, r2SCAN-3c, D4, dhf basis sets  
  Marvin Friede          : D4 for Fr, Ra, Ac-Lr                          
  Lars Goerigk           : TD-DFT with DH, B97 family of functionals     
  Stefan Grimme          : VdW corrections, initial TS optimization, DFT functionals, gCP, sTDA/sTD-DF 
  Waldemar Hujo          : DFT-NL                                        
  H. Jonsson             : NEB                                           
  Holger Kruse           : gCP                                           
  Marcel Mueller         : wB97X-3c, vDZP basis set                      
  Hagen Neugebauer       : wr2SCAN, Native XTB                           
  Gianluca Regni         : ADLD/ADEX                                     
  Tobias Risthaus        : pre 6.0 range-separated hybrid DFT and stability analysis
  Lukas Wittmann         : regularized MP2, r2SCAN double-hybrids, wr2SCAN        
                                                                         
We gratefully acknowledge several colleagues who have allowed us to      
interface, adapt or use parts of their codes:                            
  Ed Valeev, F. Pavosevic, A. Kumar             : LibInt (2-el integral package), F12 methods 
  Garnet Chan, S. Sharma, J. Yang, R. Olivares  : DMRG                   
  Ulf Ekstrom                                   : XCFun DFT Library      
  Mihaly Kallay                                 : mrcc  (arbitrary order and MRCC methods)
  Frank Weinhold                                : gennbo (NPA and NBO analysis)           
  Simon Mueller                                 : openCOSMO-RS                            
  Christopher J. Cramer and Donald G. Truhlar   : smd solvation model                     
  S Lehtola, MJT Oliveira, MAL Marques          : LibXC Library                           
  Liviu Ungur et al                             : ANISO software                          


 Your calculation uses the libint2 library for the computation of 2-el integrals
 For citations please refer to: http://libint.valeyev.net

 Your ORCA version has been built with support for libXC version: 7.0.0
 For citations please refer to: https://libxc.gitlab.io

 This ORCA versions uses:
   CBLAS   interface :  Fast vector & matrix operations
   LAPACKE interface :  Fast linear algebra routines
   SCALAPACK package :  Parallel linear algebra routines
   Shared memory     :  Shared parallel matrices
   BLAS/LAPACK       :  OpenBLAS 0.3.29  USE64BITINT DYNAMIC_ARCH NO_AFFINITY Cooperlake SINGLE_THREADED
        Core in use  :  Cooperlake
   Copyright (c) 2011-2014, The OpenBLAS Project


  ***********************************
  * Starting time: Tue Mar  3 21:28:05 2026
  * Host name:     c01b01n02
  * Process ID:    1390557
  * Working dir.:  /lustre1/jiangy/jiangy_liuxy/NMR/B9D7C2-RSSS-NMR/opt_conf
  ***********************************

NOTE: MaxCore=5000 MB was set to SCF,MP2,MDCI,CIPSI,MRCI,RASCI and CIS
      => If you want to overwrite this, your respective input block should be placed after the MaxCore statement


***************************************
The coordinates will be read from file: opt-conf-0.xyz
***************************************



Warning: The global flag for NMR shieldings has been found
         but shieldings for certain elements have also been explicitly requested in the EPRNMR block
         ==>> only the requested shieldings will be calculated

================================================================================

----- Orbital basis set information -----
Your calculation utilizes the basis: pcSseg-2
   F. Jensen, J. Chem. Theory Comput. 11, 132 (2015).

----- AuxJ basis set information -----
Your calculation utilizes the AutoAux generation procedure.
  G. L. Stoychev, A. A. Auer, F. Neese, J. Chem. Theory Comput. 13, 554 (2017)

----- AuxC basis set information -----
Your calculation utilizes the AutoAux generation procedure.
  G. L. Stoychev, A. A. Auer, F. Neese, J. Chem. Theory Comput. 13, 554 (2017)

----- AuxJK basis set information -----
Your calculation utilizes the AutoAux generation procedure.
  G. L. Stoychev, A. A. Auer, F. Neese, J. Chem. Theory Comput. 13, 554 (2017)

----- AuxX basis set information -----
Your calculation utilizes the AutoAux generation procedure.
  G. L. Stoychev, A. A. Auer, F. Neese, J. Chem. Theory Comput. 13, 554 (2017)

================================================================================
                                        WARNINGS
                       Please study these warnings very carefully!
================================================================================


================================================================================
                                       INPUT FILE
================================================================================
NAME = nmr-conf-0.inp
|  1> !TPSS PCSSEG-2 AUTOAUX NMR CPCM(Methanol)
|  2> 
|  3> %pal nprocs 60 end
|  4> %maxcore 5000
|  5> 
|  6> *XYZFILE 0 1 opt-conf-0.xyz
|  7> 
|  8> %EPRNMR
|  9>    NUCLEI = ALL C {SHIFT}
| 10>    NUCLEI = ALL H {SHIFT}
| 11>    TAU DOBSON
| 12> END
| 13> 
| 14> 
| 15>                          ****END OF INPUT****
================================================================================

                       ****************************
                       * Single Point Calculation *
                       ****************************

---------------------------------
CARTESIAN COORDINATES (ANGSTROEM)
---------------------------------
  C     11.892178  -12.276601   -2.039041
  C     12.285350  -13.557552   -1.645317
  C     11.327999  -14.567667   -1.529336
  C      9.983941  -14.283835   -1.765135
  C      9.591578  -12.998307   -2.125725
  C     10.549541  -11.996722   -2.271802
  C      8.135678  -12.671120   -2.337225
  C      7.510300  -11.887840   -1.164407
  C      6.201677  -11.166844   -1.552835
  C      6.483973   -9.860995   -2.322630
  C      7.298258   -8.847176   -1.559239
  C      6.842037   -8.361444   -0.327514
  C      7.570499   -7.413090    0.371957
  C      8.770744   -6.913819   -0.158746
  C      9.235159   -7.400458   -1.365254
  C      8.502967   -8.366001   -2.056836
  C      7.359497  -12.782725    0.067735
  C      5.213822  -11.998985   -2.371397
  O     11.802984  -15.789227   -1.169068
  O     12.896041  -11.361174   -2.155735
  O     13.618197  -13.813930   -1.426030
  O      9.474205   -5.956898    0.515230
  O      7.227146   -6.882482    1.582550
  C     14.031179  -14.024071   -0.056477
  C     14.138233  -12.691127    0.702460
  C     12.790513  -12.097286    1.105492
  C     15.365862  -14.738026   -0.153456
  O     15.238430  -15.997949   -0.807071
  C     12.600324  -10.717391    1.014128
  C     11.384450  -10.144635    1.354594
  C     10.332854  -10.955562    1.796051
  C     10.525985  -12.317846    1.927632
  C     11.750321  -12.885580    1.586909
  C     12.549758  -10.031775   -2.545624
  C     10.866816  -16.847531   -0.975559
  C      6.045641   -7.364875    2.220159
  O     14.929101  -11.770385   -0.038743
  O      6.915081  -12.071528    1.225674
  O      4.775700  -13.202734   -1.734370
  O     11.092149   -8.815607    1.295696
  O      9.117126  -10.400632    2.104304
  C     12.141417   -7.905793    0.965621
  H      9.236737  -15.057127   -1.665361
  H     10.238008  -11.002866   -2.557606
  H      7.574380  -13.593302   -2.503653
  H      8.039328  -12.074382   -3.247029
  H      8.224326  -11.106372   -0.885236
  H      5.697644  -10.896316   -0.619805
  H      6.996147  -10.090066   -3.260810
  H      5.523159   -9.414145   -2.599497
  H      5.910371   -8.728353    0.079548
  H     10.171226   -7.024740   -1.758969
  H      8.880552   -8.741144   -3.000333
  H      8.316210  -13.270660    0.275208
  H      6.620236  -13.561492   -0.115351
  H      4.348563  -11.371775   -2.615770
  H      5.661522  -12.314183   -3.315317
  H      9.006281   -5.757144    1.339967
  H     13.317808  -14.684607    0.434517
  H     14.708581  -12.896632    1.614122
  H     15.742217  -14.936638    0.850741
  H     16.086824  -14.100908   -0.675697
  H     14.735407  -15.843517   -1.618420
  H     13.407530  -10.097925    0.657755
  H      9.712753  -12.933472    2.289621
  H     11.866538  -13.955241    1.692037
  H     12.111783  -10.024234   -3.545941
  H     11.851296   -9.583865   -1.837396
  H     13.480916   -9.471051   -2.546612
  H     10.331058  -17.073885   -1.900470
  H     11.454970  -17.710738   -0.673903
  H     10.149773  -16.597762   -0.190143
  H      5.161219   -7.149238    1.616123
  H      6.113123   -8.440522    2.398768
  H      5.979940   -6.837327    3.168287
  H     14.456770  -11.604492   -0.872710
  H      7.609856  -11.445273    1.487038
  H      4.333659  -12.964514   -0.909755
  H      9.163533   -9.444615    1.947923
  H     11.698389   -6.916339    1.014285
  H     12.962349   -7.990942    1.681461
  H     12.515934   -8.091450   -0.042473

----------------------------
CARTESIAN COORDINATES (A.U.)
----------------------------
  NO LB      ZA    FRAG     MASS         X           Y           Z
   0 C     6.0000    0    12.011   22.472960  -23.199414   -3.853228
   1 C     6.0000    0    12.011   23.215948  -25.620060   -3.109198
   2 C     6.0000    0    12.011   21.406816  -27.528901   -2.890027
   3 C     6.0000    0    12.011   18.866915  -26.992536   -3.335622
   4 C     6.0000    0    12.011   18.125456  -24.563240   -4.017038
   5 C     6.0000    0    12.011   19.935744  -22.670519   -4.293085
   6 C     6.0000    0    12.011   15.374204  -23.944947   -4.416715
   7 C     6.0000    0    12.011   14.192410  -22.464761   -2.200411
   8 C     6.0000    0    12.011   11.719471  -21.102277   -2.934433
   9 C     6.0000    0    12.011   12.252933  -18.634579   -4.389135
  10 C     6.0000    0    12.011   13.791709  -16.718740   -2.946535
  11 C     6.0000    0    12.011   12.929576  -15.800839   -0.618911
  12 C     6.0000    0    12.011   14.306170  -14.008710    0.702898
  13 C     6.0000    0    12.011   16.574303  -13.065225   -0.299987
  14 C     6.0000    0    12.011   17.451921  -13.984840   -2.579957
  15 C     6.0000    0    12.011   16.068279  -15.809451   -3.886857
  16 C     6.0000    0    12.011   13.907433  -24.155850    0.128001
  17 C     6.0000    0    12.011    9.852696  -22.674796   -4.481292
  18 O     8.0000    0    15.999   22.304408  -29.837315   -2.209219
  19 O     8.0000    0    15.999   24.369987  -21.469507   -4.073749
  20 O     8.0000    0    15.999   25.734662  -26.104544   -2.694807
  21 O     8.0000    0    15.999   17.903652  -11.256906    0.973643
  22 O     8.0000    0    15.999   13.657327  -13.006005    2.990585
  23 C     6.0000    0    12.011   26.515085  -26.501654   -0.106726
  24 C     6.0000    0    12.011   26.717389  -23.982754    1.327457
  25 C     6.0000    0    12.011   24.170567  -22.860557    2.089077
  26 C     6.0000    0    12.011   29.037271  -27.850834   -0.289990
  27 O     8.0000    0    15.999   28.796459  -30.231742   -1.525143
  28 C     6.0000    0    12.011   23.811162  -20.252933    1.916425
  29 C     6.0000    0    12.011   21.513492  -19.170581    2.559812
  30 C     6.0000    0    12.011   19.526264  -20.703011    3.394045
  31 C     6.0000    0    12.011   19.891228  -23.277355    3.642696
  32 C     6.0000    0    12.011   22.204889  -24.350217    2.998824
  33 C     6.0000    0    12.011   23.715605  -18.957307   -4.810532
  34 C     6.0000    0    12.011   20.535306  -31.837220   -1.843539
  35 C     6.0000    0    12.011   11.424606  -13.917596    4.195492
  36 O     8.0000    0    15.999   28.211912  -22.242805   -0.073213
  37 O     8.0000    0    15.999   13.067610  -22.811881    2.316189
  38 O     8.0000    0    15.999    9.024766  -24.949552   -3.277484
  39 O     8.0000    0    15.999   20.961123  -16.659083    2.448512
  40 O     8.0000    0    15.999   17.228872  -19.654346    3.976559
  41 C     6.0000    0    12.011   22.943953  -14.939784    1.824759
  42 H     1.0000    0     1.008   17.454903  -28.453846   -3.147075
  43 H     1.0000    0     1.008   19.347032  -20.792404   -4.833176
  44 H     1.0000    0     1.008   14.313503  -25.687618   -4.731218
  45 H     1.0000    0     1.008   15.192128  -22.817276   -6.135995
  46 H     1.0000    0     1.008   15.541724  -20.988001   -1.672854
  47 H     1.0000    0     1.008   10.766988  -20.591054   -1.171261
  48 H     1.0000    0     1.008   13.220801  -19.067461   -6.162037
  49 H     1.0000    0     1.008   10.437259  -17.790157   -4.912337
  50 H     1.0000    0     1.008   11.168983  -16.494196    0.150324
  51 H     1.0000    0     1.008   19.220832  -13.274834   -3.323969
  52 H     1.0000    0     1.008   16.781811  -16.518369   -5.669808
  53 H     1.0000    0     1.008   15.715359  -25.077913    0.520068
  54 H     1.0000    0     1.008   12.510433  -25.627506   -0.217981
  55 H     1.0000    0     1.008    8.217593  -21.489539   -4.943088
  56 H     1.0000    0     1.008   10.698726  -23.270433   -6.265040
  57 H     1.0000    0     1.008   17.019404  -10.879426    2.532171
  58 H     1.0000    0     1.008   25.167010  -27.749886    0.821117
  59 H     1.0000    0     1.008   27.795191  -24.371102    3.050249
  60 H     1.0000    0     1.008   29.748478  -28.226155    1.607668
  61 H     1.0000    0     1.008   30.399692  -26.646853   -1.276883
  62 H     1.0000    0     1.008   27.845884  -29.939909   -3.058371
  63 H     1.0000    0     1.008   25.336561  -19.082312    1.242977
  64 H     1.0000    0     1.008   18.354443  -24.440720    4.326757
  65 H     1.0000    0     1.008   22.424507  -26.371584    3.197487
  66 H     1.0000    0     1.008   22.887954  -18.943057   -6.700857
  67 H     1.0000    0     1.008   22.395704  -18.110880   -3.472175
  68 H     1.0000    0     1.008   25.475239  -17.897693   -4.812399
  69 H     1.0000    0     1.008   19.522871  -32.264967   -3.591368
  70 H     1.0000    0     1.008   21.646757  -33.468445   -1.273492
  71 H     1.0000    0     1.008   19.180292  -31.365224   -0.359317
  72 H     1.0000    0     1.008    9.753291  -13.510102    3.054030
  73 H     1.0000    0     1.008   11.552128  -15.950274    4.533015
  74 H     1.0000    0     1.008   11.300449  -12.920675    5.987195
  75 H     1.0000    0     1.008   27.319336  -21.929311   -1.649183
  76 H     1.0000    0     1.008   14.380544  -21.628431    2.810095
  77 H     1.0000    0     1.008    8.189428  -24.499380   -1.719188
  78 H     1.0000    0     1.008   17.316567  -17.847736    3.681042
  79 H     1.0000    0     1.008   22.106752  -13.069986    1.916721
  80 H     1.0000    0     1.008   24.495289  -15.100693    3.177501
  81 H     1.0000    0     1.008   23.651688  -15.290624   -0.080262

--------------------------------
INTERNAL COORDINATES (ANGSTROEM)
--------------------------------
 C      0   0   0     0.000000000000     0.00000000     0.00000000
 C      1   0   0     1.396580526015     0.00000000     0.00000000
 C      2   1   0     1.396533567856   119.59316469     0.00000000
 C      3   2   1     1.393790585494   119.98119206   357.98546054
 C      4   3   2     1.391601744241   120.25472684     0.46384341
 C      1   2   3     1.391108731995   120.22655631     2.10518675
 C      5   4   3     1.507126008890   120.61559894   182.07637932
 C      7   5   4     1.542766543210   113.27360317   103.54014231
 C      8   7   5     1.543763460984   112.92109826   161.35413961
 C      9   8   7     1.541920436774   111.46630125   281.18628997
 C     10   9   8     1.507864177100   114.55268246   299.99707013
 C     11  10   9     1.400435878117   120.16947717   301.75266645
 C     12  11  10     1.385385404734   120.67718689   181.09936246
 C     13  12  11     1.404102472278   120.13595577     0.86159749
 C     14  13  12     1.381361918017   119.48825359   358.35413364
 C     11  10   9     1.389408355363   121.31685865   122.26788401
 C      8   7   5     1.530273128031   110.80221603   289.38819617
 C      9   8   7     1.529169418765   115.34989914    45.04490160
 O      3   2   1     1.359269557825   115.62541556   178.63252488
 O      1   2   3     1.363585954526   115.63421892   181.44993116
 O      2   1   3     1.374880241575   119.26940337   177.62217830
 O     14  13  12     1.365576714228   120.19691240   178.51182871
 O     13  12  11     1.365638979232   125.54486607   180.68872606
 C     21   2   1     1.445817958448   117.07078212   109.42051849
 C     24  21   2     1.537591101138   111.18866161   282.51576435
 C     25  24  21     1.526902589576   113.95290775    76.05446586
 C     24  21   2     1.516745596099   105.02271975   160.90241554
 O     27  24  21     1.425081060493   111.51841171   298.34380839
 C     26  25  24     1.395933454310   119.17187538   219.32652002
 C     29  26  25     1.386476309556   120.78140524   179.14647518
 C     30  29  26     1.399407280996   119.80664015     0.02579558
 C     31  30  29     1.382183400727   119.74671410     1.91944227
 C     26  25  24     1.391103135576   122.07008130    40.59338454
 C     20   1   2     1.428014959858   118.02263878   180.47102982
 C     19   3   2     1.426136172502   118.26004113   177.23049851
 C     23  13  12     1.426605487113   118.23203237     2.29243248
 O     25  24  21     1.422187648127   110.04257954   309.13216639
 O     17   8   7     1.429730860656   113.06979217   173.83625273
 O     18   9   8     1.430652731404   114.66744531    58.90869197
 O     30  29  26     1.362066131176   125.49686487   180.35196663
 O     31  30  29     1.371481022025   120.16895191   181.55792204
 C     40  30  29     1.427471604878   118.30440365   354.42400583
 H      4   3   2     1.079930590545   120.38208285   180.76010575
 H      6   1   2     1.080039634070   120.51802215   178.79326183
 H      7   5   4     1.092325036880   109.54180454   340.79057888
 H      7   5   4     1.092301143838   108.70515739   224.43594464
 H      8   7   5     1.094742545268   106.97136478    44.54315374
 H      9   8   7     1.094430932957   106.93789150   163.96662813
 H     10   9   8     1.093150008720   109.68076620    62.66777411
 H     10   9   8     1.095213061008   108.12732274   178.10474002
 H     12  11  10     1.080889686886   119.62292249     0.90573732
 H     15  14  13     1.082772952816   119.07771085   181.17930909
 H     16  11  10     1.083277352187   119.61807493   358.52060699
 H     17   8   7     1.093812564583   109.11084288    51.22990293
 H     17   8   7     1.089267908359   110.46512593   292.83077154
 H     18   9   8     1.096259310189   108.53380320   182.09401870
 H     18   9   8     1.091223195767   110.80473446   299.58710089
 H     22  14  13     0.969043910609   108.40620722     0.99022337
 H     24  21   2     1.089165007294   109.15228104    44.56734487
 H     25  24  21     1.094832538866   106.53241596   195.33945442
 H     27  24  21     1.090642625871   109.29932345   180.25675124
 H     27  24  21     1.094733742987   109.63784428    61.39787416
 H     28  27  24     0.967041270293   106.86606517    48.86358532
 H     29  26  25     1.078110403139   119.18349897     0.19708250
 H     32  31  30     1.082301935837   119.17454284   178.72537799
 H     33  26  25     1.081080197053   120.92747614     0.04105263
 H     34  20   1     1.092022255356   110.71898171   297.28096660
 H     34  20   1     1.090898259513   111.11485733    59.29254261
 H     34  20   1     1.086953248598   105.82824345   178.32311095
 H     35  19   3     1.092580910865   111.14713264    62.41911980
 H     35  19   3     1.087220793224   105.76621455   181.31220045
 H     35  19   3     1.092434761569   111.02375703   300.24598269
 H     36  23  13     1.092501529928   110.89166084   297.38303394
 H     36  23  13     1.092461358030   110.78424115    59.26076861
 H     36  23  13     1.087000606514   106.00918763   178.34579319
 H     37  25  24     0.972686260984   106.69198981    63.06673273
 H     38  17   8     0.971194533083   108.44227652   293.99082039
 H     39  18   9     0.965473529474   108.23484358    60.40266035
 H     41  31  30     0.969833126656   108.67498042     0.72436997
 H     42  40  30     1.085201190211   105.70443797   182.14094338
 H     42  40  30     1.092522770393   110.55735770   301.61388261
 H     42  40  30     1.091322338306   110.94193612    63.32310875

---------------------------
INTERNAL COORDINATES (A.U.)
---------------------------
 C      0   0   0     0.000000000000     0.00000000     0.00000000
 C      1   0   0     2.639154718137     0.00000000     0.00000000
 C      2   1   0     2.639065980077   119.59316469     0.00000000
 C      3   2   1     2.633882494621   119.98119206   357.98546054
 C      4   3   2     2.629746184102   120.25472684     0.46384341
 C      1   2   3     2.628814525977   120.22655631     2.10518675
 C      5   4   3     2.848055406111   120.61559894   182.07637932
 C      7   5   4     2.915406255243   113.27360317   103.54014231
 C      8   7   5     2.917290156813   112.92109826   161.35413961
 C      9   8   7     2.913807345800   111.46630125   281.18628997
 C     10   9   8     2.849450341869   114.55268246   299.99707013
 C     11  10   9     2.646440277759   120.16947717   301.75266645
 C     12  11  10     2.617999004879   120.67718689   181.09936246
 C     13  12  11     2.653369136567   120.13595577     0.86159749
 C     14  13  12     2.610395716881   119.48825359   358.35413364
 C     11  10   9     2.625601279819   121.31685865   122.26788401
 C      8   7   5     2.891797122077   110.80221603   289.38819617
 C      9   8   7     2.889711413833   115.34989914    45.04490160
 O      3   2   1     2.568647206465   115.62541556   178.63252488
 O      1   2   3     2.576804014115   115.63421892   181.44993116
 O      2   1   3     2.598147123516   119.26940337   177.62217830
 O     14  13  12     2.580566004751   120.19691240   178.51182871
 O     13  12  11     2.580683668556   125.54486607   180.68872606
 C     21   2   1     2.732199980971   117.07078212   109.42051849
 C     24  21   2     2.905626087106   111.18866161   282.51576435
 C     25  24  21     2.885427727473   113.95290775    76.05446586
 C     24  21   2     2.866233791458   105.02271975   160.90241554
 O     27  24  21     2.693012922971   111.51841171   298.34380839
 C     26  25  24     2.637931929824   119.17187538   219.32652002
 C     29  26  25     2.620060516230   120.78140524   179.14647518
 C     30  29  26     2.644496510898   119.80664015     0.02579558
 C     31  30  29     2.611948094227   119.74671410     1.91944227
 C     26  25  24     2.628803950278   122.07008130    40.59338454
 C     20   1   2     2.698557189275   118.02263878   180.47102982
 C     19   3   2     2.695006795708   118.26004113   177.23049851
 C     23  13  12     2.695893671793   118.23203237     2.29243248
 O     25  24  21     2.687545166005   110.04257954   309.13216639
 O     17   8   7     2.701799771856   113.06979217   173.83625273
 O     18   9   8     2.703541855100   114.66744531    58.90869197
 O     30  29  26     2.573931964213   125.49686487   180.35196663
 O     31  30  29     2.591723529497   120.16895191   181.55792204
 C     40  30  29     2.697530397169   118.30440365   354.42400583
 H      4   3   2     2.040773059774   120.38208285   180.76010575
 H      6   1   2     2.040979122172   120.51802215   178.79326183
 H      7   5   4     2.064195168928   109.54180454   340.79057888
 H      7   5   4     2.064150017623   108.70515739   224.43594464
 H      8   7   5     2.068763597708   106.97136478    44.54315374
 H      9   8   7     2.068174735781   106.93789150   163.96662813
 H     10   9   8     2.065754139774   109.68076620    62.66777411
 H     10   9   8     2.069652743599   108.12732274   178.10474002
 H     12  11  10     2.042585489194   119.62292249     0.90573732
 H     15  14  13     2.046144346040   119.07771085   181.17930909
 H     16  11  10     2.047097522712   119.61807493   358.52060699
 H     17   8   7     2.067006188904   109.11084288    51.22990293
 H     17   8   7     2.058418033267   110.46512593   292.83077154
 H     18   9   8     2.071629868018   108.53380320   182.09401870
 H     18   9   8     2.062112990983   110.80473446   299.58710089
 H     22  14  13     1.831227602795   108.40620722     0.99022337
 H     24  21   2     2.058223578435   109.15228104    44.56734487
 H     25  24  21     2.068933660963   106.53241596   195.33945442
 H     27  24  21     2.061015872877   109.29932345   180.25675124
 H     27  24  21     2.068746963808   109.63784428    61.39787416
 H     28  27  24     1.827443161054   106.86606517    48.86358532
 H     29  26  25     2.037333404064   119.18349897     0.19708250
 H     32  31  30     2.045254252945   119.17454284   178.72537799
 H     33  26  25     2.042945501236   120.92747614     0.04105263
 H     34  20   1     2.063622994770   110.71898171   297.28096660
 H     34  20   1     2.061498950451   111.11485733    59.29254261
 H     34  20   1     2.054043960227   105.82824345   178.32311095
 H     35  19   3     2.064678700685   111.14713264    62.41911980
 H     35  19   3     2.054549546299   105.76621455   181.31220045
 H     35  19   3     2.064402518541   111.02375703   300.24598269
 H     36  23  13     2.064528692454   110.89166084   297.38303394
 H     36  23  13     2.064452778568   110.78424115    59.26076861
 H     36  23  13     2.054133453718   106.00918763   178.34579319
 H     37  25  24     1.838110647488   106.69198981    63.06673273
 H     38  17   8     1.835291690287   108.44227652   293.99082039
 H     39  18   9     1.824480560256   108.23484358    60.40266035
 H     41  31  30     1.832719004984   108.67498042     0.72436997
 H     42  40  30     2.050733049704   105.70443797   182.14094338
 H     42  40  30     2.064568831115   110.55735770   301.61388261
 H     42  40  30     2.062300343228   110.94193612    63.32310875

---------------------
BASIS SET INFORMATION
---------------------
There are 3 groups of distinct atoms

 Group   1 Type C   : 11s7p2d1f contracted to 4s5p2d1f pattern {7211/31111/11/1}
 Group   2 Type O   : 11s7p2d1f contracted to 4s5p2d1f pattern {7211/31111/11/1}
 Group   3 Type H   : 6s3p1d contracted to 3s2p1d pattern {411/21/1}

Atom   0C    basis set group =>   1
Atom   1C    basis set group =>   1
Atom   2C    basis set group =>   1
Atom   3C    basis set group =>   1
Atom   4C    basis set group =>   1
Atom   5C    basis set group =>   1
Atom   6C    basis set group =>   1
Atom   7C    basis set group =>   1
Atom   8C    basis set group =>   1
Atom   9C    basis set group =>   1
Atom  10C    basis set group =>   1
Atom  11C    basis set group =>   1
Atom  12C    basis set group =>   1
Atom  13C    basis set group =>   1
Atom  14C    basis set group =>   1
Atom  15C    basis set group =>   1
Atom  16C    basis set group =>   1
Atom  17C    basis set group =>   1
Atom  18O    basis set group =>   2
Atom  19O    basis set group =>   2
Atom  20O    basis set group =>   2
Atom  21O    basis set group =>   2
Atom  22O    basis set group =>   2
Atom  23C    basis set group =>   1
Atom  24C    basis set group =>   1
Atom  25C    basis set group =>   1
Atom  26C    basis set group =>   1
Atom  27O    basis set group =>   2
Atom  28C    basis set group =>   1
Atom  29C    basis set group =>   1
Atom  30C    basis set group =>   1
Atom  31C    basis set group =>   1
Atom  32C    basis set group =>   1
Atom  33C    basis set group =>   1
Atom  34C    basis set group =>   1
Atom  35C    basis set group =>   1
Atom  36O    basis set group =>   2
Atom  37O    basis set group =>   2
Atom  38O    basis set group =>   2
Atom  39O    basis set group =>   2
Atom  40O    basis set group =>   2
Atom  41C    basis set group =>   1
Atom  42H    basis set group =>   3
Atom  43H    basis set group =>   3
Atom  44H    basis set group =>   3
Atom  45H    basis set group =>   3
Atom  46H    basis set group =>   3
Atom  47H    basis set group =>   3
Atom  48H    basis set group =>   3
Atom  49H    basis set group =>   3
Atom  50H    basis set group =>   3
Atom  51H    basis set group =>   3
Atom  52H    basis set group =>   3
Atom  53H    basis set group =>   3
Atom  54H    basis set group =>   3
Atom  55H    basis set group =>   3
Atom  56H    basis set group =>   3
Atom  57H    basis set group =>   3
Atom  58H    basis set group =>   3
Atom  59H    basis set group =>   3
Atom  60H    basis set group =>   3
Atom  61H    basis set group =>   3
Atom  62H    basis set group =>   3
Atom  63H    basis set group =>   3
Atom  64H    basis set group =>   3
Atom  65H    basis set group =>   3
Atom  66H    basis set group =>   3
Atom  67H    basis set group =>   3
Atom  68H    basis set group =>   3
Atom  69H    basis set group =>   3
Atom  70H    basis set group =>   3
Atom  71H    basis set group =>   3
Atom  72H    basis set group =>   3
Atom  73H    basis set group =>   3
Atom  74H    basis set group =>   3
Atom  75H    basis set group =>   3
Atom  76H    basis set group =>   3
Atom  77H    basis set group =>   3
Atom  78H    basis set group =>   3
Atom  79H    basis set group =>   3
Atom  80H    basis set group =>   3
Atom  81H    basis set group =>   3
---------------------------------
AUXILIARY/J BASIS SET INFORMATION
---------------------------------
There are 3 groups of distinct atoms

 Group   1 Type C   : 15s13p12d5f5g contracted to 15s13p12d5f5g pattern {111111111111111/1111111111111/111111111111/11111/11111}
 Group   2 Type O   : 15s13p12d5f5g contracted to 15s13p12d5f5g pattern {111111111111111/1111111111111/111111111111/11111/11111}
 Group   3 Type H   : 12s4p3d2f contracted to 12s4p3d2f pattern {111111111111/1111/111/11}

Atom   0C    basis set group =>   1
Atom   1C    basis set group =>   1
Atom   2C    basis set group =>   1
Atom   3C    basis set group =>   1
Atom   4C    basis set group =>   1
Atom   5C    basis set group =>   1
Atom   6C    basis set group =>   1
Atom   7C    basis set group =>   1
Atom   8C    basis set group =>   1
Atom   9C    basis set group =>   1
Atom  10C    basis set group =>   1
Atom  11C    basis set group =>   1
Atom  12C    basis set group =>   1
Atom  13C    basis set group =>   1
Atom  14C    basis set group =>   1
Atom  15C    basis set group =>   1
Atom  16C    basis set group =>   1
Atom  17C    basis set group =>   1
Atom  18O    basis set group =>   2
Atom  19O    basis set group =>   2
Atom  20O    basis set group =>   2
Atom  21O    basis set group =>   2
Atom  22O    basis set group =>   2
Atom  23C    basis set group =>   1
Atom  24C    basis set group =>   1
Atom  25C    basis set group =>   1
Atom  26C    basis set group =>   1
Atom  27O    basis set group =>   2
Atom  28C    basis set group =>   1
Atom  29C    basis set group =>   1
Atom  30C    basis set group =>   1
Atom  31C    basis set group =>   1
Atom  32C    basis set group =>   1
Atom  33C    basis set group =>   1
Atom  34C    basis set group =>   1
Atom  35C    basis set group =>   1
Atom  36O    basis set group =>   2
Atom  37O    basis set group =>   2
Atom  38O    basis set group =>   2
Atom  39O    basis set group =>   2
Atom  40O    basis set group =>   2
Atom  41C    basis set group =>   1
Atom  42H    basis set group =>   3
Atom  43H    basis set group =>   3
Atom  44H    basis set group =>   3
Atom  45H    basis set group =>   3
Atom  46H    basis set group =>   3
Atom  47H    basis set group =>   3
Atom  48H    basis set group =>   3
Atom  49H    basis set group =>   3
Atom  50H    basis set group =>   3
Atom  51H    basis set group =>   3
Atom  52H    basis set group =>   3
Atom  53H    basis set group =>   3
Atom  54H    basis set group =>   3
Atom  55H    basis set group =>   3
Atom  56H    basis set group =>   3
Atom  57H    basis set group =>   3
Atom  58H    basis set group =>   3
Atom  59H    basis set group =>   3
Atom  60H    basis set group =>   3
Atom  61H    basis set group =>   3
Atom  62H    basis set group =>   3
Atom  63H    basis set group =>   3
Atom  64H    basis set group =>   3
Atom  65H    basis set group =>   3
Atom  66H    basis set group =>   3
Atom  67H    basis set group =>   3
Atom  68H    basis set group =>   3
Atom  69H    basis set group =>   3
Atom  70H    basis set group =>   3
Atom  71H    basis set group =>   3
Atom  72H    basis set group =>   3
Atom  73H    basis set group =>   3
Atom  74H    basis set group =>   3
Atom  75H    basis set group =>   3
Atom  76H    basis set group =>   3
Atom  77H    basis set group =>   3
Atom  78H    basis set group =>   3
Atom  79H    basis set group =>   3
Atom  80H    basis set group =>   3
Atom  81H    basis set group =>   3
---------------------------------
AUXILIARY/C BASIS SET INFORMATION
---------------------------------
There are 3 groups of distinct atoms

 Group   1 Type C   : 15s13p12d5f5g contracted to 15s13p12d5f5g pattern {111111111111111/1111111111111/111111111111/11111/11111}
 Group   2 Type O   : 15s13p12d5f5g contracted to 15s13p12d5f5g pattern {111111111111111/1111111111111/111111111111/11111/11111}
 Group   3 Type H   : 12s4p3d2f contracted to 12s4p3d2f pattern {111111111111/1111/111/11}

Atom   0C    basis set group =>   1
Atom   1C    basis set group =>   1
Atom   2C    basis set group =>   1
Atom   3C    basis set group =>   1
Atom   4C    basis set group =>   1
Atom   5C    basis set group =>   1
Atom   6C    basis set group =>   1
Atom   7C    basis set group =>   1
Atom   8C    basis set group =>   1
Atom   9C    basis set group =>   1
Atom  10C    basis set group =>   1
Atom  11C    basis set group =>   1
Atom  12C    basis set group =>   1
Atom  13C    basis set group =>   1
Atom  14C    basis set group =>   1
Atom  15C    basis set group =>   1
Atom  16C    basis set group =>   1
Atom  17C    basis set group =>   1
Atom  18O    basis set group =>   2
Atom  19O    basis set group =>   2
Atom  20O    basis set group =>   2
Atom  21O    basis set group =>   2
Atom  22O    basis set group =>   2
Atom  23C    basis set group =>   1
Atom  24C    basis set group =>   1
Atom  25C    basis set group =>   1
Atom  26C    basis set group =>   1
Atom  27O    basis set group =>   2
Atom  28C    basis set group =>   1
Atom  29C    basis set group =>   1
Atom  30C    basis set group =>   1
Atom  31C    basis set group =>   1
Atom  32C    basis set group =>   1
Atom  33C    basis set group =>   1
Atom  34C    basis set group =>   1
Atom  35C    basis set group =>   1
Atom  36O    basis set group =>   2
Atom  37O    basis set group =>   2
Atom  38O    basis set group =>   2
Atom  39O    basis set group =>   2
Atom  40O    basis set group =>   2
Atom  41C    basis set group =>   1
Atom  42H    basis set group =>   3
Atom  43H    basis set group =>   3
Atom  44H    basis set group =>   3
Atom  45H    basis set group =>   3
Atom  46H    basis set group =>   3
Atom  47H    basis set group =>   3
Atom  48H    basis set group =>   3
Atom  49H    basis set group =>   3
Atom  50H    basis set group =>   3
Atom  51H    basis set group =>   3
Atom  52H    basis set group =>   3
Atom  53H    basis set group =>   3
Atom  54H    basis set group =>   3
Atom  55H    basis set group =>   3
Atom  56H    basis set group =>   3
Atom  57H    basis set group =>   3
Atom  58H    basis set group =>   3
Atom  59H    basis set group =>   3
Atom  60H    basis set group =>   3
Atom  61H    basis set group =>   3
Atom  62H    basis set group =>   3
Atom  63H    basis set group =>   3
Atom  64H    basis set group =>   3
Atom  65H    basis set group =>   3
Atom  66H    basis set group =>   3
Atom  67H    basis set group =>   3
Atom  68H    basis set group =>   3
Atom  69H    basis set group =>   3
Atom  70H    basis set group =>   3
Atom  71H    basis set group =>   3
Atom  72H    basis set group =>   3
Atom  73H    basis set group =>   3
Atom  74H    basis set group =>   3
Atom  75H    basis set group =>   3
Atom  76H    basis set group =>   3
Atom  77H    basis set group =>   3
Atom  78H    basis set group =>   3
Atom  79H    basis set group =>   3
Atom  80H    basis set group =>   3
Atom  81H    basis set group =>   3
----------------------------------
AUXILIARY/JK BASIS SET INFORMATION
----------------------------------
There are 3 groups of distinct atoms

 Group   1 Type C   : 15s13p12d5f5g contracted to 15s13p12d5f5g pattern {111111111111111/1111111111111/111111111111/11111/11111}
 Group   2 Type O   : 15s13p12d5f5g contracted to 15s13p12d5f5g pattern {111111111111111/1111111111111/111111111111/11111/11111}
 Group   3 Type H   : 12s4p3d2f contracted to 12s4p3d2f pattern {111111111111/1111/111/11}

Atom   0C    basis set group =>   1
Atom   1C    basis set group =>   1
Atom   2C    basis set group =>   1
Atom   3C    basis set group =>   1
Atom   4C    basis set group =>   1
Atom   5C    basis set group =>   1
Atom   6C    basis set group =>   1
Atom   7C    basis set group =>   1
Atom   8C    basis set group =>   1
Atom   9C    basis set group =>   1
Atom  10C    basis set group =>   1
Atom  11C    basis set group =>   1
Atom  12C    basis set group =>   1
Atom  13C    basis set group =>   1
Atom  14C    basis set group =>   1
Atom  15C    basis set group =>   1
Atom  16C    basis set group =>   1
Atom  17C    basis set group =>   1
Atom  18O    basis set group =>   2
Atom  19O    basis set group =>   2
Atom  20O    basis set group =>   2
Atom  21O    basis set group =>   2
Atom  22O    basis set group =>   2
Atom  23C    basis set group =>   1
Atom  24C    basis set group =>   1
Atom  25C    basis set group =>   1
Atom  26C    basis set group =>   1
Atom  27O    basis set group =>   2
Atom  28C    basis set group =>   1
Atom  29C    basis set group =>   1
Atom  30C    basis set group =>   1
Atom  31C    basis set group =>   1
Atom  32C    basis set group =>   1
Atom  33C    basis set group =>   1
Atom  34C    basis set group =>   1
Atom  35C    basis set group =>   1
Atom  36O    basis set group =>   2
Atom  37O    basis set group =>   2
Atom  38O    basis set group =>   2
Atom  39O    basis set group =>   2
Atom  40O    basis set group =>   2
Atom  41C    basis set group =>   1
Atom  42H    basis set group =>   3
Atom  43H    basis set group =>   3
Atom  44H    basis set group =>   3
Atom  45H    basis set group =>   3
Atom  46H    basis set group =>   3
Atom  47H    basis set group =>   3
Atom  48H    basis set group =>   3
Atom  49H    basis set group =>   3
Atom  50H    basis set group =>   3
Atom  51H    basis set group =>   3
Atom  52H    basis set group =>   3
Atom  53H    basis set group =>   3
Atom  54H    basis set group =>   3
Atom  55H    basis set group =>   3
Atom  56H    basis set group =>   3
Atom  57H    basis set group =>   3
Atom  58H    basis set group =>   3
Atom  59H    basis set group =>   3
Atom  60H    basis set group =>   3
Atom  61H    basis set group =>   3
Atom  62H    basis set group =>   3
Atom  63H    basis set group =>   3
Atom  64H    basis set group =>   3
Atom  65H    basis set group =>   3
Atom  66H    basis set group =>   3
Atom  67H    basis set group =>   3
Atom  68H    basis set group =>   3
Atom  69H    basis set group =>   3
Atom  70H    basis set group =>   3
Atom  71H    basis set group =>   3
Atom  72H    basis set group =>   3
Atom  73H    basis set group =>   3
Atom  74H    basis set group =>   3
Atom  75H    basis set group =>   3
Atom  76H    basis set group =>   3
Atom  77H    basis set group =>   3
Atom  78H    basis set group =>   3
Atom  79H    basis set group =>   3
Atom  80H    basis set group =>   3
Atom  81H    basis set group =>   3
---------------------------------
AUXILIARY/X BASIS SET INFORMATION
---------------------------------
There are 3 groups of distinct atoms

 Group   1 Type C   : 15s13p12d5f5g contracted to 15s13p12d5f5g pattern {111111111111111/1111111111111/111111111111/11111/11111}
 Group   2 Type O   : 15s13p12d5f5g contracted to 15s13p12d5f5g pattern {111111111111111/1111111111111/111111111111/11111/11111}
 Group   3 Type H   : 12s4p3d2f contracted to 12s4p3d2f pattern {111111111111/1111/111/11}

Atom   0C    basis set group =>   1
Atom   1C    basis set group =>   1
Atom   2C    basis set group =>   1
Atom   3C    basis set group =>   1
Atom   4C    basis set group =>   1
Atom   5C    basis set group =>   1
Atom   6C    basis set group =>   1
Atom   7C    basis set group =>   1
Atom   8C    basis set group =>   1
Atom   9C    basis set group =>   1
Atom  10C    basis set group =>   1
Atom  11C    basis set group =>   1
Atom  12C    basis set group =>   1
Atom  13C    basis set group =>   1
Atom  14C    basis set group =>   1
Atom  15C    basis set group =>   1
Atom  16C    basis set group =>   1
Atom  17C    basis set group =>   1
Atom  18O    basis set group =>   2
Atom  19O    basis set group =>   2
Atom  20O    basis set group =>   2
Atom  21O    basis set group =>   2
Atom  22O    basis set group =>   2
Atom  23C    basis set group =>   1
Atom  24C    basis set group =>   1
Atom  25C    basis set group =>   1
Atom  26C    basis set group =>   1
Atom  27O    basis set group =>   2
Atom  28C    basis set group =>   1
Atom  29C    basis set group =>   1
Atom  30C    basis set group =>   1
Atom  31C    basis set group =>   1
Atom  32C    basis set group =>   1
Atom  33C    basis set group =>   1
Atom  34C    basis set group =>   1
Atom  35C    basis set group =>   1
Atom  36O    basis set group =>   2
Atom  37O    basis set group =>   2
Atom  38O    basis set group =>   2
Atom  39O    basis set group =>   2
Atom  40O    basis set group =>   2
Atom  41C    basis set group =>   1
Atom  42H    basis set group =>   3
Atom  43H    basis set group =>   3
Atom  44H    basis set group =>   3
Atom  45H    basis set group =>   3
Atom  46H    basis set group =>   3
Atom  47H    basis set group =>   3
Atom  48H    basis set group =>   3
Atom  49H    basis set group =>   3
Atom  50H    basis set group =>   3
Atom  51H    basis set group =>   3
Atom  52H    basis set group =>   3
Atom  53H    basis set group =>   3
Atom  54H    basis set group =>   3
Atom  55H    basis set group =>   3
Atom  56H    basis set group =>   3
Atom  57H    basis set group =>   3
Atom  58H    basis set group =>   3
Atom  59H    basis set group =>   3
Atom  60H    basis set group =>   3
Atom  61H    basis set group =>   3
Atom  62H    basis set group =>   3
Atom  63H    basis set group =>   3
Atom  64H    basis set group =>   3
Atom  65H    basis set group =>   3
Atom  66H    basis set group =>   3
Atom  67H    basis set group =>   3
Atom  68H    basis set group =>   3
Atom  69H    basis set group =>   3
Atom  70H    basis set group =>   3
Atom  71H    basis set group =>   3
Atom  72H    basis set group =>   3
Atom  73H    basis set group =>   3
Atom  74H    basis set group =>   3
Atom  75H    basis set group =>   3
Atom  76H    basis set group =>   3
Atom  77H    basis set group =>   3
Atom  78H    basis set group =>   3
Atom  79H    basis set group =>   3
Atom  80H    basis set group =>   3
Atom  81H    basis set group =>   3
--------------------------------------------------------------------------
WARNING: There was an error initializing an OpenFabrics device.

  Local host:   c01b01n02
  Local device: mlx5_0
--------------------------------------------------------------------------
--------------------------------------------------------------------------
WARNING: There is at least one non-excluded one OpenFabrics device found,
but there are no active ports detected (or Open MPI was unable to use
them).  This is most certainly not what you wanted.  Check your
cables, subnet manager configuration, etc.  The openib BTL will be
ignored for this job.

  Local host: c01b01n02
--------------------------------------------------------------------------
[c01b01n02:1390558] 49 more processes have sent help message help-mpi-btl-openib.txt / error in device init
[c01b01n02:1390558] Set MCA parameter "orte_base_help_aggregate" to 0 to see all help / error messages
[c01b01n02:1390558] 9 more processes have sent help message help-mpi-btl-openib.txt / no active ports found


           ************************************************************
           *        Program running with 60 parallel MPI-processes    *
           *              working on a common directory               *
           ************************************************************
------------------------------------------------------------------------------
                             ORCA STARTUP CALCULATIONS
                           -- RI-GTO INTEGRALS CHOSEN --
------------------------------------------------------------------------------
------------------------------------------------------------------------------
                   ___                                                        
                  /   \      - P O W E R E D   B Y -                         
                 /     \                                                     
                 |  |  |   _    _      __       _____    __    __             
                 |  |  |  | |  | |    /  \     |  _  \  |  |  /  |          
                  \  \/   | |  | |   /    \    | | | |  |  | /  /          
                 / \  \   | |__| |  /  /\  \   | |_| |  |  |/  /          
                |  |  |   |  __  | /  /__\  \  |    /   |      \           
                |  |  |   | |  | | |   __   |  |    \   |  |\   \          
                \     /   | |  | | |  |  |  |  | |\  \  |  | \   \       
                 \___/    |_|  |_| |__|  |__|  |_| \__\ |__|  \__/        
                                                                              
                      - O R C A' S   B I G   F R I E N D -                    
                                      &                                       
                       - I N T E G R A L  F E E D E R -                       
                                                                              
 v1 FN, 2020, v2 2021, v3 2022-2024                                           
------------------------------------------------------------------------------


----------------------
SHARK INTEGRAL PACKAGE
----------------------

Number of atoms                             ...     82
Number of basis functions                   ...   2072
Number of shells                            ...    744
Maximum angular momentum                    ...      3
Integral batch strategy                     ... SHARK/LIBINT Hybrid
RI-J (if used) integral strategy            ... SPLIT-RIJ (Revised 2003 algorithm where possible)
Printlevel                                  ...      1
Contraction scheme used                     ... SEGMENTED contraction
Prescreening option                         ... SCHWARTZ
   Thresh                                   ... 1.000e-10
   Tcut                                     ... 1.000e-11
   Tpresel                                  ... 1.000e-11 
Coulomb Range Separation                    ... NOT USED
Exchange Range Separation                   ... NOT USED
Multipole approximations                    ... NOT USED
Finite Nucleus Model                        ... NOT USED
CABS basis                                  ... NOT available
Auxiliary Coulomb fitting basis             ... AVAILABLE
   # of basis functions in Aux-J            ...  10268
   # of shells in Aux-J                     ...   2940
   Maximum angular momentum in Aux-J        ...      4
Auxiliary J/K fitting basis                 ... AVAILABLE
   # of basis functions in Aux-JK           ...  10268
   # of shells in Aux-JK                    ...   2940
   Maximum angular momentum in Aux-JK       ...      4
Auxiliary Correlation fitting basis         ... AVAILABLE
   # of basis functions in Aux-C            ...  10268
   # of shells in Aux-C                     ...   2940
   Maximum angular momentum in Aux-C        ...      4
Auxiliary 'external' fitting basis          ... NOT available

Checking pre-screening integrals            ... done (  0.0 sec) Dimension = 744
   => SHARK Basis and OBASIS are compatible. Storing Pre-screening
Shell pair information
Shell pair cut-off parameter TPreSel        ...   1.0e-11
Total number of shell pairs                 ...    277140
Shell pairs after pre-screening             ...    149364
Total number of primitive shell pairs       ...    823733
Primitive shell pairs kept                  ...    273469
          la=0 lb=0:  28448 shell pairs
          la=1 lb=0:  49663 shell pairs
          la=1 lb=1:  20287 shell pairs
          la=2 lb=0:  19568 shell pairs
          la=2 lb=1:  14827 shell pairs
          la=2 lb=2:   2635 shell pairs
          la=3 lb=0:   6748 shell pairs
          la=3 lb=1:   5068 shell pairs
          la=3 lb=2:   1782 shell pairs
          la=3 lb=3:    338 shell pairs

Checking whether 4 symmetric matrices of dimension 2072 fit in memory
:Max Core in MB      =   5000.00
 MB in use           =    184.55
 MB left             =   4815.45
 MB needed           =     65.54
 Data fit in memory  = YES
Calculating RI/J V-Matrix + Cholesky decomp.... done (  8.3 sec)
Calculating RI/JK V-Matrix + Cholesky decomp.... done (  4.1 sec)
Calculating RI/C V-Matrix + Cholesky decomp.... done (  4.9 sec)
Calculating Nuclear repulsion               ... done (  0.0 sec) ENN=   5679.329863700807 Eh

Diagonalization of the overlap matrix:
Smallest eigenvalue                        ... 7.510e-06
Time for diagonalization                   ...   13.784 sec
Threshold for overlap eigenvalues          ... 1.000e-07
Number of eigenvalues below threshold      ... 0
Time for construction of square roots      ...    1.570 sec
Total time needed                          ...   15.747 sec

-------------------
DFT GRID GENERATION
-------------------

General Integration Accuracy     IntAcc      ... 4.388
Radial Grid Type                 RadialGrid  ... OptM3 with GC (2021)
Angular Grid (max. ang.)         AngularGrid ... 4 (Lebedev-302)
Angular grid pruning method      GridPruning ... 4 (adaptive)
Weight generation scheme         WeightScheme... mBecke (2022)
Basis function cutoff            BFCut       ... 1.0000e-10
Integration weight cutoff        WCut        ... 1.0000e-14
Partially contracted basis set               ... off
Rotationally invariant grid construction     ... off
Angular grids for H and He will be reduced by one unit
Diffuse basis detected: some atoms will have their outermost
                        angular grid increased by 1.

Total number of grid points                  ...   377006
Total number of batches                      ...     5936
Average number of points per batch           ...       63
Average number of grid points per atom       ...     4598
Grids setup in   7.6 sec
Initializing property integral containers    ... done (  0.1 sec)

SHARK setup successfully completed in  62.5 seconds

Maximum memory used throughout the entire STARTUP-calculation: 256.5 MB
--------------------------------------------------------------------------
WARNING: There was an error initializing an OpenFabrics device.

  Local host:   c01b01n02
  Local device: mlx5_0
--------------------------------------------------------------------------
--------------------------------------------------------------------------
WARNING: There is at least one non-excluded one OpenFabrics device found,
but there are no active ports detected (or Open MPI was unable to use
them).  This is most certainly not what you wanted.  Check your
cables, subnet manager configuration, etc.  The openib BTL will be
ignored for this job.

  Local host: c01b01n02
--------------------------------------------------------------------------


           ************************************************************
           *        Program running with 60 parallel MPI-processes    *
           *              working on a common directory               *
           ************************************************************
-------------------------------------------------------------------------------
                                 ORCA GUESS
                   Start orbitals & Density for SCF / CASSCF
-------------------------------------------------------------------------------

------------
SCF SETTINGS
------------
Hamiltonian:
 Density Functional     Method          .... DFT(GTOs)
 Exchange Functional    Exchange        .... TPSS
 Correlation Functional Correlation     .... TPSS
 LDA part of GGA corr.  LDAOpt          .... PW91-LDA
 Gradients option       PostSCFGGA      .... off
   NL short-range parameter             ....  5.000000
 RI-approximation to the Coulomb term is turned on
   Number of AuxJ basis functions       .... 10268


General Settings:
 Integral files         IntName         .... nmr-conf-0
 Hartree-Fock type      HFTyp           .... RHF
 Total Charge           Charge          ....    0
 Multiplicity           Mult            ....    1
 Number of Electrons    NEL             ....  314
 Basis Dimension        Dim             .... 2072
 Nuclear Repulsion      ENuc            ....   5679.3298637008 Eh

Convergence Acceleration:
 AO-DIIS                CNVDIIS         .... on
   Start iteration      DIISMaxIt       ....    12
   Startup error        DIISStart       ....  0.200000
   # of expansion vecs  DIISMaxEq       ....     5
   Bias factor          DIISBfac        ....   1.050
   Max. coefficient     DIISMaxC        ....  10.000
 MO-DIIS                CNVKDIIS        .... off
 Trust-Rad. Augm. Hess. CNVTRAH         .... auto
   Auto Start mean grad. ratio tolernc. ....  1.125000
   Auto Start start iteration           ....    50
   Auto Start num. interpolation iter.  ....    10
   Max. Number of Micro iterations      ....    24
   Max. Number of Macro iterations      .... Maxiter - #DIIS iter
   Number of Davidson start vectors     ....     2
   Converg. threshold    (grad. norm)   ....   5.000e-05
   Grad. Scal. Fac. for Micro threshold ....   0.100
   Minimum threshold for Micro iter.    ....   1.000e-02
   NR start threshold (gradient norm)   ....   1.000e-04
   Initial trust radius                 ....   0.400
   Minimum AH scaling param. (alpha)    ....   1.000
   Maximum AH scaling param. (alpha)    .... 1000.000
   Quad. conv. algorithm                .... NR
   White noise on init. David. guess    .... on
   Maximum white noise                  ....   0.010
   Pseudo random numbers                .... off
   Inactive MOs                         .... canonical
   Orbital update algorithm             .... Taylor
   Preconditioner                       .... Diag
   Full preconditioner red. dimension   ....   250
 SOSCF                 CNVSOSCF           .... on
   Start iteration     SOSCFMaxIt         ....   150
   Startup grad/error  SOSCFStart         ....  0.003300
   Hessian update      SOSCFHessUp        .... L-BFGS
   Autom. constraints  SOSCFAutoConstrain .... off
 Level Shifting         CNVShift        .... on
   Level shift para.    LevelShift      ....    0.2500
   Turn off err/grad.   ShiftErr        ....    0.0010
 Zerner damping         CNVZerner       .... off
 Static damping         CNVDamp         .... on
   Fraction old density DampFac         ....    0.7000
   Max. Damping (<1)    DampMax         ....    0.9800
   Min. Damping (>=0)   DampMin         ....    0.0000
   Turn off err/grad.   DampErr         ....    0.1000

SCF Procedure:
 Maximum # iterations   MaxIter         ....   125
 SCF integral mode      SCFMode         .... Direct
   Integral package                     .... SHARK and LIBINT hybrid scheme
 Reset frequency        DirectResetFreq ....    20
 Integral Threshold     Thresh          ....  1.000e-10 Eh
 Primitive CutOff       TCut            ....  1.000e-11 Eh

Convergence Tolerance:
 Convergence Check Mode ConvCheckMode   .... Total+1el-Energy
 Convergence forced     ConvForced      .... 0
 Energy Change          TolE            ....  1.000e-06 Eh
 1-El. energy change                    ....  1.000e-03 Eh
 Orbital Gradient       TolG            ....  5.000e-05
 Orbital Rotation angle TolX            ....  5.000e-05
 DIIS Error             TolErr          ....  1.000e-06

------------------------------
INITIAL GUESS: MODEL POTENTIAL
------------------------------
Loading Hartree-Fock densities                     ... done
Calculating cut-offs                               ... done
Initializing the effective Hamiltonian             ... done
Setting up the integral package (SHARK)            ... done
Starting the Coulomb interaction                   ... done (   1.2 sec)
Making the grid                                    ... done (   0.5 sec)
Mapping shells                                     ... done
Starting the XC term evaluation                    ... done (   0.1 sec)
  promolecular density results
     # of electrons  =    313.972911553
     EX              =   -260.292067558
     EC              =    -10.636361530
     EX+EC           =   -270.928429088
Transforming the Hamiltonian                       ... [c01b01n02:1391194] 48 more processes have sent help message help-mpi-btl-openib.txt / error in device init
[c01b01n02:1391194] Set MCA parameter "orte_base_help_aggregate" to 0 to see all help / error messages
[c01b01n02:1391194] 10 more processes have sent help message help-mpi-btl-openib.txt / no active ports found
done (   0.3 sec)
Diagonalizing the Hamiltonian                      ... done (   0.6 sec)
Back transforming the eigenvectors                 ... done (   0.2 sec)
Now organizing SCF variables                       ... done
                      ------------------
                      INITIAL GUESS DONE (   3.6 sec)
                      ------------------
             **** ENERGY FILE WAS UPDATED (nmr-conf-0.en.tmp) ****
Finished Guess after   7.7 sec
Maximum memory used throughout the entire GUESS-calculation: 287.4 MB
--------------------------------------------------------------------------
WARNING: There is at least one non-excluded one OpenFabrics device found,
but there are no active ports detected (or Open MPI was unable to use
them).  This is most certainly not what you wanted.  Check your
cables, subnet manager configuration, etc.  The openib BTL will be
ignored for this job.

  Local host: c01b01n02
--------------------------------------------------------------------------
--------------------------------------------------------------------------
WARNING: There was an error initializing an OpenFabrics device.

  Local host:   c01b01n02
  Local device: mlx5_0
--------------------------------------------------------------------------


           ************************************************************
           *        Program running with 60 parallel MPI-processes    *
           *              working on a common directory               *
           ************************************************************

-------------------------------------------------------------------------------------------
                                      ORCA LEAN-SCF
                              memory conserving SCF solver
-------------------------------------------------------------------------------------------

--------------------
CPCM SOLVATION MODEL
--------------------
CPCM parameters:
  Epsilon                                         ...      33.4280
  Refrac                                          ...       1.3288
  Rsolv                                           ...       1.3000
  Surface type                                    ... GAUSSIAN VDW
  Discretization scheme                           ... Constant charge density
    Threshold for H atoms                         ...       5.0000 (charges/Ang^2)
    Threshold for non-H atoms                     ...       5.0000 (charges/Ang^2)
  Epsilon function type                           ...         CPCM
Solvent:                                          ... METHANOL
Radii:
  Scheme                                          ... Element-dependent radii
  Radius for C  used is    3.8550 Bohr (=   2.0400 Ang.)
  Radius for O  used is    3.4469 Bohr (=   1.8240 Ang.)
  Radius for H  used is    2.4944 Bohr (=   1.3200 Ang.)
Calculating surface                               ...        done! (  0.0s)
Cavity surface points                             ...         6250
Cavity Volume                                     ...    4569.7511
Cavity Surface-area                               ...    2109.8316
Calculating surface distance matrix               ...        done! (  0.2s)
Performing Cholesky decomposition & store         ...        done! (  0.7s)
Overall time for CPCM initialization              ...                 0.9s

----------------------------------------D-I-I-S--------------------------------------------
Iteration    Energy (Eh)           Delta-E    RMSDP     MaxDP     DIISErr   Damp  Time(sec)
-------------------------------------------------------------------------------------------
               ***  Starting incremental Fock matrix formation  ***
[c01b01n02:1391645] 3 more processes have sent help message help-mpi-btl-openib.txt / no active ports found
[c01b01n02:1391645] Set MCA parameter "orte_base_help_aggregate" to 0 to see all help / error messages
[c01b01n02:1391645] 55 more processes have sent help message help-mpi-btl-openib.txt / error in device init
    1    -2033.0225492076715454     0.00e+00  7.86e-03  2.38e-01  2.37e-01  0.700  12.1
    2    -2033.4307820415297101    -4.08e-01  6.44e-03  1.89e-01  8.25e-02  0.700  10.0
                               ***Turning on AO-DIIS***
    3    -2033.5834922863505199    -1.53e-01  2.76e-03  6.28e-02  2.49e-02  0.700   8.0
    4    -2033.6757011308309302    -9.22e-02  4.64e-03  7.61e-02  1.18e-02  0.000   7.1
    5    -2033.8798279765424013    -2.04e-01  1.20e-03  2.61e-02  4.62e-03  0.000   7.1
                              *** Initializing SOSCF ***
---------------------------------------S-O-S-C-F--------------------------------------
Iteration    Energy (Eh)           Delta-E    RMSDP     MaxDP     MaxGrad    Time(sec)
--------------------------------------------------------------------------------------
    6    -2033.8812087648539091    -1.38e-03  3.88e-04  9.13e-03  1.26e-03     8.2
               *** Restarting incremental Fock matrix formation ***
    7    -2033.8813129573472906    -1.04e-04  3.00e-04  5.66e-03  1.37e-04     7.8
    8    -2033.8812895558321543     2.34e-05  6.98e-05  1.68e-03  6.99e-04     5.9
    9    -2033.8813292553932115    -3.97e-05  6.22e-05  9.94e-04  1.22e-04     5.7
   10    -2033.8813288959327110     3.59e-07  2.10e-05  5.61e-04  1.09e-04     5.4
                 **** Energy Check signals convergence ****

               *****************************************************
               *                     SUCCESS                       *
               *           SCF CONVERGED AFTER  10 CYCLES          *
               *****************************************************

             **** ENERGY FILE WAS UPDATED (nmr-conf-0.en.tmp) ****

----------------
TOTAL SCF ENERGY
----------------

Total Energy       :      -2033.88133008456771 Eh          -55344.72466 eV

Components:
Nuclear Repulsion  :       5679.32986370080744 Eh          154542.42238 eV
Electronic Energy  :      -7713.16693614224641 Eh         -209885.94273 eV
One Electron Energy:     -14086.76418729966645 Eh         -383320.34117 eV
Two Electron Energy:       6373.59725115742003 Eh          173434.39844 eV
CPCM Dielectric    :         -0.04425764312832 Eh              -1.20431 eV

Virial components:
Potential Energy   :      -4061.11776245631427 Eh         -110508.63247 eV
Kinetic Energy     :       2027.23643237174656 Eh           55163.90780 eV
Virial Ratio       :          2.00327781091870

DFT components:
N(Alpha)           :      157.000444964978 electrons
N(Beta)            :      157.000444964978 electrons
N(Total)           :      314.000889929957 electrons
E(X)               :     -268.092392192368 Eh       
E(C)               :      -10.603017727024 Eh       
E(XC)              :     -278.695409919392 Eh       

CPCM Solvation Model Properties:
Surface-charge          :         -0.04276773084039
Corrected charge        :          0.00000000000000
Outlying charge corr.   :          0.00007859431749 Eh               0.00214 eV
Free-energy (cav+disp)  :  This term is not implemented in the current solvation scheme

---------------
SCF CONVERGENCE
---------------

  Last Energy change         ...   -3.5946e-07  Tolerance :   1.0000e-06
  Last MAX-Density change    ...    5.6129e-04  Tolerance :   1.0000e-05
  Last RMS-Density change    ...    2.0953e-05  Tolerance :   1.0000e-06
  Last DIIS Error            ...    1.2619e-03  Tolerance :   1.0000e-06
  Last Orbital Gradient      ...    1.0874e-04  Tolerance :   5.0000e-05
  Last Orbital Rotation      ...    2.2168e-04  Tolerance :   5.0000e-05


----------------
ORBITAL ENERGIES
----------------

  NO   OCC          E(Eh)            E(eV) 
   0   2.0000     -18.919188      -514.8173 
   1   2.0000     -18.918638      -514.8023 
   2   2.0000     -18.918326      -514.7938 
   3   2.0000     -18.916859      -514.7539 
   4   2.0000     -18.913094      -514.6515 
   5   2.0000     -18.909285      -514.5478 
   6   2.0000     -18.904033      -514.4049 
   7   2.0000     -18.879553      -513.7388 
   8   2.0000     -18.877530      -513.6837 
   9   2.0000     -18.877514      -513.6833 
  10   2.0000     -18.867117      -513.4003 
  11   2.0000     -10.046264      -273.3727 
  12   2.0000     -10.045125      -273.3417 
  13   2.0000     -10.045009      -273.3386 
  14   2.0000     -10.044748      -273.3315 
  15   2.0000     -10.044579      -273.3269 
  16   2.0000     -10.043906      -273.3086 
  17   2.0000     -10.041364      -273.2394 
  18   2.0000     -10.041197      -273.2349 
  19   2.0000     -10.036527      -273.1078 
  20   2.0000     -10.035056      -273.0678 
  21   2.0000     -10.033874      -273.0356 
  22   2.0000     -10.033476      -273.0248 
  23   2.0000     -10.032371      -272.9947 
  24   2.0000     -10.030313      -272.9387 
  25   2.0000     -10.024594      -272.7831 
  26   2.0000     -10.016336      -272.5583 
  27   2.0000      -9.993111      -271.9264 
  28   2.0000      -9.991438      -271.8808 
  29   2.0000      -9.987159      -271.7644 
  30   2.0000      -9.986125      -271.7363 
  31   2.0000      -9.983846      -271.6743 
  32   2.0000      -9.983149      -271.6553 
  33   2.0000      -9.983122      -271.6546 
  34   2.0000      -9.983046      -271.6525 
  35   2.0000      -9.983003      -271.6513 
  36   2.0000      -9.982915      -271.6489 
  37   2.0000      -9.982248      -271.6308 
  38   2.0000      -9.981777      -271.6180 
  39   2.0000      -9.978808      -271.5372 
  40   2.0000      -9.977791      -271.5095 
  41   2.0000      -9.977368      -271.4980 
  42   2.0000      -1.013734       -27.5851 
  43   2.0000      -1.012196       -27.5433 
  44   2.0000      -1.011156       -27.5150 
  45   2.0000      -1.000901       -27.2359 
  46   2.0000      -0.988123       -26.8882 
  47   2.0000      -0.984544       -26.7908 
  48   2.0000      -0.983289       -26.7566 
  49   2.0000      -0.954354       -25.9693 
  50   2.0000      -0.950105       -25.8537 
  51   2.0000      -0.949421       -25.8351 
  52   2.0000      -0.939432       -25.5633 
  53   2.0000      -0.798180       -21.7196 
  54   2.0000      -0.796541       -21.6750 
  55   2.0000      -0.795091       -21.6355 
  56   2.0000      -0.759086       -20.6558 
  57   2.0000      -0.734146       -19.9771 
  58   2.0000      -0.718743       -19.5580 
  59   2.0000      -0.702408       -19.1135 
  60   2.0000      -0.700298       -19.0561 
  61   2.0000      -0.698308       -19.0019 
  62   2.0000      -0.696096       -18.9417 
  63   2.0000      -0.688322       -18.7302 
  64   2.0000      -0.671112       -18.2619 
  65   2.0000      -0.652248       -17.7486 
  66   2.0000      -0.648980       -17.6597 
  67   2.0000      -0.648416       -17.6443 
  68   2.0000      -0.640279       -17.4229 
  69   2.0000      -0.619189       -16.8490 
  70   2.0000      -0.615093       -16.7375 
  71   2.0000      -0.613511       -16.6945 
  72   2.0000      -0.577510       -15.7148 
  73   2.0000      -0.568271       -15.4634 
  74   2.0000      -0.561210       -15.2713 
  75   2.0000      -0.557883       -15.1808 
  76   2.0000      -0.548769       -14.9328 
  77   2.0000      -0.544780       -14.8242 
  78   2.0000      -0.541517       -14.7354 
  79   2.0000      -0.535029       -14.5589 
  80   2.0000      -0.512453       -13.9445 
  81   2.0000      -0.512105       -13.9351 
  82   2.0000      -0.504474       -13.7274 
  83   2.0000      -0.495435       -13.4815 
  84   2.0000      -0.482878       -13.1398 
  85   2.0000      -0.477647       -12.9974 
  86   2.0000      -0.476967       -12.9789 
  87   2.0000      -0.473175       -12.8758 
  88   2.0000      -0.463345       -12.6083 
  89   2.0000      -0.456524       -12.4227 
  90   2.0000      -0.453787       -12.3482 
  91   2.0000      -0.449091       -12.2204 
  92   2.0000      -0.442557       -12.0426 
  93   2.0000      -0.442157       -12.0317 
  94   2.0000      -0.434191       -11.8149 
  95   2.0000      -0.431868       -11.7517 
  96   2.0000      -0.428458       -11.6589 
  97   2.0000      -0.427343       -11.6286 
  98   2.0000      -0.424625       -11.5546 
  99   2.0000      -0.421291       -11.4639 
 100   2.0000      -0.420126       -11.4322 
 101   2.0000      -0.414883       -11.2895 
 102   2.0000      -0.408934       -11.1276 
 103   2.0000      -0.403471       -10.9790 
 104   2.0000      -0.401240       -10.9183 
 105   2.0000      -0.400041       -10.8857 
 106   2.0000      -0.398507       -10.8439 
 107   2.0000      -0.389538       -10.5999 
 108   2.0000      -0.388470       -10.5708 
 109   2.0000      -0.384637       -10.4665 
 110   2.0000      -0.383126       -10.4254 
 111   2.0000      -0.379684       -10.3317 
 112   2.0000      -0.376482       -10.2446 
 113   2.0000      -0.375581       -10.2201 
 114   2.0000      -0.374247       -10.1838 
 115   2.0000      -0.370905       -10.0928 
 116   2.0000      -0.370356       -10.0779 
 117   2.0000      -0.368326       -10.0227 
[...]
 
 sDSO            99.722           65.884           47.446  iso=      71.017
 sPSO           -76.356          -39.928          -13.654  iso=     -43.313
        ---------------  ---------------  ---------------
 Total           23.365           25.956           33.792  iso=      27.704

 Orientation: 
  X          -0.0042421    0.2130558   -0.9770308
  Y          -0.5900741    0.7882749    0.1744569
  Z           0.8073380    0.5772606    0.1223748

 --------------
 Nucleus  73H :
 --------------

Diamagnetic contribution to the shielding tensor (ppm) : 
            17.978         10.428        -5.600
           -13.401         53.871        -7.232
            34.105        -42.048        79.369

Paramagnetic contribution to the shielding tensor (ppm): 
             8.528         -8.227         3.536
            14.410        -24.120         5.863
           -37.805         40.098       -52.169

Total shielding tensor (ppm): 
            26.506          2.201        -2.064
             1.009         29.751        -1.369
            -3.700         -1.950        27.199


 Diagonalized sT*s matrix:
 
 sDSO            60.194           28.587           62.437  iso=      50.406
 sPSO           -36.245           -1.139          -30.378  iso=     -22.587
        ---------------  ---------------  ---------------
 Total           23.949           27.448           32.060  iso=      27.819

 Orientation: 
  X           0.7433259    0.4684491    0.4775165
  Y          -0.0165895   -0.7007226    0.7132409
  Z           0.6687237   -0.5380922   -0.5130940

 --------------
 Nucleus  74H :
 --------------

Diamagnetic contribution to the shielding tensor (ppm) : 
            35.753          7.284        -3.539
             6.417         36.070         7.784
            28.481        -29.813        89.970

Paramagnetic contribution to the shielding tensor (ppm): 
            -8.540         -7.883        -1.357
            -5.985        -10.987        -5.980
           -32.088         33.011       -60.064

Total shielding tensor (ppm): 
            27.213         -0.599        -4.897
             0.432         25.083         1.804
            -3.607          3.198        29.906


 Diagonalized sT*s matrix:
 
 sDSO            63.401           44.502           53.889  iso=      53.931
 sPSO           -40.460          -18.777          -20.354  iso=     -26.530
        ---------------  ---------------  ---------------
 Total           22.941           25.725           33.535  iso=      27.400

 Orientation: 
  X          -0.5434256    0.6490696   -0.5323507
  Y           0.6267347    0.7355959    0.2571035
  Z          -0.5584731    0.1939260    0.8065361

 --------------
 Nucleus  75H :
 --------------

Diamagnetic contribution to the shielding tensor (ppm) : 
            35.521        -13.342        -7.118
            -7.763         18.629       -16.920
           -31.046         -4.556        10.539

Paramagnetic contribution to the shielding tensor (ppm): 
            -9.829         11.794        16.479
             6.316          4.957        11.208
            39.528         -0.548        22.798

Total shielding tensor (ppm): 
            25.692         -1.548         9.361
            -1.447         23.587        -5.712
             8.482         -5.104        33.336


 Diagonalized sT*s matrix:
 
 sDSO            39.098           15.436           10.155  iso=      21.563
 sPSO           -20.197            7.397           30.725  iso=       5.975
        ---------------  ---------------  ---------------
 Total           18.901           22.833           40.880  iso=      27.538

 Orientation: 
  X          -0.6701332    0.5495186    0.4989497
  Y           0.4660222    0.8347096   -0.2933993
  Z           0.5777064   -0.0359050    0.8154545

 --------------
 Nucleus  76H :
 --------------

Diamagnetic contribution to the shielding tensor (ppm) : 
            30.644          0.933         7.404
            -1.352         40.641         9.693
            44.357        -38.058        91.317

Paramagnetic contribution to the shielding tensor (ppm): 
             1.751          9.218        -1.801
            13.532        -10.412        -3.268
           -38.782         45.254       -67.259

Total shielding tensor (ppm): 
            32.395         10.150         5.603
            12.180         30.230         6.425
             5.574          7.196        24.059


 Diagonalized sT*s matrix:
 
 sDSO            80.771           32.816           49.016  iso=      54.201
 sPSO           -61.650          -11.251           -3.018  iso=     -25.306
        ---------------  ---------------  ---------------
 Total           19.121           21.565           45.997  iso=      28.894

 Orientation: 
  X           0.3434024    0.6425474    0.6849874
  Y          -0.7225525   -0.2851860    0.6297514
  Z           0.5999939   -0.7111974    0.3663407

 --------------
 Nucleus  77H :
 --------------

Diamagnetic contribution to the shielding tensor (ppm) : 
             4.094         44.768        -8.471
           -18.277         60.551        -1.005
            -3.183        -13.864        75.983

Paramagnetic contribution to the shielding tensor (ppm): 
            25.976        -43.264         0.596
            20.590        -33.702         1.358
            -4.491         16.024       -41.352

Total shielding tensor (ppm): 
            30.069          1.504        -7.875
             2.313         26.848         0.353
            -7.674          2.160        34.631


 Diagonalized sT*s matrix:
 
 sDSO            28.148           56.851           55.628  iso=      46.876
 sPSO            -5.225          -28.677          -15.177  iso=     -16.359
        ---------------  ---------------  ---------------
 Total           22.924           28.174           40.451  iso=      30.516

 Orientation: 
  X          -0.6929429    0.4005285   -0.5995057
  Y           0.4978770    0.8672388    0.0039258
  Z          -0.5214870    0.2957597    0.8003609

 --------------
 Nucleus  78H :
 --------------

Diamagnetic contribution to the shielding tensor (ppm) : 
            29.553        -11.763        10.216
            -8.104         49.141        10.390
            52.729        -30.584        86.607

Paramagnetic contribution to the shielding tensor (ppm): 
            -3.682          9.921       -10.955
             7.724        -13.426       -15.255
           -54.577         28.419       -68.990

Total shielding tensor (ppm): 
            25.871         -1.841        -0.739
            -0.380         35.714        -4.864
            -1.847         -2.165        17.617


 Diagonalized sT*s matrix:
 
 sDSO            88.148           20.331           56.823  iso=      55.100
 sPSO           -71.417            5.712          -20.393  iso=     -28.699
        ---------------  ---------------  ---------------
 Total           16.731           26.043           36.429  iso=      26.401

 Orientation: 
  X           0.1533674    0.9857224   -0.0694973
  Y           0.2113294    0.0359844    0.9767523
  Z           0.9653074   -0.1644888   -0.2027933

 --------------
 Nucleus  79H :
 --------------

Diamagnetic contribution to the shielding tensor (ppm) : 
            57.328        -25.090        16.680
            26.064         20.706        18.895
            26.217        -19.205        61.986

Paramagnetic contribution to the shielding tensor (ppm): 
           -28.923         26.542       -16.491
           -27.913         10.035       -19.078
           -25.050         19.541       -40.299

Total shielding tensor (ppm): 
            28.405          1.452         0.189
            -1.849         30.741        -0.183
             1.167          0.336        21.687


 Diagonalized sT*s matrix:
 
 sDSO            58.099           60.857           21.065  iso=      46.674
 sPSO           -36.480          -32.398            9.691  iso=     -19.729
        ---------------  ---------------  ---------------
 Total           21.619           28.458           30.756  iso=      26.945

 Orientation: 
  X          -0.0901226    0.9897471   -0.1108090
  Y          -0.0068589    0.1106423    0.9938366
  Z           0.9959071    0.0903272   -0.0031828

 --------------
 Nucleus  80H :
 --------------

Diamagnetic contribution to the shielding tensor (ppm) : 
            52.901        -25.042        20.898
            20.341         -1.785        13.388
            53.399        -36.002        24.515

Paramagnetic contribution to the shielding tensor (ppm): 
           -21.462         27.435       -17.902
           -16.741         29.407       -11.413
           -50.500         39.341         0.730

Total shielding tensor (ppm): 
            31.438          2.392         2.996
             3.600         27.623         1.975
             2.899          3.339        25.245


 Diagonalized sT*s matrix:
 
 sDSO            17.850            4.910           52.871  iso=      25.210
 sPSO             5.537           21.330          -18.192  iso=       2.892
        ---------------  ---------------  ---------------
 Total           23.387           26.240           34.679  iso=      28.102

 Orientation: 
  X          -0.1649234   -0.5843274   -0.7945827
  Y          -0.4276878    0.7683020   -0.4762301
  Z           0.8887538    0.2612919   -0.3766207

 --------------
 Nucleus  81H :
 --------------

Diamagnetic contribution to the shielding tensor (ppm) : 
            51.911        -22.404        10.314
            17.933         11.613        14.696
            -7.095         -3.979        47.797

Paramagnetic contribution to the shielding tensor (ppm): 
           -23.486         22.830       -13.771
           -16.763         15.405       -15.923
             5.016          3.915       -20.292

Total shielding tensor (ppm): 
            28.425          0.426        -3.457
             1.169         27.018        -1.227
            -2.079         -0.065        27.505


 Diagonalized sT*s matrix:
 
 sDSO            51.089           16.144           44.088  iso=      37.107
 sPSO           -25.930           10.613          -13.056  iso=      -9.458
        ---------------  ---------------  ---------------
 Total           25.159           26.757           31.032  iso=      27.650

 Orientation: 
  X           0.6584989    0.1683591   -0.7335083
  Y          -0.0152226   -0.9714769   -0.2366450
  Z           0.7524277   -0.1669964    0.6371536



--------------------------------
CHEMICAL SHIELDING SUMMARY (ppm)
--------------------------------


  Nucleus  Element    Isotropic     Anisotropy
  -------  -------  ------------   ------------
      0       C           24.899        123.370 
      1       C           44.108         92.186 
      2       C           25.647        119.260 
      3       C           74.808        126.411 
      4       C           38.159        195.142 
      5       C           77.702        133.791 
      6       C          147.103         32.975 
      7       C          132.948         18.779 
      8       C          138.118         27.215 
      9       C          143.589         35.625 
     10       C           44.589        182.244 
     11       C           70.680        153.768 
     12       C           29.984        117.905 
     13       C           31.883        122.946 
     14       C           67.337        143.633 
     15       C           56.617        147.459 
     16       C          112.579         62.658 
     17       C          108.005         71.975 
     23       C           93.311         37.098 
     24       C          103.790         38.698 
     25       C           42.619        168.154 
     26       C          111.115         58.258 
     28       C           73.255        163.666 
     29       C           31.282        117.157 
     30       C           34.631        117.196 
     31       C           68.129        145.753 
     32       C           63.628        167.665 
     33       C          124.019         74.818 
     34       C          124.394         79.478 
     35       C          123.974         78.106 
     41       C          124.654         77.151 
     42       H           25.405         10.033 
     43       H           25.839          9.252 
     44       H           29.652          6.720 
     45       H           28.958          4.386 
     46       H           30.758          4.949 
     47       H           28.776          4.072 
     48       H           29.325          4.125 
     49       H           29.005          8.208 
     50       H           24.586         10.198 
     51       H           24.710          3.206 
     52       H           24.707          5.533 
     53       H           28.099          7.641 
     54       H           27.970          4.668 
     55       H           27.619          6.323 
     56       H           27.968          4.093 
     57       H           25.307         13.416 
     58       H           26.469          2.112 
     59       H           27.006          5.849 
     60       H           27.877          5.483 
     61       H           27.397          6.666 
     62       H           29.271         13.916 
     63       H           24.422         11.650 
     64       H           25.310          4.999 
     65       H           25.248          5.897 
     66       H           28.067          8.617 
     67       H           28.274          8.274 
     68       H           27.536          7.655 
     69       H           27.945          9.610 
     70       H           27.494          9.374 
     71       H           27.875          7.524 
     72       H           27.704          9.131 
     73       H           27.819          6.361 
     74       H           27.400          9.202 
     75       H           27.538         20.013 
     76       H           28.894         25.654 
     77       H           30.516         14.902 
     78       H           26.401         15.042 
     79       H           26.945          5.717 
     80       H           28.102          9.865 
     81       H           27.650          5.074 


NMR shielding tensor and spin rotation calculation done in   2.8 sec 

Maximum memory used throughout the entire PROP-calculation: 365.5 MB
--------------------------------------------------------------------------
WARNING: There is at least one non-excluded one OpenFabrics device found,
but there are no active ports detected (or Open MPI was unable to use
them).  This is most certainly not what you wanted.  Check your
cables, subnet manager configuration, etc.  The openib BTL will be
ignored for this job.

  Local host: c01b01n02
--------------------------------------------------------------------------
--------------------------------------------------------------------------
WARNING: There was an error initializing an OpenFabrics device.

  Local host:   c01b01n02
  Local device: mlx5_0
--------------------------------------------------------------------------
[c01b01n02:1393318] 7 more processes have sent help message help-mpi-btl-openib.txt / no active ports found
[c01b01n02:1393318] Set MCA parameter "orte_base_help_aggregate" to 0 to see all help / error messages
[c01b01n02:1393318] 51 more processes have sent help message help-mpi-btl-openib.txt / error in device init

--------------------------------
SUGGESTED CITATIONS FOR THIS RUN
--------------------------------

Below you find a list of papers that are relevant to this ORCA run
We neither can nor want to force you to cite these papers, but we appreciate if you do
You receive ORCA, which is the product of decades of hard work by many enthusiastic individuals, for free
The only thing we kindly ask in return is that you cite our papers,
We deeply appreciate it, if you show your appreciation for ORCA by not just citing the generic ORCA reference.

Please note that relegating all ORCA citations to the supporting information does *not* help us.
SI sections are not indexed - citations you put there will not count into any citation statistics
But we need these citations in order to attract the funding resources that allow us to do what we are doing

Therefore, if you are a happy ORCA user, please consider citing a few of the papers listed below in the main body of your paper

In addition to the list printed below, the program has created the file nmr-conf-0.bibtex that contains the list in bibtex format
You can import this file easily into all common literature databanks and citation aid programs


List of essential papers. We consider these as the minimum necessary citations

  1. Neese, F.
     Software update: the ORCA program system, version 6.0
     WIRES Comput. Molec. Sci. 2025 15(1), e70019
     doi.org/10.1002/wcms.7019

List of papers to cite with high priority. The work reported in these papers was absolutely
necessary for this run to complete.
Our perspective: the developers of density functionals and basis sets usually get cited in chemistry papers
Good! But without the algorithms to do something with them, the functionals or basis sets would not do anything.
Hence, in our opinion, the algorithm design and method developments papers are equally worthy of getting cited

  1. Neese, F.
     An improvement of the resolution of the identity approximation for the formation of the Coulomb matrix
     J. Comp. Chem. 2003 24(14), 1740-1747
     doi.org/10.1002/jcc.10318
  2. Stoychev, G.L.; Auer, A.A.; Neese, F.
     Automatic Generation of Auxiliary Basis Sets
     J. Theo. Comp. Chem. 2017 13 , 554-562
     doi.org/10.1021/acs.jctc.6b01041
  3. Stoychev, G.L.; Auer, A.A.; Izsak, R.; Neese, F.
     Self-Consistent Field Calculation of Nuclear Magnetic Resonance Chemical Shielding Constants Using Gauge-Including Atomic Orbitals and Approximate Two-Electron Integrals
     J. Chem. Theory Comput. 2018 14(2), 619-637
     doi.org/10.1021/acs.jctc.7b01006
  4. Garcia-Rates, M.; Neese, F.
     Effect of the Solute Cavity on the Solvation Energy and its Derivatives within the Framework of the Gaussian Charge Scheme
     J. Comput. Chem. 2020 41 , 922-939
     doi.org/10.1002/jcc.26139
  5. Neese, F.
     The SHARK Integral Generation and Digestion System
     J. Comp. Chem. 2022 44(3), 381
     doi.org/10.1002/jcc.26942

List of suggested additional citations. These are papers that are important in the 'surrounding' of 
of this run, or papers that preceded the highly important papers. If you like your results we are grateful for a citation.

  1. Neese, F.
     The ORCA program system
     WIRES Comput. Molec. Sci. 2012 2(1), 73-78
     doi.org/10.1002/wcms.81
  2. Neese, F.
     Software update: the ORCA program system, version 4.0
     WIRES Comput. Molec. Sci. 2018 8(1), 1-6
     doi.org/10.1002/wcms.1327
  3. Neese, F.; Wennmohs, F.; Becker, U.; Riplinger, C.
     The ORCA quantum chemistry program package
     J. Chem. Phys. 2020 152(22), 224108
     doi.org/10.1063/5.0004608
  4. Neese, F.
     Software update: The ORCA program system—Version 5.0
     WIRES Comput. Molec. Sci. 2022 12(1), e1606
     doi.org/10.1002/wcms.1606

List of optional additional citations

  1. Neese, F.
     Approximate second-order SCF convergence for spin unrestricted wavefunctions
     Chem. Phys. Lett. 2000 325(1-3), 93-98
     doi.org/10.1016/s0009-2614(00)00662-x

Timings for individual modules:

Sum of individual times          ...      253.018 sec (=   4.217 min)
Startup calculation              ...       80.054 sec (=   1.334 min)  31.6 %
SCF iterations                   ...      100.539 sec (=   1.676 min)  39.7 %
Property integrals               ...       49.577 sec (=   0.826 min)  19.6 %
SCF Response                     ...       13.692 sec (=   0.228 min)   5.4 %
Property calculations            ...        9.156 sec (=   0.153 min)   3.6 %
                             ****ORCA TERMINATED NORMALLY****
TOTAL RUN TIME: 0 days 0 hours 4 minutes 21 seconds 94 msec
