
                                 *****************
                                 * O   R   C   A *
                                 *****************

                                            #,                                       
                                            ###                                      
                                            ####                                     
                                            #####                                    
                                            ######                                   
                                           ########,                                 
                                     ,,################,,,,,                         
                               ,,#################################,,                 
                          ,,##########################################,,             
                       ,#########################################, ''#####,          
                    ,#############################################,,   '####,        
                  ,##################################################,,,,####,       
                ,###########''''           ''''###############################       
              ,#####''   ,,,,##########,,,,          '''####'''          '####       
            ,##' ,,,,###########################,,,                        '##       
           ' ,,###''''                  '''############,,,                           
         ,,##''                                '''############,,,,        ,,,,,,###''
      ,#''                                            '''#######################'''  
     '                                                          ''''####''''         
             ,#######,   #######,   ,#######,      ##                                
            ,#'     '#,  ##    ##  ,#'     '#,    #''#        ,####,    ,#,          
            ##       ##  ##   ,#'  ##            #'  '#       #'       ,# #          
            ##       ##  #######   ##           ,######,      #####,      #          
            '#,     ,#'  ##    ##  '#,     ,#' ,#      #,     #,   #      #          
             '#######'   ##     ##  '#######'  #'      '#     '####' #    #          



                #########################################################
                #                        -***-                          #
                #          Department of theory and spectroscopy        #
                #                                                       #
                #                      Frank Neese                      #
                #                                                       #
                #     Directorship, Architecture, Infrastructure        #
                #                    SHARK, DRIVERS                     #
                #        Core code/Algorithms in most modules           #
                #                                                       #
                #        Max Planck Institute fuer Kohlenforschung      #
                #                Kaiser Wilhelm Platz 1                 #
                #                 D-45470 Muelheim/Ruhr                 #
                #                      Germany                          #
                #                                                       #
                #                  All rights reserved                  #
                #                        -***-                          #
                #########################################################


                         Program Version 6.1.0-f.0  -   RELEASE   -


 With contributions from (in alphabetic order):
[Max-Planck-Institut fuer Kohlenforschung]                               
  Daniel Aravena         : Magnetic Suceptibility                        
  Michael Atanasov       : Ab Initio Ligand Field Theory (pilot matlab implementation)
  Alexander A. Auer      : GIAO ZORA, VPT2 properties, NMR spectrum      
  Ute Becker             : All parallelization in ORCA, NUMFREQ, NUMCALC 
  Giovanni Bistoni       : ED, misc. LED, open-shell LED, HFLD           
  Dmytro Bykov           : pre 5.0 version of the SCF Hessian            
  Marcos Casanova-Páez   : Triplet and SCS-CIS(D). UHF-(DLPNO)-IP/EA/STEOM-CCSD. UHF-CVS-IP/STEOM-CCSD   
  Vijay G. Chilkuri      : MRCI spin determinant printing, contributions to CSF-ICE 
  Pauline Colinet        : FMM embedding                                 
  Dipayan Datta          : RHF DLPNO-CCSD density                        
  Achintya Kumar Dutta   : EOM-CC, STEOM-CC                              
  Nicolas Foglia         : Exact transition moments, OPA infrastructure, MCD improvements    
  Dmitry Ganyushin       : Spin-Orbit,Spin-Spin,Magnetic field MRCI      
  Miquel Garcia-Rates    : C-PCM and meta-GGA Hessian, CCSD/C-PCM, Gaussian charge scheme 
  Tiago L. C. Gouveia    : GS-ROHF, GS-ROCIS                             
  Yang Guo               : DLPNO-NEVPT2, F12-NEVPT2, CIM, IAO-localization        
  Andreas Hansen         : Spin unrestricted coupled pair/coupled cluster methods 
  Ingolf Harden          : AUTO-CI MPn and infrastructure                
  Benjamin Helmich-Paris : MC-RPA, TRAH-(SCF,CASSCF), AVAS, COSX integrals, SCF dyn. polar., MC-PDFT, srDFT 
  Lee Huntington         : MR-EOM, pCC                                   
  Robert Izsak           : Overlap fitted RIJCOSX, COSX-SCS-MP3, EOM     
  Riya Kayal             : Wick's Theorem for AUTO-CI, AUTO-CI UHF-CCSDT 
  Emily Kempfer          : AUTO-CI RHF CISDT and CCSDT, approximate NEVPT4
  Christian Kollmar      : KDIIS, OOCD, Brueckner-CCSD(T), CCSD density, CASPT2, CASPT2-K, improved NEVPT2 
  Axel Koslowski         : Symmetry handling                             
  Simone Kossmann        : meta-GGA functionals, TD-DFT gradient, OOMP2, (MP2 Hessian; deprecated post 5.0) 
  Lucas Lang             : DCDCAS, Hyperfine gauge corrections, ICE-SOC+SSC
  Marvin Lechner         : AUTO-CI (C++ implementation), FIC-MRCC        
  Spencer Leger          : CASSCF response                               
  Dagmar Lenk            : GEPOL surface, SMD, ORCA-2-JSON               
  Dimitrios Liakos       : Extrapolation schemes; Compound Job, Property file
  Dimitrios Manganas     : Further ROCIS development; embedding schemes. LFT, Crystal Embedding 
  Dimitrios Pantazis     : SARC Basis sets                               
  Anastasios Papadopoulos: AUTO-CI, single reference methods and gradients 
  Taras Petrenko         : pre 6.0 DFT Hessian and TD-DFT gradient,  ECA, NRVS 
  Petra Pikulova         : Analytic Raman intensities                    
  Peter Pinski           : DLPNO-MP2, DLPNO-MP2 Gradient                 
  Shashank Vittal Rao    : ES-AILFT, MagRelax                            
  Christoph Reimann      : Effective Core Potentials                     
  Marius Retegan         : Local ZFS, SOC                                
  Christoph Riplinger    : Optimizer, TS searches, QM/MM, DLPNO-CCSD(T), (RO)-DLPNO pert. Triples 
  Michael Roemelt        : Original ROCIS implementation, recursive CI coupling coefficients
  Masaaki Saitow         : Open-shell DLPNO-CCSD energy and density      
  Barbara Sandhoefer     : DKH picture change effects                    
  Yorick L. A. Schmerwitz: GMF and freeze-and-release deltaSCF, NEB S-IDPP initial path                    
  Kantharuban Sivalingam : CASSCF convergence/infrastructure, NEVPT2, NEVPT3, NEVPT4(SD), FIC-MRCI and CEPA variants
  Bernardo de Souza      : ESD, SOC TD-DFT                               
  Georgi L. Stoychev     : AutoAux, RI-MP2 NMR, DLPNO-MP2 response, X2C  
  Van Anh Tran           : RI-MP2 g-tensors                              
  Willem Van den Heuvel  : Paramagnetic NMR                              
  Zikuan Wang            : NOTCH, Electric field optimization            
  Frank Wennmohs         : Technical directorship and infrastructure     
  Hang Xu                : AUTO-CI-Response properties                   
                                                                         
[FACCTs GmbH]                                                            
  Markus Bursch, Nicolas Foglia, Miquel Garcia-Rates, Ingolf Harden, Hagen Neugebauer, Anastasios Papadopoulos, 
  Christoph Riplinger, Bernardo de Souza, Georgi L. Stoychev                                                    
                                                                 
  APM, various basis sets, CI-OPT, improved COSX, DLPNO-Multilevel,           
  DOCKER, DRACO, updates on ESD, Fragmentator, GOAT, IRC, LR-CPCM, L-BFGS, MBIS, meta-GGA TD-DFT gradient, ML-optimized integration grids, 
  MM, NACMEs, nearIR, NEB, NEB-TS, NL-DFT gradient (VV10), 2- and 3-layer-ONIOM, interface openCOSMO-RS, QMMM,   
  Crystal-QMMM, RESP, rigid body optimization, SF, symmetry and pop. for TD-DFT, various functionals, SOLVATOR                                   
                                                                         
[Other institutions]                                                     
  V. Asgeirsson          : NEB                                           
  Christoph Bannwarth    : sTDA-DFT, sTD-DFT, PBEh-3c, B97-3c, D3        
  Giovanni Bistoni       : ETS/NOCV, ADLD/ADEX, COVALED                  
  Martin Brehm           : Molecular dynamics                            
  Ronald Cardenas        : ETS/NOCV                                      
  Martina Colucci        : COVALED                                       
  Sebastian Ehlert       : rSCAN, r2SCAN, r2SCAN-3c, D4, dhf basis sets  
  Marvin Friede          : D4 for Fr, Ra, Ac-Lr                          
  Lars Goerigk           : TD-DFT with DH, B97 family of functionals     
  Stefan Grimme          : VdW corrections, initial TS optimization, DFT functionals, gCP, sTDA/sTD-DF 
  Waldemar Hujo          : DFT-NL                                        
  H. Jonsson             : NEB                                           
  Holger Kruse           : gCP                                           
  Marcel Mueller         : wB97X-3c, vDZP basis set                      
  Hagen Neugebauer       : wr2SCAN, Native XTB                           
  Gianluca Regni         : ADLD/ADEX                                     
  Tobias Risthaus        : pre 6.0 range-separated hybrid DFT and stability analysis
  Lukas Wittmann         : regularized MP2, r2SCAN double-hybrids, wr2SCAN        
                                                                         
We gratefully acknowledge several colleagues who have allowed us to      
interface, adapt or use parts of their codes:                            
  Ed Valeev, F. Pavosevic, A. Kumar             : LibInt (2-el integral package), F12 methods 
  Garnet Chan, S. Sharma, J. Yang, R. Olivares  : DMRG                   
  Ulf Ekstrom                                   : XCFun DFT Library      
  Mihaly Kallay                                 : mrcc  (arbitrary order and MRCC methods)
  Frank Weinhold                                : gennbo (NPA and NBO analysis)           
  Simon Mueller                                 : openCOSMO-RS                            
  Christopher J. Cramer and Donald G. Truhlar   : smd solvation model                     
  S Lehtola, MJT Oliveira, MAL Marques          : LibXC Library                           
  Liviu Ungur et al                             : ANISO software                          


 Your calculation uses the libint2 library for the computation of 2-el integrals
 For citations please refer to: http://libint.valeyev.net

 Your ORCA version has been built with support for libXC version: 7.0.0
 For citations please refer to: https://libxc.gitlab.io

 This ORCA versions uses:
   CBLAS   interface :  Fast vector & matrix operations
   LAPACKE interface :  Fast linear algebra routines
   SCALAPACK package :  Parallel linear algebra routines
   Shared memory     :  Shared parallel matrices
   BLAS/LAPACK       :  OpenBLAS 0.3.29  USE64BITINT DYNAMIC_ARCH NO_AFFINITY Cooperlake SINGLE_THREADED
        Core in use  :  Cooperlake
   Copyright (c) 2011-2014, The OpenBLAS Project


  ***********************************
  * Starting time: Tue Mar  3 21:32:46 2026
  * Host name:     c03b01n04
  * Process ID:    1584380
  * Working dir.:  /lustre1/jiangy/jiangy_liuxy/NMR/B9D7C2-RSSS-NMR/opt_conf
  ***********************************

NOTE: MaxCore=5000 MB was set to SCF,MP2,MDCI,CIPSI,MRCI,RASCI and CIS
      => If you want to overwrite this, your respective input block should be placed after the MaxCore statement


***************************************
The coordinates will be read from file: opt-conf-3.xyz
***************************************



Warning: The global flag for NMR shieldings has been found
         but shieldings for certain elements have also been explicitly requested in the EPRNMR block
         ==>> only the requested shieldings will be calculated

================================================================================

----- Orbital basis set information -----
Your calculation utilizes the basis: pcSseg-2
   F. Jensen, J. Chem. Theory Comput. 11, 132 (2015).

----- AuxJ basis set information -----
Your calculation utilizes the AutoAux generation procedure.
  G. L. Stoychev, A. A. Auer, F. Neese, J. Chem. Theory Comput. 13, 554 (2017)

----- AuxC basis set information -----
Your calculation utilizes the AutoAux generation procedure.
  G. L. Stoychev, A. A. Auer, F. Neese, J. Chem. Theory Comput. 13, 554 (2017)

----- AuxJK basis set information -----
Your calculation utilizes the AutoAux generation procedure.
  G. L. Stoychev, A. A. Auer, F. Neese, J. Chem. Theory Comput. 13, 554 (2017)

----- AuxX basis set information -----
Your calculation utilizes the AutoAux generation procedure.
  G. L. Stoychev, A. A. Auer, F. Neese, J. Chem. Theory Comput. 13, 554 (2017)

================================================================================
                                        WARNINGS
                       Please study these warnings very carefully!
================================================================================


================================================================================
                                       INPUT FILE
================================================================================
NAME = nmr-conf-3.inp
|  1> !TPSS PCSSEG-2 AUTOAUX NMR CPCM(Methanol)
|  2> 
|  3> %pal nprocs 60 end
|  4> %maxcore 5000
|  5> 
|  6> *XYZFILE 0 1 opt-conf-3.xyz
|  7> 
|  8> %EPRNMR
|  9>    NUCLEI = ALL C {SHIFT}
| 10>    NUCLEI = ALL H {SHIFT}
| 11>    TAU DOBSON
| 12> END
| 13> 
| 14> 
| 15>                          ****END OF INPUT****
================================================================================

                       ****************************
                       * Single Point Calculation *
                       ****************************

---------------------------------
CARTESIAN COORDINATES (ANGSTROEM)
---------------------------------
  C     11.857139  -11.905325   -1.842119
  C     12.295844  -13.214239   -1.634639
  C     11.388683  -14.270510   -1.747289
  C     10.045708  -14.010236   -2.016031
  C      9.604492  -12.699803   -2.174620
  C     10.515855  -11.648275   -2.102955
  C      8.139721  -12.389162   -2.361251
  C      7.477128  -11.922607   -1.044054
  C      6.126562  -11.189607   -1.227019
  C      6.201307  -10.013257   -2.221320
  C      7.305637   -9.022556   -1.944968
  C      7.352428   -8.346738   -0.718530
  C      8.356567   -7.429404   -0.452958
  C      9.346379   -7.172995   -1.416075
  C      9.301906   -7.830416   -2.629973
  C      8.285724   -8.749644   -2.890466
  C      7.369760  -13.128160   -0.106583
  C      4.956156  -12.111292   -1.588441
  O     11.906802  -15.512997   -1.560389
  O     12.815565  -10.939655   -1.745631
  O     13.625581  -13.440143   -1.368088
  O     10.345551   -6.277158   -1.159384
  O      8.489889   -6.707608    0.696399
  C     13.969722  -13.845933   -0.024162
  C     13.904465  -12.661624    0.957523
  C     12.483686  -12.273634    1.359332
  C     15.370308  -14.418295   -0.134317
  O     15.409175  -15.553252   -0.995150
  C     12.119970  -10.927481    1.413202
  C     10.829495  -10.556334    1.760876
  C      9.883694  -11.537796    2.075164
  C     10.246982  -12.871532    2.061774
  C     11.541255  -13.236924    1.705937
  C     12.420563   -9.582187   -1.949276
  C     11.019250  -16.628340   -1.602724
  C      7.520029   -6.882724    1.726174
  O     14.646793  -11.560390    0.452880
  O      6.678256  -12.854704    1.118374
  O      4.345949  -12.726704   -0.446740
  O     10.362749   -9.275945    1.822103
  O      8.601682  -11.176212    2.404297
  C     11.310891   -8.208466    1.791945
  H      9.335935  -14.821183   -2.085245
  H     10.165158  -10.635304   -2.229701
  H      7.617763  -13.269414   -2.743927
  H      8.041285  -11.609292   -3.114261
  H      8.157397  -11.200881   -0.582254
  H      5.875538  -10.756421   -0.254060
  H      6.302360  -10.386175   -3.243009
  H      5.236761   -9.497673   -2.180858
  H      6.593669   -8.543170    0.026158
  H     10.067236   -7.623054   -3.367301
  H      8.266117   -9.258189   -3.846395
  H      8.366002  -13.516678    0.109638
  H      6.806950  -13.928963   -0.591187
  H      4.172518  -11.531740   -2.082510
  H      5.281378  -12.884351   -2.295577
  H     10.203465   -5.903458   -0.276818
  H     13.291691  -14.637033    0.295181
  H     14.434542  -12.981204    1.860569
  H     15.699348  -14.755860    0.849078
  H     16.058090  -13.641670   -0.483759
  H     14.990722  -15.292529   -1.826780
  H     12.848500  -10.172317    1.164602
  H      9.512757  -13.621200    2.327774
  H     11.796827  -14.287690    1.697663
  H     12.048482   -9.437191   -2.965142
  H     11.651514   -9.285616   -1.235944
  H     13.316273   -8.985860   -1.795462
  H     10.543606  -16.716797   -2.582317
  H     11.635979  -17.504044   -1.416073
  H     10.250988  -16.547907   -0.830106
  H      7.507168   -7.915390    2.080418
  H      7.819595   -6.221960    2.535533
  H      6.523807   -6.606717    1.372507
  H     14.225122  -11.293495   -0.382376
  H      7.193830  -12.197988    1.618004
  H      5.003817  -12.758482    0.269695
  H      8.538235  -10.208940    2.372358
  H     12.055874   -8.336083    2.580626
  H     11.809456   -8.152496    0.823307
  H     10.740578   -7.299788    1.957891

----------------------------
CARTESIAN COORDINATES (A.U.)
----------------------------
  NO LB      ZA    FRAG     MASS         X           Y           Z
   0 C     6.0000    0    12.011   22.406746  -22.497805   -3.481100
   1 C     6.0000    0    12.011   23.235777  -24.971293   -3.089019
   2 C     6.0000    0    12.011   21.521492  -26.967355   -3.301897
   3 C     6.0000    0    12.011   18.983637  -26.475509   -3.809746
   4 C     6.0000    0    12.011   18.149860  -23.999150   -4.109435
   5 C     6.0000    0    12.011   19.872086  -22.012051   -3.974009
   6 C     6.0000    0    12.011   15.381843  -23.412122   -4.462117
   7 C     6.0000    0    12.011   14.129725  -22.530461   -1.972975
   8 C     6.0000    0    12.011   11.577524  -21.145294   -2.318729
   9 C     6.0000    0    12.011   11.718772  -18.922314   -4.197686
  10 C     6.0000    0    12.011   13.805652  -17.050161   -3.675457
  11 C     6.0000    0    12.011   13.894076  -15.773050   -1.357826
  12 C     6.0000    0    12.011   15.791624  -14.039539   -0.855966
  13 C     6.0000    0    12.011   17.662096  -13.554997   -2.675995
  14 C     6.0000    0    12.011   17.578055  -14.797341   -4.969928
  15 C     6.0000    0    12.011   15.657748  -16.534431   -5.462188
  16 C     6.0000    0    12.011   13.926829  -24.808628   -0.201412
  17 C     6.0000    0    12.011    9.365777  -22.887026   -3.001718
  18 O     8.0000    0    15.999   22.500594  -29.315315   -2.948709
  19 O     8.0000    0    15.999   24.217909  -20.672952   -3.298765
  20 O     8.0000    0    15.999   25.748617  -25.398190   -2.585311
  21 O     8.0000    0    15.999   19.550258  -11.862109   -2.190919
  22 O     8.0000    0    15.999   16.043566  -12.675542    1.316003
  23 C     6.0000    0    12.011   26.398949  -26.165021   -0.045659
  24 C     6.0000    0    12.011   26.275631  -23.927001    1.809455
  25 C     6.0000    0    12.011   23.590747  -23.193808    2.568765
  26 C     6.0000    0    12.011   29.045673  -27.246629   -0.253822
  27 O     8.0000    0    15.999   29.119121  -29.391387   -1.880561
  28 C     6.0000    0    12.011   22.903423  -20.649946    2.670564
  29 C     6.0000    0    12.011   20.464779  -19.948581    3.327573
  30 C     6.0000    0    12.011   18.677474  -21.803275    3.921491
  31 C     6.0000    0    12.011   19.363989  -24.323670    3.896189
  32 C     6.0000    0    12.011   21.809810  -25.014162    3.223755
  33 C     6.0000    0    12.011   23.471463  -18.107709   -3.683598
  34 C     6.0000    0    12.011   20.823364  -31.423009   -3.028710
  35 C     6.0000    0    12.011   14.210796  -13.006463    3.261996
  36 O     8.0000    0    15.999   27.678428  -21.845971    0.855819
  37 O     8.0000    0    15.999   12.620075  -24.291870    2.113421
  38 O     8.0000    0    15.999    8.212653  -24.049986   -0.844216
  39 O     8.0000    0    15.999   19.582758  -17.528995    3.443276
  40 O     8.0000    0    15.999   16.254823  -21.119980    4.543464
  41 C     6.0000    0    12.011   21.374486  -15.511752    3.386285
  42 H     1.0000    0     1.008   17.642361  -28.007977   -3.940542
  43 H     1.0000    0     1.008   19.209366  -20.097812   -4.213524
  44 H     1.0000    0     1.008   14.395486  -25.075559   -5.185270
  45 H     1.0000    0     1.008   15.195826  -21.938383   -5.885100
  46 H     1.0000    0     1.008   15.415246  -21.166598   -1.100301
  47 H     1.0000    0     1.008   11.103157  -20.326689   -0.480104
  48 H     1.0000    0     1.008   11.909735  -19.627027   -6.128398
  49 H     1.0000    0     1.008    9.896044  -17.948001   -4.121225
  50 H     1.0000    0     1.008   12.460229  -16.144252    0.049432
  51 H     1.0000    0     1.008   19.024318  -14.405484   -6.363276
  52 H     1.0000    0     1.008   15.620697  -17.495441   -7.268632
  53 H     1.0000    0     1.008   15.809452  -25.542820    0.207186
  54 H     1.0000    0     1.008   12.863271  -26.321926   -1.117182
  55 H     1.0000    0     1.008    7.884916  -21.791831   -3.935373
  56 H     1.0000    0     1.008    9.980359  -24.347895   -4.338012
  57 H     1.0000    0     1.008   19.281755  -11.155918   -0.523111
  58 H     1.0000    0     1.008   25.117656  -27.659983    0.557811
  59 H     1.0000    0     1.008   27.277332  -24.530921    3.515966
  60 H     1.0000    0     1.008   29.667468  -27.884534    1.604525
  61 H     1.0000    0     1.008   30.345391  -25.779020   -0.914172
  62 H     1.0000    0     1.008   28.328359  -28.898692   -3.452113
  63 H     1.0000    0     1.008   24.280145  -19.222893    2.200779
  64 H     1.0000    0     1.008   17.976506  -25.740337    4.398856
  65 H     1.0000    0     1.008   22.292772  -26.999822    3.208117
  66 H     1.0000    0     1.008   22.768332  -17.833706   -5.603307
  67 H     1.0000    0     1.008   22.018170  -17.547271   -2.335595
  68 H     1.0000    0     1.008   25.164109  -16.980814   -3.392932
  69 H     1.0000    0     1.008   19.924527  -31.590168   -4.879872
  70 H     1.0000    0     1.008   21.988813  -33.077849   -2.675989
  71 H     1.0000    0     1.008   19.371561  -31.271012   -1.568674
  72 H     1.0000    0     1.008   14.186491  -14.957919    3.931420
  73 H     1.0000    0     1.008   14.776892  -11.757800    4.791463
  74 H     1.0000    0     1.008   12.328208  -12.484886    2.593662
  75 H     1.0000    0     1.008   26.881585  -21.341613   -0.722586
  76 H     1.0000    0     1.008   13.594368  -23.050857    3.057584
  77 H     1.0000    0     1.008    9.455845  -24.110037    0.509650
  78 H     1.0000    0     1.008   16.134925  -19.292101    4.483106
  79 H     1.0000    0     1.008   22.782300  -15.752913    4.876677
  80 H     1.0000    0     1.008   22.316637  -15.405985    1.555825
  81 H     1.0000    0     1.008   20.296752  -13.794601    3.699877

--------------------------------
INTERNAL COORDINATES (ANGSTROEM)
--------------------------------
 C      0   0   0     0.000000000000     0.00000000     0.00000000
 C      1   0   0     1.395981823345     0.00000000     0.00000000
 C      2   1   0     1.396902653346   119.53266487     0.00000000
 C      3   2   1     1.394111372038   119.99760870   357.62668930
 C      4   3   2     1.391781454633   120.20764105     0.08487343
 C      1   2   3     1.390378940721   120.29120412     2.72418150
 C      5   4   3     1.508935202738   121.04194616   184.70173625
 C      7   5   4     1.546515448254   111.88007607    99.45799786
 C      8   7   5     1.547512198241   114.58930714   162.38705174
 C      9   8   7     1.542083385898   113.28196877   307.13734024
 C     10   9   8     1.509106363965   114.71981598   308.08105323
 C     11  10   9     1.401095686573   120.09185017   300.97570036
 C     12  11  10     1.385758192540   120.74753708   180.31948822
 C     13  12  11     1.404659027994   120.00286348   359.68641297
 C     14  13  12     1.381204579897   119.53991318     0.66112641
 C     11  10   9     1.388890555339   121.38065146   121.50730690
 C      8   7   5     1.530927555448   108.30276243   288.99804671
 C      9   8   7     1.532964361609   114.16802122    74.23202281
 O      3   2   1     1.359099743675   115.63358165   178.51528711
 O      1   2   3     1.363968732116   115.62570129   181.59420122
 O      2   1   3     1.374875715393   119.13180429   177.78304775
 O     14  13  12     1.366294413431   120.41039822   180.45971223
 O     13  12  11     1.363739435828   125.64237193   179.28025078
 C     21   2   1     1.445418883919   117.17194250   109.07277916
 C     24  21   2     1.539659205421   111.51775659   284.78921172
 C     25  24  21     1.526630389032   113.75035685    76.69668680
 C     24  21   2     1.517027651958   104.96469012   163.23244798
 O     27  24  21     1.425016765012   111.68727096   298.40246950
 C     26  25  24     1.395464302652   119.86097230   223.35736445
 C     29  26  25     1.387066089904   120.68307380   179.23789253
 C     30  29  26     1.398779065849   119.84451679     0.67858843
 C     31  30  29     1.382392145206   119.80766530     1.20123312
 C     32  31  30     1.391141177768   120.02561029   358.48867105
 C     20   1   2     1.428361740106   117.93319197   179.99364979
 C     19   3   2     1.426019914276   118.27310311   177.21223819
 C     23  13  12     1.425388095082   118.51168816   359.39446216
 O     25  24  21     1.420714985539   110.34094617   309.17067891
 O     17   8   7     1.432995556850   114.01819973   184.47361484
 O     18   9   8     1.433375502744   113.28956163    83.98069636
 O     30  29  26     1.364184053165   125.50030547   181.18140341
 O     31  30  29     1.372088387960   120.05053524   180.76971322
 C     40  30  29     1.428072997534   118.26009605   346.72928311
 H      4   3   2     1.079909336677   120.35144213   181.19384162
 H      6   1   2     1.079427342292   120.59342911   177.83649599
 H      7   5   4     1.092577628658   109.95047420   337.33321597
 H      7   5   4     1.088535747694   108.71344075   220.54941049
 H      8   7   5     1.094034465749   106.98543452    44.87975481
 H      9   8   7     1.094217803314   106.41551814   190.56524464
 H     10   9   8     1.092303701288   110.31273447    71.79904145
 H     10   9   8     1.094447043392   107.02617634   186.77276819
 H     12  11  10     1.081139505520   119.46286681     0.15156038
 H     15  14  13     1.082765563898   118.98412615   179.76266487
 H     16  11  10     1.082959775789   119.72625301   359.70012968
 H     17   8   7     1.090960567717   109.74028233    60.80114972
 H     17   8   7     1.092191784727   109.98745043   302.97905142
 H     18   9   8     1.092736042402   109.58744050   202.64537112
 H     18   9   8     1.097010264881   110.44591222   320.46692319
 H     22  14  13     0.968898063806   108.46829645   358.86832816
 H     24  21   2     1.089745182375   109.15545686    46.77782868
 H     25  24  21     1.094809129232   106.31175055   195.31856037
 H     27  24  21     1.090542479565   109.26090545   180.39873907
 H     27  24  21     1.094668753265   109.60783013    61.58594145
 H     28  27  24     0.966792423639   107.04006631    51.98251371
 H     29  26  25     1.078346097608   119.37760816     0.29666992
 H     32  31  30     1.082517719125   119.17799777   178.66781957
 H     33  32  31     1.081431759254   118.49210699   180.38986406
 H     34  20   1     1.091536469236   110.68312596   297.11855262
 H     34  20   1     1.090061826726   111.12283918    58.90393382
 H     34  20   1     1.086996032226   105.86196111   178.12178797
 H     35  19   3     1.092549426440   111.15579344    61.95235812
 H     35  19   3     1.087221252054   105.77259104   180.85466334
 H     35  19   3     1.092535095570   111.04425304   299.77795676
 H     36  23  13     1.091811775519   111.01534145    60.85507202
 H     36  23  13     1.086927314380   106.00647816   179.89197236
 H     36  23  13     1.092574645974   110.82529830   298.98179991
 H     37  25  24     0.972980971789   106.92404788    62.14178254
 H     38  17   8     0.972996521835   108.18261618   296.05910628
 H     39  18   9     0.973180375798   108.21679628   335.45708801
 H     41  31  30     0.969876681060   108.42386506   359.63230425
 H     42  40  30     1.092384799951   110.50040753   305.27010986
 H     42  40  30     1.090852355702   111.13390759    67.16883831
 H     42  40  30     1.085582169278   105.88218208   185.92276513

---------------------------
INTERNAL COORDINATES (A.U.)
---------------------------
 C      0   0   0     0.000000000000     0.00000000     0.00000000
 C      1   0   0     2.638023334055     0.00000000     0.00000000
 C      2   1   0     2.639763450572   119.53266487     0.00000000
 C      3   2   1     2.634488693337   119.99760870   357.62668930
 C      4   3   2     2.630085787527   120.20764105     0.08487343
 C      1   2   3     2.627435420335   120.29120412     2.72418150
 C      5   4   3     2.851474287008   121.04194616   184.70173625
 C      7   5   4     2.922490659078   111.88007607    99.45799786
 C      8   7   5     2.924374243578   114.58930714   162.38705174
 C      9   8   7     2.914115275018   113.28196877   307.13734024
 C     10   9   8     2.851797734852   114.71981598   308.08105323
 C     11  10   9     2.647687135042   120.09185017   300.97570036
 C     12  11  10     2.618703471738   120.74753708   180.31948822
 C     13  12  11     2.654420874449   120.00286348   359.68641297
 C     14  13  12     2.610098390924   119.53991318     0.66112641
 C     11  10   9     2.624622779580   121.38065146   121.50730690
 C      8   7   5     2.893033810670   108.30276243   288.99804671
 C      9   8   7     2.896882816502   114.16802122    74.23202281
 O      3   2   1     2.568326304228   115.63358165   178.51528711
 O      1   2   3     2.577527358932   115.62570129   181.59420122
 O      2   1   3     2.598138570272   119.13180429   177.78304775
 O     14  13  12     2.581922259691   120.41039822   180.45971223
 O     13  12  11     2.577094051743   125.64237193   179.28025078
 C     21   2   1     2.731445839404   117.17194250   109.07277916
 C     24  21   2     2.909534237817   111.51775659   284.78921172
 C     25  24  21     2.884913342993   113.75035685    76.69668680
 C     24  21   2     2.866766799787   104.96469012   163.23244798
 O     27  24  21     2.692891422119   111.68727096   298.40246950
 C     26  25  24     2.637045361676   119.86097230   223.35736445
 C     29  26  25     2.621175039568   120.68307380   179.23789253
 C     30  29  26     2.643309356316   119.84451679     0.67858843
 C     31  30  29     2.612342564123   119.80766530     1.20123312
 C     32  31  30     2.628875839603   120.02561029   358.48867105
 C     20   1   2     2.699212508971   117.93319197   179.99364979
 C     19   3   2     2.694787099499   118.27310311   177.21223819
 C     23  13  12     2.693593134258   118.51168816   359.39446216
 O     25  24  21     2.684762237027   110.34094617   309.17067891
 O     17   8   7     2.707969153572   114.01819973   184.47361484
 O     18   9   8     2.708687147257   113.28956163    83.98069636
 O     30  29  26     2.577934256744   125.50030547   181.18140341
 O     31  30  29     2.592871284778   120.05053524   180.76971322
 C     40  30  29     2.698666864587   118.26009605   346.72928311
 H      4   3   2     2.040732895784   120.35144213   181.19384162
 H      6   1   2     2.039822058398   120.59342911   177.83649599
 H      7   5   4     2.064672498214   109.95047420   337.33321597
 H      7   5   4     2.057034450125   108.71344075   220.54941049
 H      8   7   5     2.067425521336   106.98543452    44.87975481
 H      9   8   7     2.067771979124   106.41551814   190.56524464
 H     10   9   8     2.064154850503   110.31273447    71.79904145
 H     10   9   8     2.068205180091   107.02617634   186.77276819
 H     12  11  10     2.043057577996   119.46286681     0.15156038
 H     15  14  13     2.046130383009   118.98412615   179.76266487
 H     16  11  10     2.046497390295   119.72625301   359.70012968
 H     17   8   7     2.061616695892   109.74028233    60.80114972
 H     17   8   7     2.063943358852   109.98745043   302.97905142
 H     18   9   8     2.064971856805   109.58744050   202.64537112
 H     18   9   8     2.073048966725   110.44591222   320.46692319
 H     22  14  13     1.830951992280   108.46829645   358.86832816
 H     24  21   2     2.059319950449   109.15545686    46.77782868
 H     25  24  21     2.068889423165   106.31175055   195.31856037
 H     27  24  21     2.060826623786   109.26090545   180.39873907
 H     27  24  21     2.068624151033   109.60783013    61.58594145
 H     28  27  24     1.826972909027   107.04006631    51.98251371
 H     29  26  25     2.037778802061   119.37760816     0.29666992
 H     32  31  30     2.045662024264   119.17799777   178.66781957
 H     33  32  31     2.043609857514   118.49210699   180.38986406
 H     34  20   1     2.062704992044   110.68312596   297.11855262
 H     34  20   1     2.059918321553   111.12283918    58.90393382
 H     34  20   1     2.054124809567   105.86196111   178.12178797
 H     35  19   3     2.064619203743   111.15579344    61.95235812
 H     35  19   3     2.054550413361   105.77259104   180.85466334
 H     35  19   3     2.064592122325   111.04425304   299.77795676
 H     36  23  13     2.063225245521   111.01534145    60.85507202
 H     36  23  13     2.053994951657   106.00647816   179.89197236
 H     36  23  13     2.064666861757   110.82529830   298.98179991
 H     37  25  24     1.838667570198   106.92404788    62.14178254
 H     38  17   8     1.838696955526   108.18261618   296.05910628
 H     39  18   9     1.839044389165   108.21679628   335.45708801
 H     41  31  30     1.832801310880   108.42386506   359.63230425
 H     42  40  30     2.064308104765   110.50040753   305.27010986
 H     42  40  30     2.061412204819   111.13390759    67.16883831
 H     42  40  30     2.051452995804   105.88218208   185.92276513

---------------------
BASIS SET INFORMATION
---------------------
There are 3 groups of distinct atoms

 Group   1 Type C   : 11s7p2d1f contracted to 4s5p2d1f pattern {7211/31111/11/1}
 Group   2 Type O   : 11s7p2d1f contracted to 4s5p2d1f pattern {7211/31111/11/1}
 Group   3 Type H   : 6s3p1d contracted to 3s2p1d pattern {411/21/1}

Atom   0C    basis set group =>   1
Atom   1C    basis set group =>   1
Atom   2C    basis set group =>   1
Atom   3C    basis set group =>   1
Atom   4C    basis set group =>   1
Atom   5C    basis set group =>   1
Atom   6C    basis set group =>   1
Atom   7C    basis set group =>   1
Atom   8C    basis set group =>   1
Atom   9C    basis set group =>   1
Atom  10C    basis set group =>   1
Atom  11C    basis set group =>   1
Atom  12C    basis set group =>   1
Atom  13C    basis set group =>   1
Atom  14C    basis set group =>   1
Atom  15C    basis set group =>   1
Atom  16C    basis set group =>   1
Atom  17C    basis set group =>   1
Atom  18O    basis set group =>   2
Atom  19O    basis set group =>   2
Atom  20O    basis set group =>   2
Atom  21O    basis set group =>   2
Atom  22O    basis set group =>   2
Atom  23C    basis set group =>   1
Atom  24C    basis set group =>   1
Atom  25C    basis set group =>   1
Atom  26C    basis set group =>   1
Atom  27O    basis set group =>   2
Atom  28C    basis set group =>   1
Atom  29C    basis set group =>   1
Atom  30C    basis set group =>   1
Atom  31C    basis set group =>   1
Atom  32C    basis set group =>   1
Atom  33C    basis set group =>   1
Atom  34C    basis set group =>   1
Atom  35C    basis set group =>   1
Atom  36O    basis set group =>   2
Atom  37O    basis set group =>   2
Atom  38O    basis set group =>   2
Atom  39O    basis set group =>   2
Atom  40O    basis set group =>   2
Atom  41C    basis set group =>   1
Atom  42H    basis set group =>   3
Atom  43H    basis set group =>   3
Atom  44H    basis set group =>   3
Atom  45H    basis set group =>   3
Atom  46H    basis set group =>   3
Atom  47H    basis set group =>   3
Atom  48H    basis set group =>   3
Atom  49H    basis set group =>   3
Atom  50H    basis set group =>   3
Atom  51H    basis set group =>   3
Atom  52H    basis set group =>   3
Atom  53H    basis set group =>   3
Atom  54H    basis set group =>   3
Atom  55H    basis set group =>   3
Atom  56H    basis set group =>   3
Atom  57H    basis set group =>   3
Atom  58H    basis set group =>   3
Atom  59H    basis set group =>   3
Atom  60H    basis set group =>   3
Atom  61H    basis set group =>   3
Atom  62H    basis set group =>   3
Atom  63H    basis set group =>   3
Atom  64H    basis set group =>   3
Atom  65H    basis set group =>   3
Atom  66H    basis set group =>   3
Atom  67H    basis set group =>   3
Atom  68H    basis set group =>   3
Atom  69H    basis set group =>   3
Atom  70H    basis set group =>   3
Atom  71H    basis set group =>   3
Atom  72H    basis set group =>   3
Atom  73H    basis set group =>   3
Atom  74H    basis set group =>   3
Atom  75H    basis set group =>   3
Atom  76H    basis set group =>   3
Atom  77H    basis set group =>   3
Atom  78H    basis set group =>   3
Atom  79H    basis set group =>   3
Atom  80H    basis set group =>   3
Atom  81H    basis set group =>   3
---------------------------------
AUXILIARY/J BASIS SET INFORMATION
---------------------------------
There are 3 groups of distinct atoms

 Group   1 Type C   : 15s13p12d5f5g contracted to 15s13p12d5f5g pattern {111111111111111/1111111111111/111111111111/11111/11111}
 Group   2 Type O   : 15s13p12d5f5g contracted to 15s13p12d5f5g pattern {111111111111111/1111111111111/111111111111/11111/11111}
 Group   3 Type H   : 12s4p3d2f contracted to 12s4p3d2f pattern {111111111111/1111/111/11}

Atom   0C    basis set group =>   1
Atom   1C    basis set group =>   1
Atom   2C    basis set group =>   1
Atom   3C    basis set group =>   1
Atom   4C    basis set group =>   1
Atom   5C    basis set group =>   1
Atom   6C    basis set group =>   1
Atom   7C    basis set group =>   1
Atom   8C    basis set group =>   1
Atom   9C    basis set group =>   1
Atom  10C    basis set group =>   1
Atom  11C    basis set group =>   1
Atom  12C    basis set group =>   1
Atom  13C    basis set group =>   1
Atom  14C    basis set group =>   1
Atom  15C    basis set group =>   1
Atom  16C    basis set group =>   1
Atom  17C    basis set group =>   1
Atom  18O    basis set group =>   2
Atom  19O    basis set group =>   2
Atom  20O    basis set group =>   2
Atom  21O    basis set group =>   2
Atom  22O    basis set group =>   2
Atom  23C    basis set group =>   1
Atom  24C    basis set group =>   1
Atom  25C    basis set group =>   1
Atom  26C    basis set group =>   1
Atom  27O    basis set group =>   2
Atom  28C    basis set group =>   1
Atom  29C    basis set group =>   1
Atom  30C    basis set group =>   1
Atom  31C    basis set group =>   1
Atom  32C    basis set group =>   1
Atom  33C    basis set group =>   1
Atom  34C    basis set group =>   1
Atom  35C    basis set group =>   1
Atom  36O    basis set group =>   2
Atom  37O    basis set group =>   2
Atom  38O    basis set group =>   2
Atom  39O    basis set group =>   2
Atom  40O    basis set group =>   2
Atom  41C    basis set group =>   1
Atom  42H    basis set group =>   3
Atom  43H    basis set group =>   3
Atom  44H    basis set group =>   3
Atom  45H    basis set group =>   3
Atom  46H    basis set group =>   3
Atom  47H    basis set group =>   3
Atom  48H    basis set group =>   3
Atom  49H    basis set group =>   3
Atom  50H    basis set group =>   3
Atom  51H    basis set group =>   3
Atom  52H    basis set group =>   3
Atom  53H    basis set group =>   3
Atom  54H    basis set group =>   3
Atom  55H    basis set group =>   3
Atom  56H    basis set group =>   3
Atom  57H    basis set group =>   3
Atom  58H    basis set group =>   3
Atom  59H    basis set group =>   3
Atom  60H    basis set group =>   3
Atom  61H    basis set group =>   3
Atom  62H    basis set group =>   3
Atom  63H    basis set group =>   3
Atom  64H    basis set group =>   3
Atom  65H    basis set group =>   3
Atom  66H    basis set group =>   3
Atom  67H    basis set group =>   3
Atom  68H    basis set group =>   3
Atom  69H    basis set group =>   3
Atom  70H    basis set group =>   3
Atom  71H    basis set group =>   3
Atom  72H    basis set group =>   3
Atom  73H    basis set group =>   3
Atom  74H    basis set group =>   3
Atom  75H    basis set group =>   3
Atom  76H    basis set group =>   3
Atom  77H    basis set group =>   3
Atom  78H    basis set group =>   3
Atom  79H    basis set group =>   3
Atom  80H    basis set group =>   3
Atom  81H    basis set group =>   3
---------------------------------
AUXILIARY/C BASIS SET INFORMATION
---------------------------------
There are 3 groups of distinct atoms

 Group   1 Type C   : 15s13p12d5f5g contracted to 15s13p12d5f5g pattern {111111111111111/1111111111111/111111111111/11111/11111}
 Group   2 Type O   : 15s13p12d5f5g contracted to 15s13p12d5f5g pattern {111111111111111/1111111111111/111111111111/11111/11111}
 Group   3 Type H   : 12s4p3d2f contracted to 12s4p3d2f pattern {111111111111/1111/111/11}

Atom   0C    basis set group =>   1
Atom   1C    basis set group =>   1
Atom   2C    basis set group =>   1
Atom   3C    basis set group =>   1
Atom   4C    basis set group =>   1
Atom   5C    basis set group =>   1
Atom   6C    basis set group =>   1
Atom   7C    basis set group =>   1
Atom   8C    basis set group =>   1
Atom   9C    basis set group =>   1
Atom  10C    basis set group =>   1
Atom  11C    basis set group =>   1
Atom  12C    basis set group =>   1
Atom  13C    basis set group =>   1
Atom  14C    basis set group =>   1
Atom  15C    basis set group =>   1
Atom  16C    basis set group =>   1
Atom  17C    basis set group =>   1
Atom  18O    basis set group =>   2
Atom  19O    basis set group =>   2
Atom  20O    basis set group =>   2
Atom  21O    basis set group =>   2
Atom  22O    basis set group =>   2
Atom  23C    basis set group =>   1
Atom  24C    basis set group =>   1
Atom  25C    basis set group =>   1
Atom  26C    basis set group =>   1
Atom  27O    basis set group =>   2
Atom  28C    basis set group =>   1
Atom  29C    basis set group =>   1
Atom  30C    basis set group =>   1
Atom  31C    basis set group =>   1
Atom  32C    basis set group =>   1
Atom  33C    basis set group =>   1
Atom  34C    basis set group =>   1
Atom  35C    basis set group =>   1
Atom  36O    basis set group =>   2
Atom  37O    basis set group =>   2
Atom  38O    basis set group =>   2
Atom  39O    basis set group =>   2
Atom  40O    basis set group =>   2
Atom  41C    basis set group =>   1
Atom  42H    basis set group =>   3
Atom  43H    basis set group =>   3
Atom  44H    basis set group =>   3
Atom  45H    basis set group =>   3
Atom  46H    basis set group =>   3
Atom  47H    basis set group =>   3
Atom  48H    basis set group =>   3
Atom  49H    basis set group =>   3
Atom  50H    basis set group =>   3
Atom  51H    basis set group =>   3
Atom  52H    basis set group =>   3
Atom  53H    basis set group =>   3
Atom  54H    basis set group =>   3
Atom  55H    basis set group =>   3
Atom  56H    basis set group =>   3
Atom  57H    basis set group =>   3
Atom  58H    basis set group =>   3
Atom  59H    basis set group =>   3
Atom  60H    basis set group =>   3
Atom  61H    basis set group =>   3
Atom  62H    basis set group =>   3
Atom  63H    basis set group =>   3
Atom  64H    basis set group =>   3
Atom  65H    basis set group =>   3
Atom  66H    basis set group =>   3
Atom  67H    basis set group =>   3
Atom  68H    basis set group =>   3
Atom  69H    basis set group =>   3
Atom  70H    basis set group =>   3
Atom  71H    basis set group =>   3
Atom  72H    basis set group =>   3
Atom  73H    basis set group =>   3
Atom  74H    basis set group =>   3
Atom  75H    basis set group =>   3
Atom  76H    basis set group =>   3
Atom  77H    basis set group =>   3
Atom  78H    basis set group =>   3
Atom  79H    basis set group =>   3
Atom  80H    basis set group =>   3
Atom  81H    basis set group =>   3
----------------------------------
AUXILIARY/JK BASIS SET INFORMATION
----------------------------------
There are 3 groups of distinct atoms

 Group   1 Type C   : 15s13p12d5f5g contracted to 15s13p12d5f5g pattern {111111111111111/1111111111111/111111111111/11111/11111}
 Group   2 Type O   : 15s13p12d5f5g contracted to 15s13p12d5f5g pattern {111111111111111/1111111111111/111111111111/11111/11111}
 Group   3 Type H   : 12s4p3d2f contracted to 12s4p3d2f pattern {111111111111/1111/111/11}

Atom   0C    basis set group =>   1
Atom   1C    basis set group =>   1
Atom   2C    basis set group =>   1
Atom   3C    basis set group =>   1
Atom   4C    basis set group =>   1
Atom   5C    basis set group =>   1
Atom   6C    basis set group =>   1
Atom   7C    basis set group =>   1
Atom   8C    basis set group =>   1
Atom   9C    basis set group =>   1
Atom  10C    basis set group =>   1
Atom  11C    basis set group =>   1
Atom  12C    basis set group =>   1
Atom  13C    basis set group =>   1
Atom  14C    basis set group =>   1
Atom  15C    basis set group =>   1
Atom  16C    basis set group =>   1
Atom  17C    basis set group =>   1
Atom  18O    basis set group =>   2
Atom  19O    basis set group =>   2
Atom  20O    basis set group =>   2
Atom  21O    basis set group =>   2
Atom  22O    basis set group =>   2
Atom  23C    basis set group =>   1
Atom  24C    basis set group =>   1
Atom  25C    basis set group =>   1
Atom  26C    basis set group =>   1
Atom  27O    basis set group =>   2
Atom  28C    basis set group =>   1
Atom  29C    basis set group =>   1
Atom  30C    basis set group =>   1
Atom  31C    basis set group =>   1
Atom  32C    basis set group =>   1
Atom  33C    basis set group =>   1
Atom  34C    basis set group =>   1
Atom  35C    basis set group =>   1
Atom  36O    basis set group =>   2
Atom  37O    basis set group =>   2
Atom  38O    basis set group =>   2
Atom  39O    basis set group =>   2
Atom  40O    basis set group =>   2
Atom  41C    basis set group =>   1
Atom  42H    basis set group =>   3
Atom  43H    basis set group =>   3
Atom  44H    basis set group =>   3
Atom  45H    basis set group =>   3
Atom  46H    basis set group =>   3
Atom  47H    basis set group =>   3
Atom  48H    basis set group =>   3
Atom  49H    basis set group =>   3
Atom  50H    basis set group =>   3
Atom  51H    basis set group =>   3
Atom  52H    basis set group =>   3
Atom  53H    basis set group =>   3
Atom  54H    basis set group =>   3
Atom  55H    basis set group =>   3
Atom  56H    basis set group =>   3
Atom  57H    basis set group =>   3
Atom  58H    basis set group =>   3
Atom  59H    basis set group =>   3
Atom  60H    basis set group =>   3
Atom  61H    basis set group =>   3
Atom  62H    basis set group =>   3
Atom  63H    basis set group =>   3
Atom  64H    basis set group =>   3
Atom  65H    basis set group =>   3
Atom  66H    basis set group =>   3
Atom  67H    basis set group =>   3
Atom  68H    basis set group =>   3
Atom  69H    basis set group =>   3
Atom  70H    basis set group =>   3
Atom  71H    basis set group =>   3
Atom  72H    basis set group =>   3
Atom  73H    basis set group =>   3
Atom  74H    basis set group =>   3
Atom  75H    basis set group =>   3
Atom  76H    basis set group =>   3
Atom  77H    basis set group =>   3
Atom  78H    basis set group =>   3
Atom  79H    basis set group =>   3
Atom  80H    basis set group =>   3
Atom  81H    basis set group =>   3
---------------------------------
AUXILIARY/X BASIS SET INFORMATION
---------------------------------
There are 3 groups of distinct atoms

 Group   1 Type C   : 15s13p12d5f5g contracted to 15s13p12d5f5g pattern {111111111111111/1111111111111/111111111111/11111/11111}
 Group   2 Type O   : 15s13p12d5f5g contracted to 15s13p12d5f5g pattern {111111111111111/1111111111111/111111111111/11111/11111}
 Group   3 Type H   : 12s4p3d2f contracted to 12s4p3d2f pattern {111111111111/1111/111/11}

Atom   0C    basis set group =>   1
Atom   1C    basis set group =>   1
Atom   2C    basis set group =>   1
Atom   3C    basis set group =>   1
Atom   4C    basis set group =>   1
Atom   5C    basis set group =>   1
Atom   6C    basis set group =>   1
Atom   7C    basis set group =>   1
Atom   8C    basis set group =>   1
Atom   9C    basis set group =>   1
Atom  10C    basis set group =>   1
Atom  11C    basis set group =>   1
Atom  12C    basis set group =>   1
Atom  13C    basis set group =>   1
Atom  14C    basis set group =>   1
Atom  15C    basis set group =>   1
Atom  16C    basis set group =>   1
Atom  17C    basis set group =>   1
Atom  18O    basis set group =>   2
Atom  19O    basis set group =>   2
Atom  20O    basis set group =>   2
Atom  21O    basis set group =>   2
Atom  22O    basis set group =>   2
Atom  23C    basis set group =>   1
Atom  24C    basis set group =>   1
Atom  25C    basis set group =>   1
Atom  26C    basis set group =>   1
Atom  27O    basis set group =>   2
Atom  28C    basis set group =>   1
Atom  29C    basis set group =>   1
Atom  30C    basis set group =>   1
Atom  31C    basis set group =>   1
Atom  32C    basis set group =>   1
Atom  33C    basis set group =>   1
Atom  34C    basis set group =>   1
Atom  35C    basis set group =>   1
Atom  36O    basis set group =>   2
Atom  37O    basis set group =>   2
Atom  38O    basis set group =>   2
Atom  39O    basis set group =>   2
Atom  40O    basis set group =>   2
Atom  41C    basis set group =>   1
Atom  42H    basis set group =>   3
Atom  43H    basis set group =>   3
Atom  44H    basis set group =>   3
Atom  45H    basis set group =>   3
Atom  46H    basis set group =>   3
Atom  47H    basis set group =>   3
Atom  48H    basis set group =>   3
Atom  49H    basis set group =>   3
Atom  50H    basis set group =>   3
Atom  51H    basis set group =>   3
Atom  52H    basis set group =>   3
Atom  53H    basis set group =>   3
Atom  54H    basis set group =>   3
Atom  55H    basis set group =>   3
Atom  56H    basis set group =>   3
Atom  57H    basis set group =>   3
Atom  58H    basis set group =>   3
Atom  59H    basis set group =>   3
Atom  60H    basis set group =>   3
Atom  61H    basis set group =>   3
Atom  62H    basis set group =>   3
Atom  63H    basis set group =>   3
Atom  64H    basis set group =>   3
Atom  65H    basis set group =>   3
Atom  66H    basis set group =>   3
Atom  67H    basis set group =>   3
Atom  68H    basis set group =>   3
Atom  69H    basis set group =>   3
Atom  70H    basis set group =>   3
Atom  71H    basis set group =>   3
Atom  72H    basis set group =>   3
Atom  73H    basis set group =>   3
Atom  74H    basis set group =>   3
Atom  75H    basis set group =>   3
Atom  76H    basis set group =>   3
Atom  77H    basis set group =>   3
Atom  78H    basis set group =>   3
Atom  79H    basis set group =>   3
Atom  80H    basis set group =>   3
Atom  81H    basis set group =>   3
--------------------------------------------------------------------------
WARNING: There is at least one non-excluded one OpenFabrics device found,
but there are no active ports detected (or Open MPI was unable to use
them).  This is most certainly not what you wanted.  Check your
cables, subnet manager configuration, etc.  The openib BTL will be
ignored for this job.

  Local host: c03b01n04
--------------------------------------------------------------------------
--------------------------------------------------------------------------
WARNING: There was an error initializing an OpenFabrics device.

  Local host:   c03b01n04
  Local device: mlx5_0
--------------------------------------------------------------------------
[c03b01n04:1584381] 9 more processes have sent help message help-mpi-btl-openib.txt / no active ports found
[c03b01n04:1584381] Set MCA parameter "orte_base_help_aggregate" to 0 to see all help / error messages
[c03b01n04:1584381] 49 more processes have sent help message help-mpi-btl-openib.txt / error in device init


           ************************************************************
           *        Program running with 60 parallel MPI-processes    *
           *              working on a common directory               *
           ************************************************************
------------------------------------------------------------------------------
                             ORCA STARTUP CALCULATIONS
                           -- RI-GTO INTEGRALS CHOSEN --
------------------------------------------------------------------------------
------------------------------------------------------------------------------
                   ___                                                        
                  /   \      - P O W E R E D   B Y -                         
                 /     \                                                     
                 |  |  |   _    _      __       _____    __    __             
                 |  |  |  | |  | |    /  \     |  _  \  |  |  /  |          
                  \  \/   | |  | |   /    \    | | | |  |  | /  /          
                 / \  \   | |__| |  /  /\  \   | |_| |  |  |/  /          
                |  |  |   |  __  | /  /__\  \  |    /   |      \           
                |  |  |   | |  | | |   __   |  |    \   |  |\   \          
                \     /   | |  | | |  |  |  |  | |\  \  |  | \   \       
                 \___/    |_|  |_| |__|  |__|  |_| \__\ |__|  \__/        
                                                                              
                      - O R C A' S   B I G   F R I E N D -                    
                                      &                                       
                       - I N T E G R A L  F E E D E R -                       
                                                                              
 v1 FN, 2020, v2 2021, v3 2022-2024                                           
------------------------------------------------------------------------------


----------------------
SHARK INTEGRAL PACKAGE
----------------------

Number of atoms                             ...     82
Number of basis functions                   ...   2072
Number of shells                            ...    744
Maximum angular momentum                    ...      3
Integral batch strategy                     ... SHARK/LIBINT Hybrid
RI-J (if used) integral strategy            ... SPLIT-RIJ (Revised 2003 algorithm where possible)
Printlevel                                  ...      1
Contraction scheme used                     ... SEGMENTED contraction
Prescreening option                         ... SCHWARTZ
   Thresh                                   ... 1.000e-10
   Tcut                                     ... 1.000e-11
   Tpresel                                  ... 1.000e-11 
Coulomb Range Separation                    ... NOT USED
Exchange Range Separation                   ... NOT USED
Multipole approximations                    ... NOT USED
Finite Nucleus Model                        ... NOT USED
CABS basis                                  ... NOT available
Auxiliary Coulomb fitting basis             ... AVAILABLE
   # of basis functions in Aux-J            ...  10268
   # of shells in Aux-J                     ...   2940
   Maximum angular momentum in Aux-J        ...      4
Auxiliary J/K fitting basis                 ... AVAILABLE
   # of basis functions in Aux-JK           ...  10268
   # of shells in Aux-JK                    ...   2940
   Maximum angular momentum in Aux-JK       ...      4
Auxiliary Correlation fitting basis         ... AVAILABLE
   # of basis functions in Aux-C            ...  10268
   # of shells in Aux-C                     ...   2940
   Maximum angular momentum in Aux-C        ...      4
Auxiliary 'external' fitting basis          ... NOT available

Checking pre-screening integrals            ... done (  0.0 sec) Dimension = 744
   => SHARK Basis and OBASIS are compatible. Storing Pre-screening
Shell pair information
Shell pair cut-off parameter TPreSel        ...   1.0e-11
Total number of shell pairs                 ...    277140
Shell pairs after pre-screening             ...    152433
Total number of primitive shell pairs       ...    823733
Primitive shell pairs kept                  ...    279428
          la=0 lb=0:  29025 shell pairs
          la=1 lb=0:  50667 shell pairs
          la=1 lb=1:  20694 shell pairs
          la=2 lb=0:  20007 shell pairs
          la=2 lb=1:  15149 shell pairs
          la=2 lb=2:   2688 shell pairs
          la=3 lb=0:   6865 shell pairs
          la=3 lb=1:   5181 shell pairs
          la=3 lb=2:   1822 shell pairs
          la=3 lb=3:    335 shell pairs

Checking whether 4 symmetric matrices of dimension 2072 fit in memory
:Max Core in MB      =   5000.00
 MB in use           =    188.13
 MB left             =   4811.87
 MB needed           =     65.54
 Data fit in memory  = YES
Calculating RI/J V-Matrix + Cholesky decomp.... done (  7.9 sec)
Calculating RI/JK V-Matrix + Cholesky decomp.... done (  3.9 sec)
Calculating RI/C V-Matrix + Cholesky decomp.... done (  4.7 sec)
Calculating Nuclear repulsion               ... done (  0.0 sec) ENN=   5744.395423558066 Eh

Diagonalization of the overlap matrix:
Smallest eigenvalue                        ... 6.865e-06
Time for diagonalization                   ...    4.106 sec
Threshold for overlap eigenvalues          ... 1.000e-07
Number of eigenvalues below threshold      ... 0
Time for construction of square roots      ...    0.358 sec
Total time needed                          ...    4.539 sec

-------------------
DFT GRID GENERATION
-------------------

General Integration Accuracy     IntAcc      ... 4.388
Radial Grid Type                 RadialGrid  ... OptM3 with GC (2021)
Angular Grid (max. ang.)         AngularGrid ... 4 (Lebedev-302)
Angular grid pruning method      GridPruning ... 4 (adaptive)
Weight generation scheme         WeightScheme... mBecke (2022)
Basis function cutoff            BFCut       ... 1.0000e-10
Integration weight cutoff        WCut        ... 1.0000e-14
Partially contracted basis set               ... off
Rotationally invariant grid construction     ... off
Angular grids for H and He will be reduced by one unit
Diffuse basis detected: some atoms will have their outermost
                        angular grid increased by 1.

Total number of grid points                  ...   376569
Total number of batches                      ...     5924
Average number of points per batch           ...       63
Average number of grid points per atom       ...     4592
Grids setup in   5.1 sec
Initializing property integral containers    ... done (  0.1 sec)

SHARK setup successfully completed in  41.1 seconds

Maximum memory used throughout the entire STARTUP-calculation: 260.2 MB
--------------------------------------------------------------------------
WARNING: There was an error initializing an OpenFabrics device.

  Local host:   c03b01n04
  Local device: mlx5_0
--------------------------------------------------------------------------
--------------------------------------------------------------------------
WARNING: There is at least one non-excluded one OpenFabrics device found,
but there are no active ports detected (or Open MPI was unable to use
them).  This is most certainly not what you wanted.  Check your
cables, subnet manager configuration, etc.  The openib BTL will be
ignored for this job.

  Local host: c03b01n04
--------------------------------------------------------------------------


           ************************************************************
           *        Program running with 60 parallel MPI-processes    *
           *              working on a common directory               *
           ************************************************************
-------------------------------------------------------------------------------
                                 ORCA GUESS
                   Start orbitals & Density for SCF / CASSCF
-------------------------------------------------------------------------------

------------
SCF SETTINGS
------------
Hamiltonian:
 Density Functional     Method          .... DFT(GTOs)
 Exchange Functional    Exchange        .... TPSS
 Correlation Functional Correlation     .... TPSS
 LDA part of GGA corr.  LDAOpt          .... PW91-LDA
 Gradients option       PostSCFGGA      .... off
   NL short-range parameter             ....  5.000000
 RI-approximation to the Coulomb term is turned on
   Number of AuxJ basis functions       .... 10268


General Settings:
 Integral files         IntName         .... nmr-conf-3
 Hartree-Fock type      HFTyp           .... RHF
 Total Charge           Charge          ....    0
 Multiplicity           Mult            ....    1
 Number of Electrons    NEL             ....  314
 Basis Dimension        Dim             .... 2072
 Nuclear Repulsion      ENuc            ....   5744.3954235581 Eh

Convergence Acceleration:
 AO-DIIS                CNVDIIS         .... on
   Start iteration      DIISMaxIt       ....    12
   Startup error        DIISStart       ....  0.200000
   # of expansion vecs  DIISMaxEq       ....     5
   Bias factor          DIISBfac        ....   1.050
   Max. coefficient     DIISMaxC        ....  10.000
 MO-DIIS                CNVKDIIS        .... off
 Trust-Rad. Augm. Hess. CNVTRAH         .... auto
   Auto Start mean grad. ratio tolernc. ....  1.125000
   Auto Start start iteration           ....    50
   Auto Start num. interpolation iter.  ....    10
   Max. Number of Micro iterations      ....    24
   Max. Number of Macro iterations      .... Maxiter - #DIIS iter
   Number of Davidson start vectors     ....     2
   Converg. threshold    (grad. norm)   ....   5.000e-05
   Grad. Scal. Fac. for Micro threshold ....   0.100
   Minimum threshold for Micro iter.    ....   1.000e-02
   NR start threshold (gradient norm)   ....   1.000e-04
   Initial trust radius                 ....   0.400
   Minimum AH scaling param. (alpha)    ....   1.000
   Maximum AH scaling param. (alpha)    .... 1000.000
   Quad. conv. algorithm                .... NR
   White noise on init. David. guess    .... on
   Maximum white noise                  ....   0.010
   Pseudo random numbers                .... off
   Inactive MOs                         .... canonical
   Orbital update algorithm             .... Taylor
   Preconditioner                       .... Diag
   Full preconditioner red. dimension   ....   250
 SOSCF                 CNVSOSCF           .... on
   Start iteration     SOSCFMaxIt         ....   150
   Startup grad/error  SOSCFStart         ....  0.003300
   Hessian update      SOSCFHessUp        .... L-BFGS
   Autom. constraints  SOSCFAutoConstrain .... off
 Level Shifting         CNVShift        .... on
   Level shift para.    LevelShift      ....    0.2500
   Turn off err/grad.   ShiftErr        ....    0.0010
 Zerner damping         CNVZerner       .... off
 Static damping         CNVDamp         .... on
   Fraction old density DampFac         ....    0.7000
   Max. Damping (<1)    DampMax         ....    0.9800
   Min. Damping (>=0)   DampMin         ....    0.0000
   Turn off err/grad.   DampErr         ....    0.1000

SCF Procedure:
 Maximum # iterations   MaxIter         ....   125
 SCF integral mode      SCFMode         .... Direct
   Integral package                     .... SHARK and LIBINT hybrid scheme
 Reset frequency        DirectResetFreq ....    20
 Integral Threshold     Thresh          ....  1.000e-10 Eh
 Primitive CutOff       TCut            ....  1.000e-11 Eh

Convergence Tolerance:
 Convergence Check Mode ConvCheckMode   .... Total+1el-Energy
 Convergence forced     ConvForced      .... 0
 Energy Change          TolE            ....  1.000e-06 Eh
 1-El. energy change                    ....  1.000e-03 Eh
 Orbital Gradient       TolG            ....  5.000e-05
 Orbital Rotation angle TolX            ....  5.000e-05
 DIIS Error             TolErr          ....  1.000e-06

------------------------------
INITIAL GUESS: MODEL POTENTIAL
------------------------------
Loading Hartree-Fock densities                     ... done
Calculating cut-offs                               ... done
Initializing the effective Hamiltonian             ... done
Setting up the integral package (SHARK)            ... done
Starting the Coulomb interaction                   ... [c03b01n04:1584783] 51 more processes have sent help message help-mpi-btl-openib.txt / error in device init
[c03b01n04:1584783] Set MCA parameter "orte_base_help_aggregate" to 0 to see all help / error messages
[c03b01n04:1584783] 7 more processes have sent help message help-mpi-btl-openib.txt / no active ports found
done (   3.3 sec)
Making the grid                                    ... done (   0.6 sec)
Mapping shells                                     ... done
Starting the XC term evaluation                    ... done (   1.2 sec)
  promolecular density results
     # of electrons  =    313.989116773
     EX              =   -260.304284216
     EC              =    -10.648854772
     EX+EC           =   -270.953138988
Transforming the Hamiltonian                       ... done (   0.4 sec)
Diagonalizing the Hamiltonian                      ... done (   0.5 sec)
Back transforming the eigenvectors                 ... done (   0.3 sec)
Now organizing SCF variables                       ... done
                      ------------------
                      INITIAL GUESS DONE (   7.3 sec)
                      ------------------
             **** ENERGY FILE WAS UPDATED (nmr-conf-3.en.tmp) ****
Finished Guess after  12.1 sec
Maximum memory used throughout the entire GUESS-calculation: 291.3 MB
--------------------------------------------------------------------------
WARNING: There was an error initializing an OpenFabrics device.

  Local host:   c03b01n04
  Local device: mlx5_0
--------------------------------------------------------------------------
--------------------------------------------------------------------------
WARNING: There is at least one non-excluded one OpenFabrics device found,
but there are no active ports detected (or Open MPI was unable to use
them).  This is most certainly not what you wanted.  Check your
cables, subnet manager configuration, etc.  The openib BTL will be
ignored for this job.

  Local host: c03b01n04
--------------------------------------------------------------------------


           ************************************************************
           *        Program running with 60 parallel MPI-processes    *
           *              working on a common directory               *
           ************************************************************

-------------------------------------------------------------------------------------------
                                      ORCA LEAN-SCF
                              memory conserving SCF solver
-------------------------------------------------------------------------------------------

[c03b01n04:1585345] 51 more processes have sent help message help-mpi-btl-openib.txt / error in device init
[c03b01n04:1585345] Set MCA parameter "orte_base_help_aggregate" to 0 to see all help / error messages
[c03b01n04:1585345] 7 more processes have sent help message help-mpi-btl-openib.txt / no active ports found
--------------------
CPCM SOLVATION MODEL
--------------------
CPCM parameters:
  Epsilon                                         ...      33.4280
  Refrac                                          ...       1.3288
  Rsolv                                           ...       1.3000
  Surface type                                    ... GAUSSIAN VDW
  Discretization scheme                           ... Constant charge density
    Threshold for H atoms                         ...       5.0000 (charges/Ang^2)
    Threshold for non-H atoms                     ...       5.0000 (charges/Ang^2)
  Epsilon function type                           ...         CPCM
Solvent:                                          ... METHANOL
Radii:
  Scheme                                          ... Element-dependent radii
  Radius for C  used is    3.8550 Bohr (=   2.0400 Ang.)
  Radius for O  used is    3.4469 Bohr (=   1.8240 Ang.)
  Radius for H  used is    2.4944 Bohr (=   1.3200 Ang.)
Calculating surface                               ...        done! (  0.2s)
Cavity surface points                             ...         6173
Cavity Volume                                     ...    4529.5999
Cavity Surface-area                               ...    2030.4789
Calculating surface distance matrix               ...        done! (  0.2s)
Performing Cholesky decomposition & store         ...        done! (  0.7s)
Overall time for CPCM initialization              ...                 1.6s

----------------------------------------D-I-I-S--------------------------------------------
Iteration    Energy (Eh)           Delta-E    RMSDP     MaxDP     DIISErr   Damp  Time(sec)
-------------------------------------------------------------------------------------------
               ***  Starting incremental Fock matrix formation  ***
    1    -2033.0337216505322431     0.00e+00  7.89e-03  2.40e-01  2.36e-01  0.700  13.1
    2    -2033.4356517885071298    -4.02e-01  6.50e-03  1.87e-01  8.17e-02  0.700   9.4
                               ***Turning on AO-DIIS***
    3    -2033.5864836599430419    -1.51e-01  2.80e-03  6.02e-02  2.49e-02  0.700   7.5
    4    -2033.6775045852418771    -9.10e-02  4.76e-03  6.84e-02  1.20e-02  0.000   7.3
    5    -2033.8788332184831233    -2.01e-01  1.26e-03  3.00e-02  4.64e-03  0.000   7.3
                              *** Initializing SOSCF ***
---------------------------------------S-O-S-C-F--------------------------------------
Iteration    Energy (Eh)           Delta-E    RMSDP     MaxDP     MaxGrad    Time(sec)
--------------------------------------------------------------------------------------
    6    -2033.8801707006387005    -1.34e-03  4.03e-04  9.33e-03  1.26e-03     8.3
               *** Restarting incremental Fock matrix formation ***
    7    -2033.8802744035792784    -1.04e-04  3.03e-04  5.51e-03  1.47e-04     7.9
    8    -2033.8802502167400235     2.42e-05  7.57e-05  2.07e-03  6.82e-04     6.4
    9    -2033.8802900700111422    -3.99e-05  6.94e-05  1.47e-03  1.30e-04    11.4
   10    -2033.8802901868748449    -1.17e-07  2.23e-05  7.07e-04  1.36e-04     7.8
                 **** Energy Check signals convergence ****

               *****************************************************
               *                     SUCCESS                       *
               *           SCF CONVERGED AFTER  10 CYCLES          *
               *****************************************************

             **** ENERGY FILE WAS UPDATED (nmr-conf-3.en.tmp) ****

----------------
TOTAL SCF ENERGY
----------------

Total Energy       :      -2033.88029057474614 Eh          -55344.69638 eV

Components:
Nuclear Repulsion  :       5744.39542355806589 Eh          156312.94627 eV
Electronic Energy  :      -7778.22903515646794 Eh         -211656.37245 eV
One Electron Energy:     -14215.23116348154326 Eh         -386816.10531 eV
Two Electron Energy:       6437.00212832507532 Eh          175159.73286 eV
CPCM Dielectric    :         -0.04667897634420 Eh              -1.27020 eV

Virial components:
Potential Energy   :      -4061.12243819547939 Eh         -110508.75970 eV
Kinetic Energy     :       2027.24214762073325 Eh           55164.06332 eV
Virial Ratio       :          2.00327446968375

DFT components:
N(Alpha)           :      157.000152636308 electrons
N(Beta)            :      157.000152636308 electrons
N(Total)           :      314.000305272616 electrons
E(X)               :     -268.094341342164 Eh       
E(C)               :      -10.608256558364 Eh       
E(XC)              :     -278.702597900528 Eh       

CPCM Solvation Model Properties:
Surface-charge          :         -0.04271000962407
Corrected charge        :          0.00000000000000
Outlying charge corr.   :          0.00007925237233 Eh               0.00216 eV
Free-energy (cav+disp)  :  This term is not implemented in the current solvation scheme

---------------
SCF CONVERGENCE
---------------

  Last Energy change         ...    1.1686e-07  Tolerance :   1.0000e-06
  Last MAX-Density change    ...    7.0746e-04  Tolerance :   1.0000e-05
  Last RMS-Density change    ...    2.2328e-05  Tolerance :   1.0000e-06
  Last DIIS Error            ...    1.2588e-03  Tolerance :   1.0000e-06
  Last Orbital Gradient      ...    1.3584e-04  Tolerance :   5.0000e-05
  Last Orbital Rotation      ...    2.8296e-04  Tolerance :   5.0000e-05


----------------
ORBITAL ENERGIES
----------------

  NO   OCC          E(Eh)            E(eV) 
   0   2.0000     -18.921072      -514.8685 
   1   2.0000     -18.919297      -514.8202 
   2   2.0000     -18.918433      -514.7967 
   3   2.0000     -18.918162      -514.7894 
   4   2.0000     -18.913250      -514.6557 
   5   2.0000     -18.910206      -514.5729 
   6   2.0000     -18.903971      -514.4032 
   7   2.0000     -18.880925      -513.7761 
   8   2.0000     -18.880291      -513.7588 
   9   2.0000     -18.877501      -513.6829 
  10   2.0000     -18.865190      -513.3479 
  11   2.0000     -10.046287      -273.3734 
  12   2.0000     -10.046160      -273.3699 
  13   2.0000     -10.045721      -273.3580 
  14   2.0000     -10.045446      -273.3505 
  15   2.0000     -10.045163      -273.3428 
  16   2.0000     -10.045033      -273.3392 
  17   2.0000     -10.042168      -273.2613 
  18   2.0000     -10.041615      -273.2462 
  19   2.0000     -10.036908      -273.1182 
  20   2.0000     -10.034636      -273.0563 
  21   2.0000     -10.034609      -273.0556 
  22   2.0000     -10.034033      -273.0399 
  23   2.0000     -10.033680      -273.0303 
  24   2.0000     -10.030626      -272.9472 
  25   2.0000     -10.025181      -272.7990 
  26   2.0000     -10.022726      -272.7322 
  27   2.0000      -9.993675      -271.9417 
  28   2.0000      -9.992434      -271.9079 
  29   2.0000      -9.988352      -271.7969 
  30   2.0000      -9.987504      -271.7738 
  31   2.0000      -9.987473      -271.7730 
  32   2.0000      -9.986939      -271.7584 
  33   2.0000      -9.985302      -271.7139 
  34   2.0000      -9.984666      -271.6966 
  35   2.0000      -9.984038      -271.6795 
  36   2.0000      -9.983946      -271.6770 
  37   2.0000      -9.983856      -271.6745 
  38   2.0000      -9.983184      -271.6562 
  39   2.0000      -9.979735      -271.5624 
  40   2.0000      -9.978190      -271.5203 
  41   2.0000      -9.976568      -271.4762 
  42   2.0000      -1.015034       -27.6205 
  43   2.0000      -1.012497       -27.5514 
  44   2.0000      -1.011831       -27.5333 
  45   2.0000      -1.001235       -27.2450 
  46   2.0000      -0.989387       -26.9226 
  47   2.0000      -0.984562       -26.7913 
  48   2.0000      -0.984021       -26.7766 
  49   2.0000      -0.955304       -25.9951 
  50   2.0000      -0.954612       -25.9763 
  51   2.0000      -0.950646       -25.8684 
  52   2.0000      -0.935766       -25.4635 
  53   2.0000      -0.799429       -21.7536 
  54   2.0000      -0.797670       -21.7057 
  55   2.0000      -0.795606       -21.6495 
  56   2.0000      -0.760727       -20.7004 
  57   2.0000      -0.734470       -19.9860 
  58   2.0000      -0.719904       -19.5896 
  59   2.0000      -0.703625       -19.1466 
  60   2.0000      -0.700706       -19.0672 
  61   2.0000      -0.699285       -19.0285 
  62   2.0000      -0.697321       -18.9751 
  63   2.0000      -0.689041       -18.7498 
  64   2.0000      -0.672229       -18.2923 
  65   2.0000      -0.652574       -17.7575 
  66   2.0000      -0.650100       -17.6901 
  67   2.0000      -0.649655       -17.6780 
  68   2.0000      -0.640788       -17.4367 
  69   2.0000      -0.620071       -16.8730 
  70   2.0000      -0.616820       -16.7845 
  71   2.0000      -0.612308       -16.6618 
  72   2.0000      -0.583298       -15.8723 
  73   2.0000      -0.569285       -15.4910 
  74   2.0000      -0.562225       -15.2989 
  75   2.0000      -0.559458       -15.2236 
  76   2.0000      -0.549139       -14.9428 
  77   2.0000      -0.544987       -14.8299 
  78   2.0000      -0.543154       -14.7800 
  79   2.0000      -0.536452       -14.5976 
  80   2.0000      -0.514669       -14.0048 
  81   2.0000      -0.513101       -13.9622 
  82   2.0000      -0.506702       -13.7881 
  83   2.0000      -0.496465       -13.5095 
  84   2.0000      -0.484035       -13.1713 
  85   2.0000      -0.479017       -13.0347 
  86   2.0000      -0.478299       -13.0152 
  87   2.0000      -0.472454       -12.8561 
  88   2.0000      -0.462373       -12.5818 
  89   2.0000      -0.456794       -12.4300 
  90   2.0000      -0.453499       -12.3403 
  91   2.0000      -0.449667       -12.2361 
  92   2.0000      -0.443991       -12.0816 
  93   2.0000      -0.441703       -12.0193 
  94   2.0000      -0.441098       -12.0029 
  95   2.0000      -0.432873       -11.7791 
  96   2.0000      -0.430682       -11.7194 
  97   2.0000      -0.425984       -11.5916 
  98   2.0000      -0.423794       -11.5320 
  99   2.0000      -0.420992       -11.4558 
 100   2.0000      -0.419345       -11.4109 
 101   2.0000      -0.415855       -11.3160 
 102   2.0000      -0.411783       -11.2052 
 103   2.0000      -0.402832       -10.9616 
 104   2.0000      -0.401764       -10.9325 
 105   2.0000      -0.401314       -10.9203 
 106   2.0000      -0.397511       -10.8168 
 107   2.0000      -0.391925       -10.6648 
 108   2.0000      -0.389176       -10.5900 
 109   2.0000      -0.387125       -10.5342 
 110   2.0000      -0.384442       -10.4612 
 111   2.0000      -0.382068       -10.3966 
 112   2.0000      -0.377333       -10.2678 
 113   2.0000      -0.376301       -10.2397 
 114   2.0000      -0.375260       -10.2113 
 115   2.0000      -0.371580       -10.1112 
 116   2.0000      -0.370792       -10.0898 
 117   2.0000      -0.369040       -10.0421 
[...]
  X           0.7739242    0.5089354   -0.3768634
  Y           0.2023793   -0.7626572   -0.6143261
  Z           0.6000699   -0.3991725    0.6932369

 --------------
 Nucleus  73H :
 --------------

Diamagnetic contribution to the shielding tensor (ppm) : 
            44.053          2.803         0.846
            17.048         36.048        10.106
            29.460        -28.046        90.078

Paramagnetic contribution to the shielding tensor (ppm): 
           -18.630         -3.559        -4.000
           -16.806         -9.857        -6.968
           -31.117         32.598       -59.830

Total shielding tensor (ppm): 
            25.424         -0.755        -3.154
             0.242         26.191         3.138
            -1.657          4.553        30.248


 Diagonalized sT*s matrix:
 
 sDSO            62.291           49.847           58.041  iso=      56.726
 sPSO           -39.047          -24.420          -24.850  iso=     -29.439
        ---------------  ---------------  ---------------
 Total           23.244           25.427           33.191  iso=      27.287

 Orientation: 
  X          -0.5219488    0.8123017   -0.2602604
  Y           0.6582904    0.5776399    0.4826861
  Z          -0.5424235   -0.0806105    0.8362288

 --------------
 Nucleus  74H :
 --------------

Diamagnetic contribution to the shielding tensor (ppm) : 
            60.940         20.835        -4.740
             9.367         61.139        -4.366
            10.959        -29.189       108.019

Paramagnetic contribution to the shielding tensor (ppm): 
           -28.980        -23.225         2.776
           -11.925        -34.766         6.766
           -14.492         30.487       -83.231

Total shielding tensor (ppm): 
            31.960         -2.390        -1.964
            -2.558         26.373         2.400
            -3.534          1.298        24.788


 Diagonalized sT*s matrix:
 
 sDSO           109.937           69.343           50.817  iso=      76.699
 sPSO           -86.526          -43.665          -16.787  iso=     -48.993
        ---------------  ---------------  ---------------
 Total           23.411           25.679           34.030  iso=      27.707

 Orientation: 
  X           0.1532635    0.4563416   -0.8765059
  Y          -0.4301268    0.8293601    0.3565849
  Z           0.8896636    0.3223572    0.3233954

 --------------
 Nucleus  75H :
 --------------

Diamagnetic contribution to the shielding tensor (ppm) : 
            35.786         -9.758        -2.891
            -7.926         22.378       -15.740
           -28.423         -6.621         7.184

Paramagnetic contribution to the shielding tensor (ppm): 
           -11.348          6.771        12.141
             5.170          2.543         8.818
            37.069          0.055        25.633

Total shielding tensor (ppm): 
            24.438         -2.988         9.250
            -2.757         24.921        -6.922
             8.647         -6.566        32.817


 Diagonalized sT*s matrix:
 
 sDSO            38.483           12.290           14.577  iso=      21.783
 sPSO           -20.098            9.856           27.070  iso=       5.609
        ---------------  ---------------  ---------------
 Total           18.385           22.146           41.646  iso=      27.392

 Orientation: 
  X          -0.7495157    0.4662488    0.4699344
  Y           0.2925902    0.8701059   -0.3966190
  Z           0.5938158    0.1597739    0.7885779

 --------------
 Nucleus  76H :
 --------------

Diamagnetic contribution to the shielding tensor (ppm) : 
            23.264         20.849         0.176
            -4.801         51.411         8.529
            42.002        -21.258        90.649

Paramagnetic contribution to the shielding tensor (ppm): 
             4.530        -11.178         6.376
            15.089        -24.631         0.008
           -34.878         30.929       -62.324

Total shielding tensor (ppm): 
            27.794          9.671         6.552
            10.288         26.779         8.537
             7.124          9.670        28.325


 Diagonalized sT*s matrix:
 
 sDSO            51.868           44.504           68.952  iso=      55.108
 sPSO           -35.214          -23.188          -24.024  iso=     -27.475
        ---------------  ---------------  ---------------
 Total           16.654           21.316           44.928  iso=      27.633

 Orientation: 
  X           0.5132043    0.6352740    0.5771033
  Y          -0.7947234    0.0978317    0.5990357
  Z           0.3240928   -0.7660652    0.5550748

 --------------
 Nucleus  77H :
 --------------

Diamagnetic contribution to the shielding tensor (ppm) : 
             5.037         38.580        -6.956
           -23.407         51.896       -12.370
            18.275        -35.847        94.672

Paramagnetic contribution to the shielding tensor (ppm): 
            29.845        -37.153        16.603
            26.012        -35.497         8.850
            -8.045         32.067       -63.714

Total shielding tensor (ppm): 
            34.882          1.427         9.646
             2.604         16.399        -3.520
            10.230         -3.780        30.958


 Diagonalized sT*s matrix:
 
 sDSO            34.608           69.448           47.549  iso=      50.535
 sPSO           -20.224          -44.662           -4.480  iso=     -23.122
        ---------------  ---------------  ---------------
 Total           14.384           24.786           43.069  iso=      27.413

 Orientation: 
  X          -0.2473467   -0.5863194    0.7713943
  Y           0.9014454   -0.4311622   -0.0386692
  Z           0.3552686    0.6858052    0.6351814

 --------------
 Nucleus  78H :
 --------------

Diamagnetic contribution to the shielding tensor (ppm) : 
            24.297         -1.647        -0.367
           -11.035         58.653         8.920
            50.747        -23.554       100.418

Paramagnetic contribution to the shielding tensor (ppm): 
            -0.203          0.336        -1.031
            11.909        -23.207       -10.449
           -52.895         23.964       -83.539

Total shielding tensor (ppm): 
            24.094         -1.311        -1.398
             0.874         35.446        -1.529
            -2.148          0.410        16.879


 Diagonalized sT*s matrix:
 
 sDSO           106.687           17.291           59.390  iso=      61.123
 sPSO           -90.235            7.219          -23.933  iso=     -35.650
        ---------------  ---------------  ---------------
 Total           16.452           24.510           35.457  iso=      25.473

 Orientation: 
  X           0.2206796    0.9753426    0.0027200
  Y           0.0451818   -0.0130084    0.9988941
  Z           0.9742993   -0.2203127   -0.0469384

 --------------
 Nucleus  79H :
 --------------

Diamagnetic contribution to the shielding tensor (ppm) : 
            41.073        -23.302        23.710
            11.295          0.830        17.189
            65.776        -43.995        40.139

Paramagnetic contribution to the shielding tensor (ppm): 
           -11.432         25.160       -19.800
            -8.081         26.493       -14.614
           -62.327         48.096       -12.528

Total shielding tensor (ppm): 
            29.640          1.858         3.910
             3.213         27.323         2.575
             3.449          4.102        27.610


 Diagonalized sT*s matrix:
 
 sDSO            20.081            8.265           53.696  iso=      27.347
 sPSO             3.867           17.666          -19.001  iso=       0.844
        ---------------  ---------------  ---------------
 Total           23.948           25.931           34.694  iso=      28.191

 Orientation: 
  X           0.2508498    0.7048486    0.6635231
  Y           0.5709228   -0.6612599    0.4866029
  Z          -0.7817426   -0.2567562    0.5682911

 --------------
 Nucleus  80H :
 --------------

Diamagnetic contribution to the shielding tensor (ppm) : 
            46.350        -24.858        13.392
            10.060          9.492        17.819
             9.329        -12.569        57.457

Paramagnetic contribution to the shielding tensor (ppm): 
           -18.044         25.377       -15.433
            -8.946         18.172       -20.537
           -10.565         12.036       -30.503

Total shielding tensor (ppm): 
            28.306          0.519        -2.041
             1.115         27.664        -2.719
            -1.236         -0.532        26.955


 Diagonalized sT*s matrix:
 
 sDSO            51.134           36.572           25.593  iso=      37.766
 sPSO           -25.756           -9.410            4.793  iso=     -10.125
        ---------------  ---------------  ---------------
 Total           25.378           27.162           30.385  iso=      27.642

 Orientation: 
  X           0.3409029    0.6875799   -0.6411076
  Y           0.4773037   -0.7141140   -0.5120766
  Z           0.8099175    0.1314346    0.5716280

 --------------
 Nucleus  81H :
 --------------

Diamagnetic contribution to the shielding tensor (ppm) : 
            47.307        -22.941        13.531
            11.698         24.445        19.094
            40.082        -23.719        70.600

Paramagnetic contribution to the shielding tensor (ppm): 
           -19.995         24.194       -11.640
           -13.481          6.209       -18.822
           -38.884         25.565       -46.615

Total shielding tensor (ppm): 
            27.312          1.253         1.891
            -1.784         30.654         0.272
             1.198          1.846        23.985


 Diagonalized sT*s matrix:
 
 sDSO            48.848           68.654           24.850  iso=      47.450
 sPSO           -25.627          -40.740            5.966  iso=     -20.134
        ---------------  ---------------  ---------------
 Total           23.221           27.914           30.815  iso=      27.317

 Orientation: 
  X          -0.3607345    0.9320204   -0.0347637
  Y          -0.1412575   -0.0177538    0.9898137
  Z           0.9219094    0.3619706    0.1380593

[c03b01n04:1586729] 50 more processes have sent help message help-mpi-btl-openib.txt / error in device init
[c03b01n04:1586729] Set MCA parameter "orte_base_help_aggregate" to 0 to see all help / error messages
[c03b01n04:1586729] 8 more processes have sent help message help-mpi-btl-openib.txt / no active ports found


--------------------------------
CHEMICAL SHIELDING SUMMARY (ppm)
--------------------------------


  Nucleus  Element    Isotropic     Anisotropy
  -------  -------  ------------   ------------
      0       C           24.858        122.292 
      1       C           44.553         91.583 
      2       C           25.728        119.274 
      3       C           75.447        127.074 
      4       C           38.420        194.890 
      5       C           77.478        133.425 
      6       C          147.766         26.506 
      7       C          135.389         25.278 
      8       C          136.639         33.336 
      9       C          142.115         43.213 
     10       C           45.686        182.050 
     11       C           70.485        155.109 
     12       C           29.350        120.416 
     13       C           32.252        122.699 
     14       C           67.036        144.341 
     15       C           56.855        148.514 
     16       C          112.109         68.135 
     17       C          112.185         71.265 
     23       C           92.567         33.773 
     24       C          103.715         39.346 
     25       C           41.832        169.133 
     26       C          110.596         57.930 
     28       C           73.209        164.572 
     29       C           30.868        117.430 
     30       C           34.569        118.096 
     31       C           67.456        147.216 
     32       C           63.417        167.675 
     33       C          122.509         74.207 
     34       C          124.458         78.765 
     35       C          124.160         77.206 
     41       C          123.050         76.261 
     42       H           25.553          9.833 
     43       H           26.472          8.619 
     44       H           29.917          6.920 
     45       H           28.894          5.660 
     46       H           30.710          4.415 
     47       H           28.966          3.005 
     48       H           29.176          4.730 
     49       H           28.641          8.467 
     50       H           24.520         10.153 
     51       H           24.699          2.471 
     52       H           24.676          5.708 
     53       H           28.018          7.403 
     54       H           28.251          4.180 
     55       H           28.260          5.326 
     56       H           27.690          3.752 
     57       H           25.311         12.378 
     58       H           26.568          2.513 
     59       H           26.988          5.972 
     60       H           27.854          5.473 
     61       H           27.378          6.568 
     62       H           29.371         13.702 
     63       H           24.518         11.328 
     64       H           25.133          4.668 
     65       H           25.169          5.895 
     66       H           28.201          8.356 
     67       H           28.595         10.065 
     68       H           27.529          6.909 
     69       H           27.993          9.694 
     70       H           27.478          9.466 
     71       H           27.944          7.420 
     72       H           27.607          5.597 
     73       H           27.287          8.856 
     74       H           27.707          9.485 
     75       H           27.392         21.381 
     76       H           27.633         25.943 
     77       H           27.413         23.484 
     78       H           25.473         14.976 
     79       H           28.191          9.755 
     80       H           27.642          4.116 
     81       H           27.317          5.248 


NMR shielding tensor and spin rotation calculation done in   2.5 sec 

Maximum memory used throughout the entire PROP-calculation: 369.1 MB
--------------------------------------------------------------------------
WARNING: There was an error initializing an OpenFabrics device.

  Local host:   c03b01n04
  Local device: mlx5_0
--------------------------------------------------------------------------
--------------------------------------------------------------------------
WARNING: There is at least one non-excluded one OpenFabrics device found,
but there are no active ports detected (or Open MPI was unable to use
them).  This is most certainly not what you wanted.  Check your
cables, subnet manager configuration, etc.  The openib BTL will be
ignored for this job.

  Local host: c03b01n04
--------------------------------------------------------------------------
[c03b01n04:1587158] 50 more processes have sent help message help-mpi-btl-openib.txt / error in device init
[c03b01n04:1587158] Set MCA parameter "orte_base_help_aggregate" to 0 to see all help / error messages
[c03b01n04:1587158] 8 more processes have sent help message help-mpi-btl-openib.txt / no active ports found

--------------------------------
SUGGESTED CITATIONS FOR THIS RUN
--------------------------------

Below you find a list of papers that are relevant to this ORCA run
We neither can nor want to force you to cite these papers, but we appreciate if you do
You receive ORCA, which is the product of decades of hard work by many enthusiastic individuals, for free
The only thing we kindly ask in return is that you cite our papers,
We deeply appreciate it, if you show your appreciation for ORCA by not just citing the generic ORCA reference.

Please note that relegating all ORCA citations to the supporting information does *not* help us.
SI sections are not indexed - citations you put there will not count into any citation statistics
But we need these citations in order to attract the funding resources that allow us to do what we are doing

Therefore, if you are a happy ORCA user, please consider citing a few of the papers listed below in the main body of your paper

In addition to the list printed below, the program has created the file nmr-conf-3.bibtex that contains the list in bibtex format
You can import this file easily into all common literature databanks and citation aid programs


List of essential papers. We consider these as the minimum necessary citations

  1. Neese, F.
     Software update: the ORCA program system, version 6.0
     WIRES Comput. Molec. Sci. 2025 15(1), e70019
     doi.org/10.1002/wcms.7019

List of papers to cite with high priority. The work reported in these papers was absolutely
necessary for this run to complete.
Our perspective: the developers of density functionals and basis sets usually get cited in chemistry papers
Good! But without the algorithms to do something with them, the functionals or basis sets would not do anything.
Hence, in our opinion, the algorithm design and method developments papers are equally worthy of getting cited

  1. Neese, F.
     An improvement of the resolution of the identity approximation for the formation of the Coulomb matrix
     J. Comp. Chem. 2003 24(14), 1740-1747
     doi.org/10.1002/jcc.10318
  2. Stoychev, G.L.; Auer, A.A.; Neese, F.
     Automatic Generation of Auxiliary Basis Sets
     J. Theo. Comp. Chem. 2017 13 , 554-562
     doi.org/10.1021/acs.jctc.6b01041
  3. Stoychev, G.L.; Auer, A.A.; Izsak, R.; Neese, F.
     Self-Consistent Field Calculation of Nuclear Magnetic Resonance Chemical Shielding Constants Using Gauge-Including Atomic Orbitals and Approximate Two-Electron Integrals
     J. Chem. Theory Comput. 2018 14(2), 619-637
     doi.org/10.1021/acs.jctc.7b01006
  4. Garcia-Rates, M.; Neese, F.
     Effect of the Solute Cavity on the Solvation Energy and its Derivatives within the Framework of the Gaussian Charge Scheme
     J. Comput. Chem. 2020 41 , 922-939
     doi.org/10.1002/jcc.26139
  5. Neese, F.
     The SHARK Integral Generation and Digestion System
     J. Comp. Chem. 2022 44(3), 381
     doi.org/10.1002/jcc.26942

List of suggested additional citations. These are papers that are important in the 'surrounding' of 
of this run, or papers that preceded the highly important papers. If you like your results we are grateful for a citation.

  1. Neese, F.
     The ORCA program system
     WIRES Comput. Molec. Sci. 2012 2(1), 73-78
     doi.org/10.1002/wcms.81
  2. Neese, F.
     Software update: the ORCA program system, version 4.0
     WIRES Comput. Molec. Sci. 2018 8(1), 1-6
     doi.org/10.1002/wcms.1327
  3. Neese, F.; Wennmohs, F.; Becker, U.; Riplinger, C.
     The ORCA quantum chemistry program package
     J. Chem. Phys. 2020 152(22), 224108
     doi.org/10.1063/5.0004608
  4. Neese, F.
     Software update: The ORCA program system—Version 5.0
     WIRES Comput. Molec. Sci. 2022 12(1), e1606
     doi.org/10.1002/wcms.1606

List of optional additional citations

  1. Neese, F.
     Approximate second-order SCF convergence for spin unrestricted wavefunctions
     Chem. Phys. Lett. 2000 325(1-3), 93-98
     doi.org/10.1016/s0009-2614(00)00662-x

Timings for individual modules:

Sum of individual times          ...      284.469 sec (=   4.741 min)
Startup calculation              ...       86.410 sec (=   1.440 min)  30.4 %
SCF iterations                   ...      121.034 sec (=   2.017 min)  42.5 %
Property integrals               ...       52.948 sec (=   0.882 min)  18.6 %
SCF Response                     ...       16.680 sec (=   0.278 min)   5.9 %
Property calculations            ...        7.396 sec (=   0.123 min)   2.6 %
                             ****ORCA TERMINATED NORMALLY****
TOTAL RUN TIME: 0 days 0 hours 5 minutes 14 seconds 95 msec
