
                                 *****************
                                 * O   R   C   A *
                                 *****************

                                            #,                                       
                                            ###                                      
                                            ####                                     
                                            #####                                    
                                            ######                                   
                                           ########,                                 
                                     ,,################,,,,,                         
                               ,,#################################,,                 
                          ,,##########################################,,             
                       ,#########################################, ''#####,          
                    ,#############################################,,   '####,        
                  ,##################################################,,,,####,       
                ,###########''''           ''''###############################       
              ,#####''   ,,,,##########,,,,          '''####'''          '####       
            ,##' ,,,,###########################,,,                        '##       
           ' ,,###''''                  '''############,,,                           
         ,,##''                                '''############,,,,        ,,,,,,###''
      ,#''                                            '''#######################'''  
     '                                                          ''''####''''         
             ,#######,   #######,   ,#######,      ##                                
            ,#'     '#,  ##    ##  ,#'     '#,    #''#        ,####,    ,#,          
            ##       ##  ##   ,#'  ##            #'  '#       #'       ,# #          
            ##       ##  #######   ##           ,######,      #####,      #          
            '#,     ,#'  ##    ##  '#,     ,#' ,#      #,     #,   #      #          
             '#######'   ##     ##  '#######'  #'      '#     '####' #    #          



                #########################################################
                #                        -***-                          #
                #          Department of theory and spectroscopy        #
                #                                                       #
                #                      Frank Neese                      #
                #                                                       #
                #     Directorship, Architecture, Infrastructure        #
                #                    SHARK, DRIVERS                     #
                #        Core code/Algorithms in most modules           #
                #                                                       #
                #        Max Planck Institute fuer Kohlenforschung      #
                #                Kaiser Wilhelm Platz 1                 #
                #                 D-45470 Muelheim/Ruhr                 #
                #                      Germany                          #
                #                                                       #
                #                  All rights reserved                  #
                #                        -***-                          #
                #########################################################


                         Program Version 6.1.0-f.0  -   RELEASE   -


 With contributions from (in alphabetic order):
[Max-Planck-Institut fuer Kohlenforschung]                               
  Daniel Aravena         : Magnetic Suceptibility                        
  Michael Atanasov       : Ab Initio Ligand Field Theory (pilot matlab implementation)
  Alexander A. Auer      : GIAO ZORA, VPT2 properties, NMR spectrum      
  Ute Becker             : All parallelization in ORCA, NUMFREQ, NUMCALC 
  Giovanni Bistoni       : ED, misc. LED, open-shell LED, HFLD           
  Dmytro Bykov           : pre 5.0 version of the SCF Hessian            
  Marcos Casanova-Páez   : Triplet and SCS-CIS(D). UHF-(DLPNO)-IP/EA/STEOM-CCSD. UHF-CVS-IP/STEOM-CCSD   
  Vijay G. Chilkuri      : MRCI spin determinant printing, contributions to CSF-ICE 
  Pauline Colinet        : FMM embedding                                 
  Dipayan Datta          : RHF DLPNO-CCSD density                        
  Achintya Kumar Dutta   : EOM-CC, STEOM-CC                              
  Nicolas Foglia         : Exact transition moments, OPA infrastructure, MCD improvements    
  Dmitry Ganyushin       : Spin-Orbit,Spin-Spin,Magnetic field MRCI      
  Miquel Garcia-Rates    : C-PCM and meta-GGA Hessian, CCSD/C-PCM, Gaussian charge scheme 
  Tiago L. C. Gouveia    : GS-ROHF, GS-ROCIS                             
  Yang Guo               : DLPNO-NEVPT2, F12-NEVPT2, CIM, IAO-localization        
  Andreas Hansen         : Spin unrestricted coupled pair/coupled cluster methods 
  Ingolf Harden          : AUTO-CI MPn and infrastructure                
  Benjamin Helmich-Paris : MC-RPA, TRAH-(SCF,CASSCF), AVAS, COSX integrals, SCF dyn. polar., MC-PDFT, srDFT 
  Lee Huntington         : MR-EOM, pCC                                   
  Robert Izsak           : Overlap fitted RIJCOSX, COSX-SCS-MP3, EOM     
  Riya Kayal             : Wick's Theorem for AUTO-CI, AUTO-CI UHF-CCSDT 
  Emily Kempfer          : AUTO-CI RHF CISDT and CCSDT, approximate NEVPT4
  Christian Kollmar      : KDIIS, OOCD, Brueckner-CCSD(T), CCSD density, CASPT2, CASPT2-K, improved NEVPT2 
  Axel Koslowski         : Symmetry handling                             
  Simone Kossmann        : meta-GGA functionals, TD-DFT gradient, OOMP2, (MP2 Hessian; deprecated post 5.0) 
  Lucas Lang             : DCDCAS, Hyperfine gauge corrections, ICE-SOC+SSC
  Marvin Lechner         : AUTO-CI (C++ implementation), FIC-MRCC        
  Spencer Leger          : CASSCF response                               
  Dagmar Lenk            : GEPOL surface, SMD, ORCA-2-JSON               
  Dimitrios Liakos       : Extrapolation schemes; Compound Job, Property file
  Dimitrios Manganas     : Further ROCIS development; embedding schemes. LFT, Crystal Embedding 
  Dimitrios Pantazis     : SARC Basis sets                               
  Anastasios Papadopoulos: AUTO-CI, single reference methods and gradients 
  Taras Petrenko         : pre 6.0 DFT Hessian and TD-DFT gradient,  ECA, NRVS 
  Petra Pikulova         : Analytic Raman intensities                    
  Peter Pinski           : DLPNO-MP2, DLPNO-MP2 Gradient                 
  Shashank Vittal Rao    : ES-AILFT, MagRelax                            
  Christoph Reimann      : Effective Core Potentials                     
  Marius Retegan         : Local ZFS, SOC                                
  Christoph Riplinger    : Optimizer, TS searches, QM/MM, DLPNO-CCSD(T), (RO)-DLPNO pert. Triples 
  Michael Roemelt        : Original ROCIS implementation, recursive CI coupling coefficients
  Masaaki Saitow         : Open-shell DLPNO-CCSD energy and density      
  Barbara Sandhoefer     : DKH picture change effects                    
  Yorick L. A. Schmerwitz: GMF and freeze-and-release deltaSCF, NEB S-IDPP initial path                    
  Kantharuban Sivalingam : CASSCF convergence/infrastructure, NEVPT2, NEVPT3, NEVPT4(SD), FIC-MRCI and CEPA variants
  Bernardo de Souza      : ESD, SOC TD-DFT                               
  Georgi L. Stoychev     : AutoAux, RI-MP2 NMR, DLPNO-MP2 response, X2C  
  Van Anh Tran           : RI-MP2 g-tensors                              
  Willem Van den Heuvel  : Paramagnetic NMR                              
  Zikuan Wang            : NOTCH, Electric field optimization            
  Frank Wennmohs         : Technical directorship and infrastructure     
  Hang Xu                : AUTO-CI-Response properties                   
                                                                         
[FACCTs GmbH]                                                            
  Markus Bursch, Nicolas Foglia, Miquel Garcia-Rates, Ingolf Harden, Hagen Neugebauer, Anastasios Papadopoulos, 
  Christoph Riplinger, Bernardo de Souza, Georgi L. Stoychev                                                    
                                                                 
  APM, various basis sets, CI-OPT, improved COSX, DLPNO-Multilevel,           
  DOCKER, DRACO, updates on ESD, Fragmentator, GOAT, IRC, LR-CPCM, L-BFGS, MBIS, meta-GGA TD-DFT gradient, ML-optimized integration grids, 
  MM, NACMEs, nearIR, NEB, NEB-TS, NL-DFT gradient (VV10), 2- and 3-layer-ONIOM, interface openCOSMO-RS, QMMM,   
  Crystal-QMMM, RESP, rigid body optimization, SF, symmetry and pop. for TD-DFT, various functionals, SOLVATOR                                   
                                                                         
[Other institutions]                                                     
  V. Asgeirsson          : NEB                                           
  Christoph Bannwarth    : sTDA-DFT, sTD-DFT, PBEh-3c, B97-3c, D3        
  Giovanni Bistoni       : ETS/NOCV, ADLD/ADEX, COVALED                  
  Martin Brehm           : Molecular dynamics                            
  Ronald Cardenas        : ETS/NOCV                                      
  Martina Colucci        : COVALED                                       
  Sebastian Ehlert       : rSCAN, r2SCAN, r2SCAN-3c, D4, dhf basis sets  
  Marvin Friede          : D4 for Fr, Ra, Ac-Lr                          
  Lars Goerigk           : TD-DFT with DH, B97 family of functionals     
  Stefan Grimme          : VdW corrections, initial TS optimization, DFT functionals, gCP, sTDA/sTD-DF 
  Waldemar Hujo          : DFT-NL                                        
  H. Jonsson             : NEB                                           
  Holger Kruse           : gCP                                           
  Marcel Mueller         : wB97X-3c, vDZP basis set                      
  Hagen Neugebauer       : wr2SCAN, Native XTB                           
  Gianluca Regni         : ADLD/ADEX                                     
  Tobias Risthaus        : pre 6.0 range-separated hybrid DFT and stability analysis
  Lukas Wittmann         : regularized MP2, r2SCAN double-hybrids, wr2SCAN        
                                                                         
We gratefully acknowledge several colleagues who have allowed us to      
interface, adapt or use parts of their codes:                            
  Ed Valeev, F. Pavosevic, A. Kumar             : LibInt (2-el integral package), F12 methods 
  Garnet Chan, S. Sharma, J. Yang, R. Olivares  : DMRG                   
  Ulf Ekstrom                                   : XCFun DFT Library      
  Mihaly Kallay                                 : mrcc  (arbitrary order and MRCC methods)
  Frank Weinhold                                : gennbo (NPA and NBO analysis)           
  Simon Mueller                                 : openCOSMO-RS                            
  Christopher J. Cramer and Donald G. Truhlar   : smd solvation model                     
  S Lehtola, MJT Oliveira, MAL Marques          : LibXC Library                           
  Liviu Ungur et al                             : ANISO software                          


 Your calculation uses the libint2 library for the computation of 2-el integrals
 For citations please refer to: http://libint.valeyev.net

 Your ORCA version has been built with support for libXC version: 7.0.0
 For citations please refer to: https://libxc.gitlab.io

 This ORCA versions uses:
   CBLAS   interface :  Fast vector & matrix operations
   LAPACKE interface :  Fast linear algebra routines
   SCALAPACK package :  Parallel linear algebra routines
   Shared memory     :  Shared parallel matrices
   BLAS/LAPACK       :  OpenBLAS 0.3.29  USE64BITINT DYNAMIC_ARCH NO_AFFINITY Cooperlake SINGLE_THREADED
        Core in use  :  Cooperlake
   Copyright (c) 2011-2014, The OpenBLAS Project


  ***********************************
  * Starting time: Tue Mar  3 21:38:19 2026
  * Host name:     c01b01n02
  * Process ID:    1397289
  * Working dir.:  /lustre1/jiangy/jiangy_liuxy/NMR/B9D7C2-RSSS-NMR/opt_conf
  ***********************************

NOTE: MaxCore=5000 MB was set to SCF,MP2,MDCI,CIPSI,MRCI,RASCI and CIS
      => If you want to overwrite this, your respective input block should be placed after the MaxCore statement


***************************************
The coordinates will be read from file: opt-conf-14.xyz
***************************************



Warning: The global flag for NMR shieldings has been found
         but shieldings for certain elements have also been explicitly requested in the EPRNMR block
         ==>> only the requested shieldings will be calculated

================================================================================

----- Orbital basis set information -----
Your calculation utilizes the basis: pcSseg-2
   F. Jensen, J. Chem. Theory Comput. 11, 132 (2015).

----- AuxJ basis set information -----
Your calculation utilizes the AutoAux generation procedure.
  G. L. Stoychev, A. A. Auer, F. Neese, J. Chem. Theory Comput. 13, 554 (2017)

----- AuxC basis set information -----
Your calculation utilizes the AutoAux generation procedure.
  G. L. Stoychev, A. A. Auer, F. Neese, J. Chem. Theory Comput. 13, 554 (2017)

----- AuxJK basis set information -----
Your calculation utilizes the AutoAux generation procedure.
  G. L. Stoychev, A. A. Auer, F. Neese, J. Chem. Theory Comput. 13, 554 (2017)

----- AuxX basis set information -----
Your calculation utilizes the AutoAux generation procedure.
  G. L. Stoychev, A. A. Auer, F. Neese, J. Chem. Theory Comput. 13, 554 (2017)

================================================================================
                                        WARNINGS
                       Please study these warnings very carefully!
================================================================================


================================================================================
                                       INPUT FILE
================================================================================
NAME = nmr-conf-14.inp
|  1> !TPSS PCSSEG-2 AUTOAUX NMR CPCM(Methanol)
|  2> 
|  3> %pal nprocs 60 end
|  4> %maxcore 5000
|  5> 
|  6> *XYZFILE 0 1 opt-conf-14.xyz
|  7> 
|  8> %EPRNMR
|  9>    NUCLEI = ALL C {SHIFT}
| 10>    NUCLEI = ALL H {SHIFT}
| 11>    TAU DOBSON
| 12> END
| 13> 
| 14> 
| 15>                          ****END OF INPUT****
================================================================================

                       ****************************
                       * Single Point Calculation *
                       ****************************

---------------------------------
CARTESIAN COORDINATES (ANGSTROEM)
---------------------------------
  C     11.788409  -11.949152   -1.823565
  C     12.250224  -13.247987   -1.601425
  C     11.351152  -14.315544   -1.649250
  C      9.997249  -14.075832   -1.879004
  C      9.535797  -12.776024   -2.066093
  C     10.436278  -11.712438   -2.047919
  C      8.063435  -12.503059   -2.254812
  C      7.391730  -11.949065   -0.976131
  C      6.057036  -11.203070   -1.199141
  C      6.168792  -10.015701   -2.173934
  C      7.277149   -9.036882   -1.876524
  C      7.327035   -8.369772   -0.645353
  C      8.331527   -7.452802   -0.376902
  C      9.315366   -7.185406   -1.343113
  C      9.271038   -7.838399   -2.559253
  C      8.257559   -8.760031   -2.820837
  C      7.258757  -13.072340    0.055408
  C      4.858745  -12.076721   -1.575576
  O     11.888186  -15.547291   -1.444774
  O     12.739703  -10.972635   -1.784022
  O     13.592590  -13.453475   -1.386900
  O     10.309487   -6.283193   -1.087521
  O      8.469883   -6.739310    0.777452
  C     14.001521  -13.819786   -0.049865
  C     13.971507  -12.609110    0.899623
  C     12.567370  -12.209281    1.345894
  C     15.400983  -14.383810   -0.207870
  O     15.412003  -15.542428   -1.037366
  C     12.222762  -10.858202    1.414135
  C     10.948962  -10.472536    1.803810
  C     10.001886  -11.443537    2.145398
  C     10.345474  -12.781706    2.113229
  C     11.623766  -13.161899    1.717156
  C     12.321932   -9.622091   -1.986041
  C     11.013243  -16.673196   -1.437479
  C      7.494941   -6.908530    1.803013
  O     14.689889  -11.521321    0.333678
  O      6.695615  -12.652511    1.297212
  O      4.918553  -12.652342   -2.888569
  O     10.497841   -9.188016    1.886337
  O      8.737909  -11.065884    2.519991
  C     11.447849   -8.127783    1.781237
  H      9.294970  -14.895847   -1.904991
  H     10.072244  -10.707146   -2.197015
  H      7.569685  -13.427578   -2.563630
  H      7.935440  -11.790001   -3.068867
  H      8.080418  -11.207862   -0.558104
  H      5.791108  -10.794702   -0.218492
  H      6.288798  -10.383683   -3.193626
  H      5.208330   -9.489065   -2.153314
  H      6.569810   -8.571519    0.099634
  H     10.033120   -7.623967   -3.297932
  H      8.236518   -9.265926   -3.778220
  H      8.239814  -13.525850    0.221576
  H      6.602981  -13.858033   -0.327103
  H      4.707722  -12.862713   -0.831721
  H      3.963688  -11.450691   -1.574355
  H     10.164190   -5.908289   -0.206096
  H     13.346295  -14.607630    0.320690
  H     14.538706  -12.900844    1.789519
  H     15.777426  -14.690539    0.768625
  H     16.064485  -13.611629   -0.609819
  H     14.958078  -15.307747   -1.858018
  H     12.953156  -10.111962    1.144695
  H      9.608242  -13.522616    2.395187
  H     11.863851  -14.215828    1.695082
  H     11.909912   -9.491403   -2.988231
  H     11.577561   -9.326817   -1.246391
  H     13.216038   -9.014410   -1.872248
  H     10.265691  -16.584730   -0.645646
  H     10.511588  -16.788749   -2.401167
  H     11.645345  -17.537494   -1.249054
  H      6.502006   -6.624913    1.445942
  H      7.472135   -7.941454    2.156263
  H      7.796165   -6.251355    2.614700
  H     14.227560  -11.273940   -0.485949
  H      7.330109  -12.056499    1.729245
  H      5.484005  -13.431943   -2.859407
  H      8.685733  -10.098006    2.489297
  H     10.892941   -7.212884    1.966104
  H     12.238038   -8.245732    2.526202
  H     11.886593   -8.092380    0.783072

----------------------------
CARTESIAN COORDINATES (A.U.)
----------------------------
  NO LB      ZA    FRAG     MASS         X           Y           Z
   0 C     6.0000    0    12.011   22.276865  -22.580625   -3.446038
   1 C     6.0000    0    12.011   23.149568  -25.035066   -3.026255
   2 C     6.0000    0    12.011   21.450568  -27.052457   -3.116631
   3 C     6.0000    0    12.011   18.892063  -26.599467   -3.550804
   4 C     6.0000    0    12.011   18.020044  -24.143186   -3.904351
   5 C     6.0000    0    12.011   19.721708  -22.133300   -3.870007
   6 C     6.0000    0    12.011   15.237683  -23.627358   -4.260978
   7 C     6.0000    0    12.011   13.968345  -22.580460   -1.844620
   8 C     6.0000    0    12.011   11.446138  -21.170734   -2.266048
   9 C     6.0000    0    12.011   11.657328  -18.926932   -4.108140
  10 C     6.0000    0    12.011   13.751819  -17.077232   -3.546116
  11 C     6.0000    0    12.011   13.846089  -15.816577   -1.219540
  12 C     6.0000    0    12.011   15.744304  -14.083755   -0.712241
  13 C     6.0000    0    12.011   17.603490  -13.578449   -2.538117
  14 C     6.0000    0    12.011   17.519724  -14.812427   -4.836288
  15 C     6.0000    0    12.011   15.604525  -16.554060   -5.330609
  16 C     6.0000    0    12.011   13.717063  -24.703142    0.104706
  17 C     6.0000    0    12.011    9.181697  -22.821696   -2.977407
  18 O     8.0000    0    15.999   22.465416  -29.380122   -2.730228
  19 O     8.0000    0    15.999   24.074549  -20.735275   -3.371312
  20 O     8.0000    0    15.999   25.686273  -25.423383   -2.620861
  21 O     8.0000    0    15.999   19.482108  -11.873514   -2.055116
  22 O     8.0000    0    15.999   16.005759  -12.735449    1.469171
  23 C     6.0000    0    12.011   26.459039  -26.115610   -0.094232
  24 C     6.0000    0    12.011   26.402322  -23.827765    1.700041
  25 C     6.0000    0    12.011   23.748888  -23.072197    2.543371
  26 C     6.0000    0    12.011   29.103641  -27.181462   -0.392817
  27 O     8.0000    0    15.999   29.124466  -29.370932   -1.960339
  28 C     6.0000    0    12.011   23.097673  -20.519029    2.672327
  29 C     6.0000    0    12.011   20.690540  -19.790224    3.408707
  30 C     6.0000    0    12.011   18.900825  -21.625150    4.054215
  31 C     6.0000    0    12.011   19.550113  -24.153924    3.993424
  32 C     6.0000    0    12.011   21.965735  -24.872384    3.244954
  33 C     6.0000    0    12.011   23.285077  -18.183116   -3.753074
  34 C     6.0000    0    12.011   20.812013  -31.507773   -2.716442
  35 C     6.0000    0    12.011   14.163385  -13.055230    3.407202
  36 O     8.0000    0    15.999   27.759868  -21.772142    0.630560
  37 O     8.0000    0    15.999   12.652878  -23.909781    2.451376
  38 O     8.0000    0    15.999    9.294717  -23.909461   -5.458604
  39 O     8.0000    0    15.999   19.838044  -17.362835    3.564660
  40 O     8.0000    0    15.999   16.512256  -20.911491    4.762093
  41 C     6.0000    0    12.011   21.633299  -15.359284    3.366049
  42 H     1.0000    0     1.008   17.564948  -28.149071   -3.599912
  43 H     1.0000    0     1.008   19.033782  -20.233574   -4.151756
  44 H     1.0000    0     1.008   14.304631  -25.374445   -4.844559
  45 H     1.0000    0     1.008   14.995808  -22.279874   -5.799318
  46 H     1.0000    0     1.008   15.269776  -21.179789   -1.054664
  47 H     1.0000    0     1.008   10.943609  -20.399031   -0.412890
  48 H     1.0000    0     1.008   11.884107  -19.622316   -6.035079
  49 H     1.0000    0     1.008    9.842317  -17.931734   -4.069173
  50 H     1.0000    0     1.008   12.415142  -16.197823    0.188281
  51 H     1.0000    0     1.008   18.959849  -14.407209   -6.232188
  52 H     1.0000    0     1.008   15.564763  -17.510063   -7.139800
  53 H     1.0000    0     1.008   15.570992  -25.560153    0.418719
  54 H     1.0000    0     1.008   12.477825  -26.187886   -0.618135
  55 H     1.0000    0     1.008    8.896306  -24.307006   -1.571724
  56 H     1.0000    0     1.008    7.490284  -21.638671   -2.975099
  57 H     1.0000    0     1.008   19.207536  -11.165048   -0.389466
  58 H     1.0000    0     1.008   25.220843  -27.604419    0.606017
  59 H     1.0000    0     1.008   27.474172  -24.379063    3.381701
  60 H     1.0000    0     1.008   29.815014  -27.761096    1.452490
  61 H     1.0000    0     1.008   30.357477  -25.722252   -1.152390
  62 H     1.0000    0     1.008   28.266671  -28.927450   -3.511146
  63 H     1.0000    0     1.008   24.477917  -19.108839    2.163161
  64 H     1.0000    0     1.008   18.156946  -25.554041    4.526248
  65 H     1.0000    0     1.008   22.419430  -26.864022    3.203241
  66 H     1.0000    0     1.008   22.506473  -17.936153   -5.646938
  67 H     1.0000    0     1.008   21.878420  -17.625131   -2.355338
  68 H     1.0000    0     1.008   24.974693  -17.034766   -3.538036
  69 H     1.0000    0     1.008   19.399345  -31.340597   -1.220095
  70 H     1.0000    0     1.008   19.864023  -31.726139   -4.537549
  71 H     1.0000    0     1.008   22.006513  -33.141061   -2.360370
  72 H     1.0000    0     1.008   12.287011  -12.519271    2.732434
  73 H     1.0000    0     1.008   14.120289  -15.007173    4.074747
  74 H     1.0000    0     1.008   14.732617  -11.813349    4.941067
  75 H     1.0000    0     1.008   26.886193  -21.304660   -0.918311
  76 H     1.0000    0     1.008   13.851898  -22.783481    3.267799
  77 H     1.0000    0     1.008   10.363268  -25.382693   -5.403496
  78 H     1.0000    0     1.008   16.413657  -19.082465    4.704090
  79 H     1.0000    0     1.008   20.584675  -13.630376    3.715399
  80 H     1.0000    0     1.008   23.126540  -15.582176    4.773830
  81 H     1.0000    0     1.008   22.462406  -15.292382    1.479792

--------------------------------
INTERNAL COORDINATES (ANGSTROEM)
--------------------------------
 C      0   0   0     0.000000000000     0.00000000     0.00000000
 C      1   0   0     1.396277174818     0.00000000     0.00000000
 C      2   1   0     1.396530137024   119.51870061     0.00000000
 C      3   2   1     1.394023530195   119.96398137   358.14913736
 C      4   3   2     1.391919722989   120.31217016     0.22410313
 C      1   2   3     1.390908764623   120.36440328     2.08510658
 C      5   4   3     1.509296076806   120.60409710   182.70344795
 C      7   5   4     1.546972525559   112.64344621   102.45065997
 C      8   7   5     1.545202490946   115.38192303   159.88319889
 C      9   8   7     1.540310521591   113.62973156   302.96289983
 C     10   9   8     1.508308421313   115.39025215   309.07871130
 C     11  10   9     1.401180427668   120.55653001   301.32592774
 C     12  11  10     1.386327405787   120.72099844   181.08517844
 C     13  12  11     1.404637244199   120.01456150   359.88338202
 C     14  13  12     1.381072491205   119.55343419     0.18997964
 C     11  10   9     1.389091950339   120.92620117   122.35162846
 C      8   7   5     1.530849531056   109.38518011   287.37690768
 C      9   8   7     1.529990721524   115.87032278    71.73202298
 O      3   2   1     1.359197242989   115.67300504   178.89932934
 O      1   2   3     1.363857737021   115.51322242   181.24977738
 O      2   1   3     1.374843116808   119.12986343   177.69530476
 O     14  13  12     1.366599210709   120.43381366   180.00406102
 O     13  12  11     1.364091689617   125.68488090   179.35996025
 C     21   2   1     1.445361276969   117.28803384   109.04549053
 C     24  21   2     1.538884272296   111.45995695   284.57116830
 C     25  24  21     1.526637068735   113.85012734    76.12538174
 C     24  21   2     1.517097579222   105.00290207   163.09021254
 O     27  24  21     1.424984416099   111.71830675   298.34347570
 C     26  25  24     1.396002949126   119.65715389   221.38662696
 C     29  26  25     1.386777675943   120.63931163   179.34240903
 C     30  29  26     1.398741795766   119.83435570     0.64626405
 C     31  30  29     1.381949944061   119.87943945     1.00394564
 C     32  31  30     1.391204666231   119.98012794   358.78289311
 C     20   1   2     1.428045388418   117.96842508   180.84849662
 C     19   3   2     1.425917702179   118.28705628   177.95309297
 C     23  13  12     1.425104970481   118.52177956   358.49821831
 O     25  24  21     1.421144598846   110.28043897   308.72892017
 O     17   8   7     1.426696489476   113.88324736   177.69358400
 O     18   9   8     1.434874696706   114.93344569   290.18658159
 O     30  29  26     1.363931977541   125.64192054   181.04706534
 O     31  30  29     1.371341713361   119.97452886   180.56415574
 C     40  30  29     1.427464863197   118.35396705   349.05805366
 H      4   3   2     1.079951978429   120.32931693   180.75992632
 H      6   1   2     1.079519309848   120.56929710   178.55825360
 H      7   5   4     1.092653596742   108.85275420   340.29694389
 H      7   5   4     1.089733607916   109.04606630   224.10068371
 H      8   7   5     1.094723386708   106.55534519    42.83829598
 H      9   8   7     1.095058879946   105.10283896   185.98019282
 H     10   9   8     1.090680431306   109.85058945    72.50163203
 H     10   9   8     1.095563372964   107.15957756   187.26343135
 H     12  11  10     1.081247785730   119.44835053     0.81857411
 H     15  14  13     1.082772177947   118.98048962   179.89574200
 H     16  11  10     1.083030436927   119.61233819   358.95571132
 H     17   8   7     1.093506622296   109.19461772    54.16202959
 H     17   8   7     1.092552350733   110.11429658   296.87751959
 H     18   9   8     1.092663037264   110.57957415    55.30135715
 H     18   9   8     1.092264399140   108.31506116   172.68074605
 H     22  14  13     0.968799572114   108.45376637   358.38394869
 H     24  21   2     1.089646437931   109.12903474    46.66420544
 H     25  24  21     1.094869052739   106.36513695   194.91307775
 H     27  24  21     1.090565755167   109.25211577   180.33404716
 H     27  24  21     1.094559344353   109.58136500    61.53504074
 H     28  27  24     0.966743371346   107.04571839    52.27675577
 H     29  26  25     1.078400003444   119.36119448     0.33932830
 H     32  31  30     1.082570554751   119.16585554   179.02342897
 H     33  32  31     1.081154347980   118.44107342   180.38540115
 H     34  20   1     1.091431691788   110.70629369   296.60802398
 H     34  20   1     1.090117875839   111.09649198    58.42399402
 H     34  20   1     1.087037494179   105.85789267   177.60294206
 H     35  19   3     1.092546910570   111.07655859   299.54009815
 H     35  19   3     1.092568015519   111.14529426    61.71225775
 H     35  19   3     1.087230134136   105.77397219   180.61424918
 H     36  23  13     1.092637948408   110.83602865   299.37412081
 H     36  23  13     1.091896074143   111.06552891    61.21786936
 H     36  23  13     1.086945205056   106.02251493   180.25618055
 H     37  25  24     0.973002841539   106.85049356    62.75866243
 H     38  17   8     0.971835962181   108.04155348   292.48861870
 H     39  18   9     0.963517003445   108.74497504    80.58093548
 H     41  31  30     0.969769969343   108.40891011     0.00000000
 H     42  40  30     1.085881762472   105.85222907   185.19952146
 H     42  40  30     1.092375566863   110.54899530   304.46960249
 H     42  40  30     1.090908886996   111.04694619    66.43314294

---------------------------
INTERNAL COORDINATES (A.U.)
---------------------------
 C      0   0   0     0.000000000000     0.00000000     0.00000000
 C      1   0   0     2.638581467450     0.00000000     0.00000000
 C      2   1   0     2.639059496743   119.51870061     0.00000000
 C      3   2   1     2.634322696310   119.96398137   358.14913736
 C      4   3   2     2.630347076853   120.31217016     0.22410313
 C      1   2   3     2.628436642407   120.36440328     2.08510658
 C      5   4   3     2.852156240165   120.60409710   182.70344795
 C      7   5   4     2.923354410007   112.64344621   102.45065997
 C      8   7   5     2.920009529341   115.38192303   159.88319889
 C      9   8   7     2.910765047004   113.62973156   302.96289983
 C     10   9   8     2.850289841768   115.39025215   309.07871130
 C     11  10   9     2.647847272503   120.55653001   301.32592774
 C     12  11  10     2.619779128888   120.72099844   181.08517844
 C     13  12  11     2.654379709042   120.01456150   359.88338202
 C     14  13  12     2.609848779470   119.55343419     0.18997964
 C     11  10   9     2.625003360975   120.92620117   122.35162846
 C      8   7   5     2.892886365937   109.38518011   287.37690768
 C      9   8   7     2.891263451122   115.87032278    71.73202298
 O      3   2   1     2.568510551229   115.67300504   178.89932934
 O      1   2   3     2.577317608600   115.51322242   181.24977738
 O      2   1   3     2.598076967875   119.12986343   177.69530476
 O     14  13  12     2.582498243074   120.43381366   180.00406102
 O     13  12  11     2.577759714933   125.68488090   179.35996025
 C     21   2   1     2.731336978046   117.28803384   109.04549053
 C     24  21   2     2.908069826437   111.45995695   284.57116830
 C     25  24  21     2.884925965802   113.85012734    76.12538174
 C     24  21   2     2.866898943165   105.00290207   163.09021254
 O     27  24  21     2.692830291533   111.71830675   298.34347570
 C     26  25  24     2.638063255995   119.65715389   221.38662696
 C     29  26  25     2.620630016168   120.63931163   179.34240903
 C     30  29  26     2.643238926067   119.83435570     0.64626405
 C     31  30  29     2.611506925063   119.87943945     1.00394564
 C     32  31  30     2.628995815411   119.98012794   358.78289311
 C     20   1   2     2.698614690919   117.96842508   180.84849662
 C     19   3   2     2.694593946628   118.28705628   177.95309297
 C     23  13  12     2.693058106299   118.52177956   358.49821831
 O     25  24  21     2.685574088521   110.28043897   308.72892017
 O     17   8   7     2.696065641336   113.88324736   177.69358400
 O     18   9   8     2.711520213267   114.93344569   290.18658159
 O     30  29  26     2.577457902850   125.64192054   181.04706534
 O     31  30  29     2.591460274274   119.97452886   180.56415574
 C     40  30  29     2.697517657238   118.35396705   349.05805366
 H      4   3   2     2.040813477017   120.32931693   180.75992632
 H      6   1   2     2.039995851893   120.56929710   178.55825360
 H      7   5   4     2.064816057086   108.85275420   340.29694389
 H      7   5   4     2.059298077891   109.04606630   224.10068371
 H      8   7   5     2.068727393276   106.55534519    42.83829598
 H      9   8   7     2.069361383617   105.10283896   185.98019282
 H     10   9   8     2.061087314796   109.85058945    72.50163203
 H     10   9   8     2.070314737257   107.15957756   187.26343135
 H     12  11  10     2.043262197939   119.44835053     0.81857411
 H     15  14  13     2.046142881750   118.98048962   179.89574200
 H     16  11  10     2.046630920493   119.61233819   358.95571132
 H     17   8   7     2.066428041769   109.19461772    54.16202959
 H     17   8   7     2.064624729857   110.11429658   296.87751959
 H     18   9   8     2.064833897088   110.57957415    55.30135715
 H     18   9   8     2.064080580206   108.31506116   172.68074605
 H     22  14  13     1.830765869955   108.45376637   358.38394869
 H     24  21   2     2.059133350492   109.12903474    46.66420544
 H     25  24  21     2.069002662182   106.36513695   194.91307775
 H     27  24  21     2.060870608299   109.25211577   180.33404716
 H     27  24  21     2.068417398152   109.58136500    61.53504074
 H     28  27  24     1.826880213629   107.04571839    52.27675577
 H     29  26  25     2.037880669329   119.36119448     0.33932830
 H     32  31  30     2.045761869127   119.16585554   179.02342897
 H     33  32  31     2.043085626180   118.44107342   180.38540115
 H     34  20   1     2.062506991362   110.70629369   296.60802398
 H     34  20   1     2.060024239027   111.09649198    58.42399402
 H     34  20   1     2.054203161302   105.85789267   177.60294206
 H     35  19   3     2.064614449438   111.07655859   299.54009815
 H     35  19   3     2.064654332013   111.14529426    61.71225775
 H     35  19   3     2.054567198063   105.77397219   180.61424918
 H     36  23  13     2.064786486021   110.83602865   299.37412081
 H     36  23  13     2.063384546834   111.06552891    61.21786936
 H     36  23  13     2.054028760134   106.02251493   180.25618055
 H     37  25  24     1.838708898037   106.85049356    62.75866243
 H     38  17   8     1.836503815618   108.04155348   292.48861870
 H     39  18   9     1.820783261888   108.74497504    80.58093548
 H     41  31  30     1.832599654960   108.40891011     0.00000000
 H     42  40  30     2.052019144892   105.85222907   185.19952146
 H     42  40  30     2.064290656758   110.54899530   304.46960249
 H     42  40  30     2.061519033484   111.04694619    66.43314294

---------------------
BASIS SET INFORMATION
---------------------
There are 3 groups of distinct atoms

 Group   1 Type C   : 11s7p2d1f contracted to 4s5p2d1f pattern {7211/31111/11/1}
 Group   2 Type O   : 11s7p2d1f contracted to 4s5p2d1f pattern {7211/31111/11/1}
 Group   3 Type H   : 6s3p1d contracted to 3s2p1d pattern {411/21/1}

Atom   0C    basis set group =>   1
Atom   1C    basis set group =>   1
Atom   2C    basis set group =>   1
Atom   3C    basis set group =>   1
Atom   4C    basis set group =>   1
Atom   5C    basis set group =>   1
Atom   6C    basis set group =>   1
Atom   7C    basis set group =>   1
Atom   8C    basis set group =>   1
Atom   9C    basis set group =>   1
Atom  10C    basis set group =>   1
Atom  11C    basis set group =>   1
Atom  12C    basis set group =>   1
Atom  13C    basis set group =>   1
Atom  14C    basis set group =>   1
Atom  15C    basis set group =>   1
Atom  16C    basis set group =>   1
Atom  17C    basis set group =>   1
Atom  18O    basis set group =>   2
Atom  19O    basis set group =>   2
Atom  20O    basis set group =>   2
Atom  21O    basis set group =>   2
Atom  22O    basis set group =>   2
Atom  23C    basis set group =>   1
Atom  24C    basis set group =>   1
Atom  25C    basis set group =>   1
Atom  26C    basis set group =>   1
Atom  27O    basis set group =>   2
Atom  28C    basis set group =>   1
Atom  29C    basis set group =>   1
Atom  30C    basis set group =>   1
Atom  31C    basis set group =>   1
Atom  32C    basis set group =>   1
Atom  33C    basis set group =>   1
Atom  34C    basis set group =>   1
Atom  35C    basis set group =>   1
Atom  36O    basis set group =>   2
Atom  37O    basis set group =>   2
Atom  38O    basis set group =>   2
Atom  39O    basis set group =>   2
Atom  40O    basis set group =>   2
Atom  41C    basis set group =>   1
Atom  42H    basis set group =>   3
Atom  43H    basis set group =>   3
Atom  44H    basis set group =>   3
Atom  45H    basis set group =>   3
Atom  46H    basis set group =>   3
Atom  47H    basis set group =>   3
Atom  48H    basis set group =>   3
Atom  49H    basis set group =>   3
Atom  50H    basis set group =>   3
Atom  51H    basis set group =>   3
Atom  52H    basis set group =>   3
Atom  53H    basis set group =>   3
Atom  54H    basis set group =>   3
Atom  55H    basis set group =>   3
Atom  56H    basis set group =>   3
Atom  57H    basis set group =>   3
Atom  58H    basis set group =>   3
Atom  59H    basis set group =>   3
Atom  60H    basis set group =>   3
Atom  61H    basis set group =>   3
Atom  62H    basis set group =>   3
Atom  63H    basis set group =>   3
Atom  64H    basis set group =>   3
Atom  65H    basis set group =>   3
Atom  66H    basis set group =>   3
Atom  67H    basis set group =>   3
Atom  68H    basis set group =>   3
Atom  69H    basis set group =>   3
Atom  70H    basis set group =>   3
Atom  71H    basis set group =>   3
Atom  72H    basis set group =>   3
Atom  73H    basis set group =>   3
Atom  74H    basis set group =>   3
Atom  75H    basis set group =>   3
Atom  76H    basis set group =>   3
Atom  77H    basis set group =>   3
Atom  78H    basis set group =>   3
Atom  79H    basis set group =>   3
Atom  80H    basis set group =>   3
Atom  81H    basis set group =>   3
---------------------------------
AUXILIARY/J BASIS SET INFORMATION
---------------------------------
There are 3 groups of distinct atoms

 Group   1 Type C   : 15s13p12d5f5g contracted to 15s13p12d5f5g pattern {111111111111111/1111111111111/111111111111/11111/11111}
 Group   2 Type O   : 15s13p12d5f5g contracted to 15s13p12d5f5g pattern {111111111111111/1111111111111/111111111111/11111/11111}
 Group   3 Type H   : 12s4p3d2f contracted to 12s4p3d2f pattern {111111111111/1111/111/11}

Atom   0C    basis set group =>   1
Atom   1C    basis set group =>   1
Atom   2C    basis set group =>   1
Atom   3C    basis set group =>   1
Atom   4C    basis set group =>   1
Atom   5C    basis set group =>   1
Atom   6C    basis set group =>   1
Atom   7C    basis set group =>   1
Atom   8C    basis set group =>   1
Atom   9C    basis set group =>   1
Atom  10C    basis set group =>   1
Atom  11C    basis set group =>   1
Atom  12C    basis set group =>   1
Atom  13C    basis set group =>   1
Atom  14C    basis set group =>   1
Atom  15C    basis set group =>   1
Atom  16C    basis set group =>   1
Atom  17C    basis set group =>   1
Atom  18O    basis set group =>   2
Atom  19O    basis set group =>   2
Atom  20O    basis set group =>   2
Atom  21O    basis set group =>   2
Atom  22O    basis set group =>   2
Atom  23C    basis set group =>   1
Atom  24C    basis set group =>   1
Atom  25C    basis set group =>   1
Atom  26C    basis set group =>   1
Atom  27O    basis set group =>   2
Atom  28C    basis set group =>   1
Atom  29C    basis set group =>   1
Atom  30C    basis set group =>   1
Atom  31C    basis set group =>   1
Atom  32C    basis set group =>   1
Atom  33C    basis set group =>   1
Atom  34C    basis set group =>   1
Atom  35C    basis set group =>   1
Atom  36O    basis set group =>   2
Atom  37O    basis set group =>   2
Atom  38O    basis set group =>   2
Atom  39O    basis set group =>   2
Atom  40O    basis set group =>   2
Atom  41C    basis set group =>   1
Atom  42H    basis set group =>   3
Atom  43H    basis set group =>   3
Atom  44H    basis set group =>   3
Atom  45H    basis set group =>   3
Atom  46H    basis set group =>   3
Atom  47H    basis set group =>   3
Atom  48H    basis set group =>   3
Atom  49H    basis set group =>   3
Atom  50H    basis set group =>   3
Atom  51H    basis set group =>   3
Atom  52H    basis set group =>   3
Atom  53H    basis set group =>   3
Atom  54H    basis set group =>   3
Atom  55H    basis set group =>   3
Atom  56H    basis set group =>   3
Atom  57H    basis set group =>   3
Atom  58H    basis set group =>   3
Atom  59H    basis set group =>   3
Atom  60H    basis set group =>   3
Atom  61H    basis set group =>   3
Atom  62H    basis set group =>   3
Atom  63H    basis set group =>   3
Atom  64H    basis set group =>   3
Atom  65H    basis set group =>   3
Atom  66H    basis set group =>   3
Atom  67H    basis set group =>   3
Atom  68H    basis set group =>   3
Atom  69H    basis set group =>   3
Atom  70H    basis set group =>   3
Atom  71H    basis set group =>   3
Atom  72H    basis set group =>   3
Atom  73H    basis set group =>   3
Atom  74H    basis set group =>   3
Atom  75H    basis set group =>   3
Atom  76H    basis set group =>   3
Atom  77H    basis set group =>   3
Atom  78H    basis set group =>   3
Atom  79H    basis set group =>   3
Atom  80H    basis set group =>   3
Atom  81H    basis set group =>   3
---------------------------------
AUXILIARY/C BASIS SET INFORMATION
---------------------------------
There are 3 groups of distinct atoms

 Group   1 Type C   : 15s13p12d5f5g contracted to 15s13p12d5f5g pattern {111111111111111/1111111111111/111111111111/11111/11111}
 Group   2 Type O   : 15s13p12d5f5g contracted to 15s13p12d5f5g pattern {111111111111111/1111111111111/111111111111/11111/11111}
 Group   3 Type H   : 12s4p3d2f contracted to 12s4p3d2f pattern {111111111111/1111/111/11}

Atom   0C    basis set group =>   1
Atom   1C    basis set group =>   1
Atom   2C    basis set group =>   1
Atom   3C    basis set group =>   1
Atom   4C    basis set group =>   1
Atom   5C    basis set group =>   1
Atom   6C    basis set group =>   1
Atom   7C    basis set group =>   1
Atom   8C    basis set group =>   1
Atom   9C    basis set group =>   1
Atom  10C    basis set group =>   1
Atom  11C    basis set group =>   1
Atom  12C    basis set group =>   1
Atom  13C    basis set group =>   1
Atom  14C    basis set group =>   1
Atom  15C    basis set group =>   1
Atom  16C    basis set group =>   1
Atom  17C    basis set group =>   1
Atom  18O    basis set group =>   2
Atom  19O    basis set group =>   2
Atom  20O    basis set group =>   2
Atom  21O    basis set group =>   2
Atom  22O    basis set group =>   2
Atom  23C    basis set group =>   1
Atom  24C    basis set group =>   1
Atom  25C    basis set group =>   1
Atom  26C    basis set group =>   1
Atom  27O    basis set group =>   2
Atom  28C    basis set group =>   1
Atom  29C    basis set group =>   1
Atom  30C    basis set group =>   1
Atom  31C    basis set group =>   1
Atom  32C    basis set group =>   1
Atom  33C    basis set group =>   1
Atom  34C    basis set group =>   1
Atom  35C    basis set group =>   1
Atom  36O    basis set group =>   2
Atom  37O    basis set group =>   2
Atom  38O    basis set group =>   2
Atom  39O    basis set group =>   2
Atom  40O    basis set group =>   2
Atom  41C    basis set group =>   1
Atom  42H    basis set group =>   3
Atom  43H    basis set group =>   3
Atom  44H    basis set group =>   3
Atom  45H    basis set group =>   3
Atom  46H    basis set group =>   3
Atom  47H    basis set group =>   3
Atom  48H    basis set group =>   3
Atom  49H    basis set group =>   3
Atom  50H    basis set group =>   3
Atom  51H    basis set group =>   3
Atom  52H    basis set group =>   3
Atom  53H    basis set group =>   3
Atom  54H    basis set group =>   3
Atom  55H    basis set group =>   3
Atom  56H    basis set group =>   3
Atom  57H    basis set group =>   3
Atom  58H    basis set group =>   3
Atom  59H    basis set group =>   3
Atom  60H    basis set group =>   3
Atom  61H    basis set group =>   3
Atom  62H    basis set group =>   3
Atom  63H    basis set group =>   3
Atom  64H    basis set group =>   3
Atom  65H    basis set group =>   3
Atom  66H    basis set group =>   3
Atom  67H    basis set group =>   3
Atom  68H    basis set group =>   3
Atom  69H    basis set group =>   3
Atom  70H    basis set group =>   3
Atom  71H    basis set group =>   3
Atom  72H    basis set group =>   3
Atom  73H    basis set group =>   3
Atom  74H    basis set group =>   3
Atom  75H    basis set group =>   3
Atom  76H    basis set group =>   3
Atom  77H    basis set group =>   3
Atom  78H    basis set group =>   3
Atom  79H    basis set group =>   3
Atom  80H    basis set group =>   3
Atom  81H    basis set group =>   3
----------------------------------
AUXILIARY/JK BASIS SET INFORMATION
----------------------------------
There are 3 groups of distinct atoms

 Group   1 Type C   : 15s13p12d5f5g contracted to 15s13p12d5f5g pattern {111111111111111/1111111111111/111111111111/11111/11111}
 Group   2 Type O   : 15s13p12d5f5g contracted to 15s13p12d5f5g pattern {111111111111111/1111111111111/111111111111/11111/11111}
 Group   3 Type H   : 12s4p3d2f contracted to 12s4p3d2f pattern {111111111111/1111/111/11}

Atom   0C    basis set group =>   1
Atom   1C    basis set group =>   1
Atom   2C    basis set group =>   1
Atom   3C    basis set group =>   1
Atom   4C    basis set group =>   1
Atom   5C    basis set group =>   1
Atom   6C    basis set group =>   1
Atom   7C    basis set group =>   1
Atom   8C    basis set group =>   1
Atom   9C    basis set group =>   1
Atom  10C    basis set group =>   1
Atom  11C    basis set group =>   1
Atom  12C    basis set group =>   1
Atom  13C    basis set group =>   1
Atom  14C    basis set group =>   1
Atom  15C    basis set group =>   1
Atom  16C    basis set group =>   1
Atom  17C    basis set group =>   1
Atom  18O    basis set group =>   2
Atom  19O    basis set group =>   2
Atom  20O    basis set group =>   2
Atom  21O    basis set group =>   2
Atom  22O    basis set group =>   2
Atom  23C    basis set group =>   1
Atom  24C    basis set group =>   1
Atom  25C    basis set group =>   1
Atom  26C    basis set group =>   1
Atom  27O    basis set group =>   2
Atom  28C    basis set group =>   1
Atom  29C    basis set group =>   1
Atom  30C    basis set group =>   1
Atom  31C    basis set group =>   1
Atom  32C    basis set group =>   1
Atom  33C    basis set group =>   1
Atom  34C    basis set group =>   1
Atom  35C    basis set group =>   1
Atom  36O    basis set group =>   2
Atom  37O    basis set group =>   2
Atom  38O    basis set group =>   2
Atom  39O    basis set group =>   2
Atom  40O    basis set group =>   2
Atom  41C    basis set group =>   1
Atom  42H    basis set group =>   3
Atom  43H    basis set group =>   3
Atom  44H    basis set group =>   3
Atom  45H    basis set group =>   3
Atom  46H    basis set group =>   3
Atom  47H    basis set group =>   3
Atom  48H    basis set group =>   3
Atom  49H    basis set group =>   3
Atom  50H    basis set group =>   3
Atom  51H    basis set group =>   3
Atom  52H    basis set group =>   3
Atom  53H    basis set group =>   3
Atom  54H    basis set group =>   3
Atom  55H    basis set group =>   3
Atom  56H    basis set group =>   3
Atom  57H    basis set group =>   3
Atom  58H    basis set group =>   3
Atom  59H    basis set group =>   3
Atom  60H    basis set group =>   3
Atom  61H    basis set group =>   3
Atom  62H    basis set group =>   3
Atom  63H    basis set group =>   3
Atom  64H    basis set group =>   3
Atom  65H    basis set group =>   3
Atom  66H    basis set group =>   3
Atom  67H    basis set group =>   3
Atom  68H    basis set group =>   3
Atom  69H    basis set group =>   3
Atom  70H    basis set group =>   3
Atom  71H    basis set group =>   3
Atom  72H    basis set group =>   3
Atom  73H    basis set group =>   3
Atom  74H    basis set group =>   3
Atom  75H    basis set group =>   3
Atom  76H    basis set group =>   3
Atom  77H    basis set group =>   3
Atom  78H    basis set group =>   3
Atom  79H    basis set group =>   3
Atom  80H    basis set group =>   3
Atom  81H    basis set group =>   3
---------------------------------
AUXILIARY/X BASIS SET INFORMATION
---------------------------------
There are 3 groups of distinct atoms

 Group   1 Type C   : 15s13p12d5f5g contracted to 15s13p12d5f5g pattern {111111111111111/1111111111111/111111111111/11111/11111}
 Group   2 Type O   : 15s13p12d5f5g contracted to 15s13p12d5f5g pattern {111111111111111/1111111111111/111111111111/11111/11111}
 Group   3 Type H   : 12s4p3d2f contracted to 12s4p3d2f pattern {111111111111/1111/111/11}

Atom   0C    basis set group =>   1
Atom   1C    basis set group =>   1
Atom   2C    basis set group =>   1
Atom   3C    basis set group =>   1
Atom   4C    basis set group =>   1
Atom   5C    basis set group =>   1
Atom   6C    basis set group =>   1
Atom   7C    basis set group =>   1
Atom   8C    basis set group =>   1
Atom   9C    basis set group =>   1
Atom  10C    basis set group =>   1
Atom  11C    basis set group =>   1
Atom  12C    basis set group =>   1
Atom  13C    basis set group =>   1
Atom  14C    basis set group =>   1
Atom  15C    basis set group =>   1
Atom  16C    basis set group =>   1
Atom  17C    basis set group =>   1
Atom  18O    basis set group =>   2
Atom  19O    basis set group =>   2
Atom  20O    basis set group =>   2
Atom  21O    basis set group =>   2
Atom  22O    basis set group =>   2
Atom  23C    basis set group =>   1
Atom  24C    basis set group =>   1
Atom  25C    basis set group =>   1
Atom  26C    basis set group =>   1
Atom  27O    basis set group =>   2
Atom  28C    basis set group =>   1
Atom  29C    basis set group =>   1
Atom  30C    basis set group =>   1
Atom  31C    basis set group =>   1
Atom  32C    basis set group =>   1
Atom  33C    basis set group =>   1
Atom  34C    basis set group =>   1
Atom  35C    basis set group =>   1
Atom  36O    basis set group =>   2
Atom  37O    basis set group =>   2
Atom  38O    basis set group =>   2
Atom  39O    basis set group =>   2
Atom  40O    basis set group =>   2
Atom  41C    basis set group =>   1
Atom  42H    basis set group =>   3
Atom  43H    basis set group =>   3
Atom  44H    basis set group =>   3
Atom  45H    basis set group =>   3
Atom  46H    basis set group =>   3
Atom  47H    basis set group =>   3
Atom  48H    basis set group =>   3
Atom  49H    basis set group =>   3
Atom  50H    basis set group =>   3
Atom  51H    basis set group =>   3
Atom  52H    basis set group =>   3
Atom  53H    basis set group =>   3
Atom  54H    basis set group =>   3
Atom  55H    basis set group =>   3
Atom  56H    basis set group =>   3
Atom  57H    basis set group =>   3
Atom  58H    basis set group =>   3
Atom  59H    basis set group =>   3
Atom  60H    basis set group =>   3
Atom  61H    basis set group =>   3
Atom  62H    basis set group =>   3
Atom  63H    basis set group =>   3
Atom  64H    basis set group =>   3
Atom  65H    basis set group =>   3
Atom  66H    basis set group =>   3
Atom  67H    basis set group =>   3
Atom  68H    basis set group =>   3
Atom  69H    basis set group =>   3
Atom  70H    basis set group =>   3
Atom  71H    basis set group =>   3
Atom  72H    basis set group =>   3
Atom  73H    basis set group =>   3
Atom  74H    basis set group =>   3
Atom  75H    basis set group =>   3
Atom  76H    basis set group =>   3
Atom  77H    basis set group =>   3
Atom  78H    basis set group =>   3
Atom  79H    basis set group =>   3
Atom  80H    basis set group =>   3
Atom  81H    basis set group =>   3
--------------------------------------------------------------------------
WARNING: There is at least one non-excluded one OpenFabrics device found,
but there are no active ports detected (or Open MPI was unable to use
them).  This is most certainly not what you wanted.  Check your
cables, subnet manager configuration, etc.  The openib BTL will be
ignored for this job.

  Local host: c01b01n02
--------------------------------------------------------------------------
--------------------------------------------------------------------------
WARNING: There was an error initializing an OpenFabrics device.

  Local host:   c01b01n02
  Local device: mlx5_0
--------------------------------------------------------------------------
[c01b01n02:1397291] 11 more processes have sent help message help-mpi-btl-openib.txt / no active ports found
[c01b01n02:1397291] Set MCA parameter "orte_base_help_aggregate" to 0 to see all help / error messages
[c01b01n02:1397291] 47 more processes have sent help message help-mpi-btl-openib.txt / error in device init


           ************************************************************
           *        Program running with 60 parallel MPI-processes    *
           *              working on a common directory               *
           ************************************************************
------------------------------------------------------------------------------
                             ORCA STARTUP CALCULATIONS
                           -- RI-GTO INTEGRALS CHOSEN --
------------------------------------------------------------------------------
------------------------------------------------------------------------------
                   ___                                                        
                  /   \      - P O W E R E D   B Y -                         
                 /     \                                                     
                 |  |  |   _    _      __       _____    __    __             
                 |  |  |  | |  | |    /  \     |  _  \  |  |  /  |          
                  \  \/   | |  | |   /    \    | | | |  |  | /  /          
                 / \  \   | |__| |  /  /\  \   | |_| |  |  |/  /          
                |  |  |   |  __  | /  /__\  \  |    /   |      \           
                |  |  |   | |  | | |   __   |  |    \   |  |\   \          
                \     /   | |  | | |  |  |  |  | |\  \  |  | \   \       
                 \___/    |_|  |_| |__|  |__|  |_| \__\ |__|  \__/        
                                                                              
                      - O R C A' S   B I G   F R I E N D -                    
                                      &                                       
                       - I N T E G R A L  F E E D E R -                       
                                                                              
 v1 FN, 2020, v2 2021, v3 2022-2024                                           
------------------------------------------------------------------------------


----------------------
SHARK INTEGRAL PACKAGE
----------------------

Number of atoms                             ...     82
Number of basis functions                   ...   2072
Number of shells                            ...    744
Maximum angular momentum                    ...      3
Integral batch strategy                     ... SHARK/LIBINT Hybrid
RI-J (if used) integral strategy            ... SPLIT-RIJ (Revised 2003 algorithm where possible)
Printlevel                                  ...      1
Contraction scheme used                     ... SEGMENTED contraction
Prescreening option                         ... SCHWARTZ
   Thresh                                   ... 1.000e-10
   Tcut                                     ... 1.000e-11
   Tpresel                                  ... 1.000e-11 
Coulomb Range Separation                    ... NOT USED
Exchange Range Separation                   ... NOT USED
Multipole approximations                    ... NOT USED
Finite Nucleus Model                        ... NOT USED
CABS basis                                  ... NOT available
Auxiliary Coulomb fitting basis             ... AVAILABLE
   # of basis functions in Aux-J            ...  10268
   # of shells in Aux-J                     ...   2940
   Maximum angular momentum in Aux-J        ...      4
Auxiliary J/K fitting basis                 ... AVAILABLE
   # of basis functions in Aux-JK           ...  10268
   # of shells in Aux-JK                    ...   2940
   Maximum angular momentum in Aux-JK       ...      4
Auxiliary Correlation fitting basis         ... AVAILABLE
   # of basis functions in Aux-C            ...  10268
   # of shells in Aux-C                     ...   2940
   Maximum angular momentum in Aux-C        ...      4
Auxiliary 'external' fitting basis          ... NOT available

Checking pre-screening integrals            ... done (  0.0 sec) Dimension = 744
   => SHARK Basis and OBASIS are compatible. Storing Pre-screening
Shell pair information
Shell pair cut-off parameter TPreSel        ...   1.0e-11
Total number of shell pairs                 ...    277140
Shell pairs after pre-screening             ...    151839
Total number of primitive shell pairs       ...    823733
Primitive shell pairs kept                  ...    278049
          la=0 lb=0:  28934 shell pairs
          la=1 lb=0:  50479 shell pairs
          la=1 lb=1:  20602 shell pairs
          la=2 lb=0:  19917 shell pairs
          la=2 lb=1:  15084 shell pairs
          la=2 lb=2:   2688 shell pairs
          la=3 lb=0:   6836 shell pairs
          la=3 lb=1:   5163 shell pairs
          la=3 lb=2:   1801 shell pairs
          la=3 lb=3:    335 shell pairs

Checking whether 4 symmetric matrices of dimension 2072 fit in memory
:Max Core in MB      =   5000.00
 MB in use           =    187.39
 MB left             =   4812.61
 MB needed           =     65.54
 Data fit in memory  = YES
Calculating RI/J V-Matrix + Cholesky decomp.... done (  9.3 sec)
Calculating RI/JK V-Matrix + Cholesky decomp.... done (  3.9 sec)
Calculating RI/C V-Matrix + Cholesky decomp.... done (  3.9 sec)
Calculating Nuclear repulsion               ... done (  0.0 sec) ENN=   5729.724239032220 Eh

Diagonalization of the overlap matrix:
Smallest eigenvalue                        ... 6.639e-06
Time for diagonalization                   ...    3.814 sec
Threshold for overlap eigenvalues          ... 1.000e-07
Number of eigenvalues below threshold      ... 0
Time for construction of square roots      ...    0.365 sec
Total time needed                          ...    4.332 sec

-------------------
DFT GRID GENERATION
-------------------

General Integration Accuracy     IntAcc      ... 4.388
Radial Grid Type                 RadialGrid  ... OptM3 with GC (2021)
Angular Grid (max. ang.)         AngularGrid ... 4 (Lebedev-302)
Angular grid pruning method      GridPruning ... 4 (adaptive)
Weight generation scheme         WeightScheme... mBecke (2022)
Basis function cutoff            BFCut       ... 1.0000e-10
Integration weight cutoff        WCut        ... 1.0000e-14
Partially contracted basis set               ... off
Rotationally invariant grid construction     ... off
Angular grids for H and He will be reduced by one unit
Diffuse basis detected: some atoms will have their outermost
                        angular grid increased by 1.

Total number of grid points                  ...   376662
Total number of batches                      ...     5929
Average number of points per batch           ...       63
Average number of grid points per atom       ...     4593
Grids setup in   5.9 sec
Initializing property integral containers    ... done (  0.6 sec)

SHARK setup successfully completed in  52.9 seconds

Maximum memory used throughout the entire STARTUP-calculation: 259.4 MB
--------------------------------------------------------------------------
WARNING: There was an error initializing an OpenFabrics device.

  Local host:   c01b01n02
  Local device: mlx5_0
--------------------------------------------------------------------------
--------------------------------------------------------------------------
WARNING: There is at least one non-excluded one OpenFabrics device found,
but there are no active ports detected (or Open MPI was unable to use
them).  This is most certainly not what you wanted.  Check your
cables, subnet manager configuration, etc.  The openib BTL will be
ignored for this job.

  Local host: c01b01n02
--------------------------------------------------------------------------


           ************************************************************
           *        Program running with 60 parallel MPI-processes    *
           *              working on a common directory               *
           ************************************************************
-------------------------------------------------------------------------------
                                 ORCA GUESS
                   Start orbitals & Density for SCF / CASSCF
-------------------------------------------------------------------------------

------------
SCF SETTINGS
------------
Hamiltonian:
 Density Functional     Method          .... DFT(GTOs)
 Exchange Functional    Exchange        .... TPSS
 Correlation Functional Correlation     .... TPSS
 LDA part of GGA corr.  LDAOpt          .... PW91-LDA
 Gradients option       PostSCFGGA      .... off
   NL short-range parameter             ....  5.000000
 RI-approximation to the Coulomb term is turned on
   Number of AuxJ basis functions       .... 10268


General Settings:
 Integral files         IntName         .... nmr-conf-14
 Hartree-Fock type      HFTyp           .... RHF
 Total Charge           Charge          ....    0
 Multiplicity           Mult            ....    1
 Number of Electrons    NEL             ....  314
 Basis Dimension        Dim             .... 2072
 Nuclear Repulsion      ENuc            ....   5729.7242390322 Eh

Convergence Acceleration:
 AO-DIIS                CNVDIIS         .... on
   Start iteration      DIISMaxIt       ....    12
   Startup error        DIISStart       ....  0.200000
   # of expansion vecs  DIISMaxEq       ....     5
   Bias factor          DIISBfac        ....   1.050
   Max. coefficient     DIISMaxC        ....  10.000
 MO-DIIS                CNVKDIIS        .... off
 Trust-Rad. Augm. Hess. CNVTRAH         .... auto
   Auto Start mean grad. ratio tolernc. ....  1.125000
   Auto Start start iteration           ....    50
   Auto Start num. interpolation iter.  ....    10
   Max. Number of Micro iterations      ....    24
   Max. Number of Macro iterations      .... Maxiter - #DIIS iter
   Number of Davidson start vectors     ....     2
   Converg. threshold    (grad. norm)   ....   5.000e-05
   Grad. Scal. Fac. for Micro threshold ....   0.100
   Minimum threshold for Micro iter.    ....   1.000e-02
   NR start threshold (gradient norm)   ....   1.000e-04
   Initial trust radius                 ....   0.400
   Minimum AH scaling param. (alpha)    ....   1.000
   Maximum AH scaling param. (alpha)    .... 1000.000
   Quad. conv. algorithm                .... NR
   White noise on init. David. guess    .... on
   Maximum white noise                  ....   0.010
   Pseudo random numbers                .... off
   Inactive MOs                         .... canonical
   Orbital update algorithm             .... Taylor
   Preconditioner                       .... Diag
   Full preconditioner red. dimension   ....   250
 SOSCF                 CNVSOSCF           .... on
   Start iteration     SOSCFMaxIt         ....   150
   Startup grad/error  SOSCFStart         ....  0.003300
   Hessian update      SOSCFHessUp        .... L-BFGS
   Autom. constraints  SOSCFAutoConstrain .... off
 Level Shifting         CNVShift        .... on
   Level shift para.    LevelShift      ....    0.2500
   Turn off err/grad.   ShiftErr        ....    0.0010
 Zerner damping         CNVZerner       .... off
 Static damping         CNVDamp         .... on
   Fraction old density DampFac         ....    0.7000
   Max. Damping (<1)    DampMax         ....    0.9800
   Min. Damping (>=0)   DampMin         ....    0.0000
   Turn off err/grad.   DampErr         ....    0.1000

SCF Procedure:
 Maximum # iterations   MaxIter         ....   125
 SCF integral mode      SCFMode         .... Direct
   Integral package                     .... SHARK and LIBINT hybrid scheme
 Reset frequency        DirectResetFreq ....    20
 Integral Threshold     Thresh          ....  1.000e-10 Eh
 Primitive CutOff       TCut            ....  1.000e-11 Eh

Convergence Tolerance:
 Convergence Check Mode ConvCheckMode   .... Total+1el-Energy
 Convergence forced     ConvForced      .... 0
 Energy Change          TolE            ....  1.000e-06 Eh
 1-El. energy change                    ....  1.000e-03 Eh
 Orbital Gradient       TolG            ....  5.000e-05
 Orbital Rotation angle TolX            ....  5.000e-05
 DIIS Error             TolErr          ....  1.000e-06

------------------------------
INITIAL GUESS: MODEL POTENTIAL
------------------------------
Loading Hartree-Fock densities                     ... done
Calculating cut-offs                               ... done
Initializing the effective Hamiltonian             ... done
Setting up the integral package (SHARK)            ... done
Starting the Coulomb interaction                   ... [c01b01n02:1397735] 50 more processes have sent help message help-mpi-btl-openib.txt / error in device init
[c01b01n02:1397735] Set MCA parameter "orte_base_help_aggregate" to 0 to see all help / error messages
[c01b01n02:1397735] 8 more processes have sent help message help-mpi-btl-openib.txt / no active ports found
done (   4.3 sec)
Making the grid                                    ... done (   0.6 sec)
Mapping shells                                     ... done
Starting the XC term evaluation                    ... done (   0.9 sec)
  promolecular density results
     # of electrons  =    313.988041147
     EX              =   -260.297032036
     EC              =    -10.641488038
     EX+EC           =   -270.938520075
Transforming the Hamiltonian                       ... done (   0.8 sec)
Diagonalizing the Hamiltonian                      ... done (   0.5 sec)
Back transforming the eigenvectors                 ... done (   0.3 sec)
Now organizing SCF variables                       ... done
                      ------------------
                      INITIAL GUESS DONE (   8.8 sec)
                      ------------------
             **** ENERGY FILE WAS UPDATED (nmr-conf-14.en.tmp) ****
Finished Guess after  15.6 sec
Maximum memory used throughout the entire GUESS-calculation: 290.6 MB
--------------------------------------------------------------------------
WARNING: There was an error initializing an OpenFabrics device.

  Local host:   c01b01n02
  Local device: mlx5_0
--------------------------------------------------------------------------
--------------------------------------------------------------------------
WARNING: There is at least one non-excluded one OpenFabrics device found,
but there are no active ports detected (or Open MPI was unable to use
them).  This is most certainly not what you wanted.  Check your
cables, subnet manager configuration, etc.  The openib BTL will be
ignored for this job.

  Local host: c01b01n02
--------------------------------------------------------------------------


           ************************************************************
           *        Program running with 60 parallel MPI-processes    *
           *              working on a common directory               *
           ************************************************************

-------------------------------------------------------------------------------------------
                                      ORCA LEAN-SCF
                              memory conserving SCF solver
-------------------------------------------------------------------------------------------

[c01b01n02:1398143] 55 more processes have sent help message help-mpi-btl-openib.txt / error in device init
[c01b01n02:1398143] Set MCA parameter "orte_base_help_aggregate" to 0 to see all help / error messages
[c01b01n02:1398143] 3 more processes have sent help message help-mpi-btl-openib.txt / no active ports found
--------------------
CPCM SOLVATION MODEL
--------------------
CPCM parameters:
  Epsilon                                         ...      33.4280
  Refrac                                          ...       1.3288
  Rsolv                                           ...       1.3000
  Surface type                                    ... GAUSSIAN VDW
  Discretization scheme                           ... Constant charge density
    Threshold for H atoms                         ...       5.0000 (charges/Ang^2)
    Threshold for non-H atoms                     ...       5.0000 (charges/Ang^2)
  Epsilon function type                           ...         CPCM
Solvent:                                          ... METHANOL
Radii:
  Scheme                                          ... Element-dependent radii
  Radius for C  used is    3.8550 Bohr (=   2.0400 Ang.)
  Radius for O  used is    3.4469 Bohr (=   1.8240 Ang.)
  Radius for H  used is    2.4944 Bohr (=   1.3200 Ang.)
Calculating surface                               ...        done! (  0.6s)
Cavity surface points                             ...         6237
Cavity Volume                                     ...    4561.9239
Cavity Surface-area                               ...    2053.7583
Calculating surface distance matrix               ...        done! (  0.3s)
Performing Cholesky decomposition & store         ...        done! (  0.7s)
Overall time for CPCM initialization              ...                 2.0s

----------------------------------------D-I-I-S--------------------------------------------
Iteration    Energy (Eh)           Delta-E    RMSDP     MaxDP     DIISErr   Damp  Time(sec)
-------------------------------------------------------------------------------------------
               ***  Starting incremental Fock matrix formation  ***
    1    -2033.0212628743402092     0.00e+00  8.03e-03  2.44e-01  2.36e-01  0.700  19.3
    2    -2033.4292124230823902    -4.08e-01  6.64e-03  1.84e-01  8.14e-02  0.700   9.0
                               ***Turning on AO-DIIS***
    3    -2033.5814538496160822    -1.52e-01  2.84e-03  6.01e-02  2.50e-02  0.700   8.1
    4    -2033.6735989756089111    -9.21e-02  4.82e-03  7.08e-02  1.19e-02  0.000   6.5
    5    -2033.8776275276713932    -2.04e-01  1.29e-03  3.14e-02  4.65e-03  0.000   6.8
                              *** Initializing SOSCF ***
---------------------------------------S-O-S-C-F--------------------------------------
Iteration    Energy (Eh)           Delta-E    RMSDP     MaxDP     MaxGrad    Time(sec)
--------------------------------------------------------------------------------------
    6    -2033.8790042661958068    -1.38e-03  4.16e-04  9.82e-03  1.24e-03     7.7
               *** Restarting incremental Fock matrix formation ***
    7    -2033.8791093515692410    -1.05e-04  3.12e-04  6.33e-03  1.57e-04     6.5
    8    -2033.8790839439961928     2.54e-05  7.46e-05  2.09e-03  6.99e-04     5.7
    9    -2033.8791256946706199    -4.18e-05  7.04e-05  1.50e-03  1.28e-04     5.6
   10    -2033.8791258250394094    -1.30e-07  2.14e-05  5.75e-04  1.30e-04     5.9
                 **** Energy Check signals convergence ****

               *****************************************************
               *                     SUCCESS                       *
               *           SCF CONVERGED AFTER  10 CYCLES          *
               *****************************************************

             **** ENERGY FILE WAS UPDATED (nmr-conf-14.en.tmp) ****

----------------
TOTAL SCF ENERGY
----------------

Total Energy       :      -2033.87912651322222 Eh          -55344.66470 eV

Components:
Nuclear Repulsion  :       5729.72423903221988 Eh          155913.72304 eV
Electronic Energy  :      -7763.55494832260320 Eh         -211257.07025 eV
One Electron Energy:     -14186.64620303077027 Eh         -386038.26899 eV
Two Electron Energy:       6423.09125470816707 Eh          174781.19875 eV
CPCM Dielectric    :         -0.04841722283908 Eh              -1.31750 eV

Virial components:
Potential Energy   :      -4061.11144462599032 Eh         -110508.46055 eV
Kinetic Energy     :       2027.23231811276810 Eh           55163.79585 eV
Virial Ratio       :          2.00327876008145

DFT components:
N(Alpha)           :      157.000326035238 electrons
N(Beta)            :      157.000326035238 electrons
N(Total)           :      314.000652070476 electrons
E(X)               :     -268.091729468922 Eh       
E(C)               :      -10.604305641427 Eh       
E(XC)              :     -278.696035110349 Eh       

CPCM Solvation Model Properties:
Surface-charge          :         -0.04255764782422
Corrected charge        :         -0.00000000000000
Outlying charge corr.   :          0.00007852704608 Eh               0.00214 eV
Free-energy (cav+disp)  :  This term is not implemented in the current solvation scheme

---------------
SCF CONVERGENCE
---------------

  Last Energy change         ...    1.3037e-07  Tolerance :   1.0000e-06
  Last MAX-Density change    ...    5.7492e-04  Tolerance :   1.0000e-05
  Last RMS-Density change    ...    2.1358e-05  Tolerance :   1.0000e-06
  Last DIIS Error            ...    1.2436e-03  Tolerance :   1.0000e-06
  Last Orbital Gradient      ...    1.2993e-04  Tolerance :   5.0000e-05
  Last Orbital Rotation      ...    2.7022e-04  Tolerance :   5.0000e-05


----------------
ORBITAL ENERGIES
----------------

  NO   OCC          E(Eh)            E(eV) 
   0   2.0000     -18.920315      -514.8480 
   1   2.0000     -18.918812      -514.8071 
   2   2.0000     -18.918206      -514.7906 
   3   2.0000     -18.917894      -514.7821 
   4   2.0000     -18.913170      -514.6535 
   5   2.0000     -18.909608      -514.5566 
   6   2.0000     -18.903653      -514.3945 
   7   2.0000     -18.880247      -513.7577 
   8   2.0000     -18.877251      -513.6761 
   9   2.0000     -18.877235      -513.6757 
  10   2.0000     -18.867657      -513.4151 
  11   2.0000     -10.046010      -273.3658 
  12   2.0000     -10.045964      -273.3646 
  13   2.0000     -10.045173      -273.3431 
  14   2.0000     -10.045136      -273.3420 
  15   2.0000     -10.044900      -273.3356 
  16   2.0000     -10.044429      -273.3228 
  17   2.0000     -10.041353      -273.2391 
  18   2.0000     -10.041346      -273.2389 
  19   2.0000     -10.036754      -273.1140 
  20   2.0000     -10.034744      -273.0593 
  21   2.0000     -10.034181      -273.0439 
  22   2.0000     -10.034035      -273.0400 
  23   2.0000     -10.033495      -273.0253 
  24   2.0000     -10.030501      -272.9438 
  25   2.0000     -10.024396      -272.7777 
  26   2.0000     -10.020473      -272.6709 
  27   2.0000      -9.993299      -271.9315 
  28   2.0000      -9.992140      -271.9000 
  29   2.0000      -9.986922      -271.7580 
  30   2.0000      -9.986904      -271.7575 
  31   2.0000      -9.985047      -271.7069 
  32   2.0000      -9.984496      -271.6920 
  33   2.0000      -9.984136      -271.6822 
  34   2.0000      -9.983527      -271.6656 
  35   2.0000      -9.983240      -271.6578 
  36   2.0000      -9.983205      -271.6568 
  37   2.0000      -9.982447      -271.6362 
  38   2.0000      -9.979936      -271.5679 
  39   2.0000      -9.978493      -271.5286 
  40   2.0000      -9.978008      -271.5154 
  41   2.0000      -9.976599      -271.4771 
  42   2.0000      -1.015051       -27.6209 
  43   2.0000      -1.012213       -27.5437 
  44   2.0000      -1.011213       -27.5165 
  45   2.0000      -1.001014       -27.2390 
  46   2.0000      -0.989147       -26.9161 
  47   2.0000      -0.984284       -26.7837 
  48   2.0000      -0.983407       -26.7599 
  49   2.0000      -0.954365       -25.9696 
  50   2.0000      -0.950563       -25.8661 
  51   2.0000      -0.948409       -25.8075 
  52   2.0000      -0.941258       -25.6129 
  53   2.0000      -0.798340       -21.7239 
  54   2.0000      -0.797302       -21.6957 
  55   2.0000      -0.794784       -21.6272 
  56   2.0000      -0.758048       -20.6275 
  57   2.0000      -0.734103       -19.9759 
  58   2.0000      -0.719039       -19.5661 
  59   2.0000      -0.703076       -19.1317 
  60   2.0000      -0.700444       -19.0601 
  61   2.0000      -0.699020       -19.0213 
  62   2.0000      -0.696640       -18.9565 
  63   2.0000      -0.689270       -18.7560 
  64   2.0000      -0.672092       -18.2886 
  65   2.0000      -0.652323       -17.7506 
  66   2.0000      -0.650118       -17.6906 
  67   2.0000      -0.649835       -17.6829 
  68   2.0000      -0.639177       -17.3929 
  69   2.0000      -0.620686       -16.8897 
  70   2.0000      -0.618622       -16.8336 
  71   2.0000      -0.611070       -16.6281 
  72   2.0000      -0.579952       -15.7813 
  73   2.0000      -0.567880       -15.4528 
  74   2.0000      -0.561088       -15.2680 
  75   2.0000      -0.558676       -15.2023 
  76   2.0000      -0.548486       -14.9251 
  77   2.0000      -0.544022       -14.8036 
  78   2.0000      -0.542055       -14.7501 
  79   2.0000      -0.535217       -14.5640 
  80   2.0000      -0.512939       -13.9578 
  81   2.0000      -0.509879       -13.8745 
  82   2.0000      -0.504528       -13.7289 
  83   2.0000      -0.495837       -13.4924 
  84   2.0000      -0.483554       -13.1582 
  85   2.0000      -0.477939       -13.0054 
  86   2.0000      -0.477487       -12.9931 
  87   2.0000      -0.472293       -12.8518 
  88   2.0000      -0.461643       -12.5620 
  89   2.0000      -0.456736       -12.4284 
  90   2.0000      -0.452432       -12.3113 
  91   2.0000      -0.449350       -12.2274 
  92   2.0000      -0.447327       -12.1724 
  93   2.0000      -0.443457       -12.0671 
  94   2.0000      -0.439125       -11.9492 
  95   2.0000      -0.432482       -11.7684 
  96   2.0000      -0.430558       -11.7161 
  97   2.0000      -0.427023       -11.6199 
  98   2.0000      -0.425146       -11.5688 
  99   2.0000      -0.423077       -11.5125 
 100   2.0000      -0.420216       -11.4347 
 101   2.0000      -0.411403       -11.1948 
 102   2.0000      -0.407545       -11.0899 
 103   2.0000      -0.402940       -10.9646 
 104   2.0000      -0.401342       -10.9211 
 105   2.0000      -0.399930       -10.8826 
 106   2.0000      -0.398152       -10.8343 
 107   2.0000      -0.390667       -10.6306 
 108   2.0000      -0.387947       -10.5566 
 109   2.0000      -0.386794       -10.5252 
 110   2.0000      -0.383438       -10.4339 
 111   2.0000      -0.381610       -10.3841 
 112   2.0000      -0.377130       -10.2622 
 113   2.0000      -0.376288       -10.2393 
 114   2.0000      -0.375539       -10.2189 
 115   2.0000      -0.372795       -10.1443 
 116   2.0000      -0.370931       -10.0936 
 117   2.0000      -0.369267       -10.0483 
[...]
 
 sDSO           110.441           70.528           49.398  iso=      76.789
 sPSO           -86.957          -44.825          -15.299  iso=     -49.027
        ---------------  ---------------  ---------------
 Total           23.484           25.703           34.099  iso=      27.762

 Orientation: 
  X           0.1457357    0.4634569   -0.8740531
  Y          -0.4427254    0.8206371    0.3613157
  Z           0.8847346    0.3343089    0.3247803

 --------------
 Nucleus  73H :
 --------------

Diamagnetic contribution to the shielding tensor (ppm) : 
            25.445          8.421        -5.708
           -10.286         54.448        -6.233
            36.306        -51.066        88.127

Paramagnetic contribution to the shielding tensor (ppm): 
             0.617         -7.428         3.934
            10.572        -25.942         4.497
           -39.168         48.512       -59.724

Total shielding tensor (ppm): 
            26.062          0.994        -1.774
             0.287         28.507        -1.736
            -2.862         -2.554        28.402


 Diagonalized sT*s matrix:
 
 sDSO            55.711           29.851           82.458  iso=      56.007
 sPSO           -31.183           -2.854          -51.013  iso=     -28.350
        ---------------  ---------------  ---------------
 Total           24.528           26.997           31.445  iso=      27.657

 Orientation: 
  X           0.7890514    0.4828596   -0.3797952
  Y           0.1830527   -0.7749466   -0.6049376
  Z           0.5864209   -0.4078044    0.6998615

 --------------
 Nucleus  74H :
 --------------

Diamagnetic contribution to the shielding tensor (ppm) : 
            43.961          2.948         1.768
            17.060         35.898        10.915
            31.394        -28.246        90.634

Paramagnetic contribution to the shielding tensor (ppm): 
           -18.495         -3.695        -4.962
           -16.787         -9.749        -7.800
           -33.037         32.801       -60.301

Total shielding tensor (ppm): 
            25.465         -0.747        -3.194
             0.273         26.149         3.115
            -1.643          4.555        30.333


 Diagonalized sT*s matrix:
 
 sDSO            62.478           49.670           58.344  iso=      56.831
 sPSO           -39.230          -24.209          -25.106  iso=     -29.515
        ---------------  ---------------  ---------------
 Total           23.248           25.461           33.238  iso=      27.316

 Orientation: 
  X          -0.5170677    0.8153196   -0.2605664
  Y           0.6653996    0.5743706    0.4768036
  Z          -0.5384090   -0.0731590    0.8395019

 --------------
 Nucleus  75H :
 --------------

Diamagnetic contribution to the shielding tensor (ppm) : 
            35.246         -9.712        -2.478
            -9.621         22.302       -14.768
           -29.892         -6.186         8.157

Paramagnetic contribution to the shielding tensor (ppm): 
            -9.851          6.727        12.177
             6.809          2.372         8.188
            38.893          0.082        24.053

Total shielding tensor (ppm): 
            25.394         -2.985         9.699
            -2.812         24.674        -6.580
             9.002         -6.104        32.210


 Diagonalized sT*s matrix:
 
 sDSO            38.289           13.229           14.186  iso=      21.901
 sPSO           -19.845            9.053           27.365  iso=       5.524
        ---------------  ---------------  ---------------
 Total           18.445           22.282           41.551  iso=      27.426

 Orientation: 
  X          -0.7195292    0.4729265    0.5085453
  Y           0.3090229    0.8738312   -0.3753982
  Z           0.6219185    0.1129578    0.7748922

 --------------
 Nucleus  76H :
 --------------

Diamagnetic contribution to the shielding tensor (ppm) : 
            28.318         12.555        -1.956
            -2.962         44.780         6.984
            46.195        -36.492        92.323

Paramagnetic contribution to the shielding tensor (ppm): 
             2.108         -2.449         8.964
            14.598        -18.141         1.107
           -38.179         45.495       -64.415

Total shielding tensor (ppm): 
            30.426         10.106         7.009
            11.635         26.638         8.092
             8.017          9.002        27.908


 Diagonalized sT*s matrix:
 
 sDSO            55.582           49.901           59.939  iso=      55.140
 sPSO           -38.626          -28.315          -13.508  iso=     -26.816
        ---------------  ---------------  ---------------
 Total           16.956           21.587           46.431  iso=      28.324

 Orientation: 
  X           0.4816307    0.5948498    0.6435725
  Y          -0.8210751    0.0495550    0.5686651
  Z           0.3063781   -0.8023079    0.5122836

 --------------
 Nucleus  77H :
 --------------

Diamagnetic contribution to the shielding tensor (ppm) : 
            -6.721         19.502        -6.442
           -29.471         56.669         2.710
           -40.564         46.233        34.306

Paramagnetic contribution to the shielding tensor (ppm): 
            37.070        -26.983         8.582
            21.994        -20.506         0.562
            42.559        -41.988        -8.282

Total shielding tensor (ppm): 
            30.349         -7.481         2.140
            -7.478         36.163         3.272
             1.994          4.245        26.025


 Diagonalized sT*s matrix:
 
 sDSO            25.995            7.328           50.931  iso=      28.085
 sPSO            -4.302           21.980           -9.395  iso=       2.761
        ---------------  ---------------  ---------------
 Total           21.693           29.308           41.536  iso=      30.846

 Orientation: 
  X          -0.5673463    0.6270075   -0.5338350
  Y          -0.4634801    0.2927051    0.8363671
  Z           0.6806646    0.7219317    0.1245403

 --------------
 Nucleus  78H :
 --------------

Diamagnetic contribution to the shielding tensor (ppm) : 
            26.154         -2.438         0.251
            -9.080         56.723         9.692
            54.101        -28.588        97.953

Paramagnetic contribution to the shielding tensor (ppm): 
            -2.124          1.151        -1.956
             9.953        -21.281       -11.316
           -56.517         28.942       -80.898

Total shielding tensor (ppm): 
            24.029         -1.288        -1.706
             0.873         35.441        -1.624
            -2.416          0.354        17.055


 Diagonalized sT*s matrix:
 
 sDSO           105.584           17.515           57.730  iso=      60.276
 sPSO           -89.112            7.082          -22.274  iso=     -34.768
        ---------------  ---------------  ---------------
 Total           16.472           24.597           35.457  iso=      25.508

 Orientation: 
  X           0.2582868    0.9660548    0.0051026
  Y           0.0484526   -0.0182292    0.9986591
  Z           0.9648525   -0.2576932   -0.0515162

 --------------
 Nucleus  79H :
 --------------

Diamagnetic contribution to the shielding tensor (ppm) : 
            48.725        -23.086        14.257
            14.164         23.543        20.598
            39.778        -22.789        70.666

Paramagnetic contribution to the shielding tensor (ppm): 
           -21.487         24.606       -12.664
           -15.660          7.239       -20.236
           -38.751         24.493       -46.646

Total shielding tensor (ppm): 
            27.238          1.520         1.593
            -1.496         30.782         0.362
             1.027          1.704        24.020


 Diagonalized sT*s matrix:
 
 sDSO            51.062           67.629           24.243  iso=      47.645
 sPSO           -27.636          -39.961            6.703  iso=     -20.298
        ---------------  ---------------  ---------------
 Total           23.426           27.669           30.946  iso=      27.347

 Orientation: 
  X          -0.3240451    0.9454766    0.0326917
  Y          -0.1287592   -0.0783120    0.9885789
  Z           0.9372384    0.3161348    0.1471154

 --------------
 Nucleus  80H :
 --------------

Diamagnetic contribution to the shielding tensor (ppm) : 
            43.795        -24.668        24.555
            13.318         -1.404        17.920
            64.660        -42.792        35.727

Paramagnetic contribution to the shielding tensor (ppm): 
           -13.797         26.735       -20.840
            -9.920         28.776       -15.548
           -61.317         46.737        -8.674

Total shielding tensor (ppm): 
            29.998          2.067         3.715
             3.398         27.372         2.372
             3.343          3.945        27.052


 Diagonalized sT*s matrix:
 
 sDSO            18.674            6.503           52.941  iso=      26.039
 sPSO             5.229           19.394          -18.318  iso=       2.102
        ---------------  ---------------  ---------------
 Total           23.903           25.897           34.623  iso=      28.141

 Orientation: 
  X           0.2215160    0.6825028    0.6965060
  Y           0.5465990   -0.6783998    0.4909208
  Z          -0.8075644   -0.2719627    0.5233318

 --------------
 Nucleus  81H :
 --------------

Diamagnetic contribution to the shielding tensor (ppm) : 
            47.731        -25.099        14.533
            11.769          9.088        18.783
             7.978        -11.565        57.601

Paramagnetic contribution to the shielding tensor (ppm): 
           -19.664         25.544       -16.551
           -10.773         18.497       -21.615
            -9.138         10.829       -30.256

Total shielding tensor (ppm): 
            28.067          0.445        -2.018
             0.996         27.585        -2.832
            -1.160         -0.736        27.345


 Diagonalized sT*s matrix:
 
 sDSO            48.137           39.727           26.556  iso=      38.140
 sPSO           -22.689          -12.585            3.851  iso=     -10.474
        ---------------  ---------------  ---------------
 Total           25.448           27.142           30.407  iso=      27.666

 Orientation: 
  X           0.3342495    0.7448457   -0.5774792
  Y           0.5505399   -0.6516214   -0.5218192
  Z           0.7649726    0.1435076    0.6278714



--------------------------------
CHEMICAL SHIELDING SUMMARY (ppm)
--------------------------------


  Nucleus  Element    Isotropic     Anisotropy
  -------  -------  ------------   ------------
      0       C           24.845        122.758 
      1       C           44.425         91.830 
      2       C           25.807        119.085 
      3       C           75.007        125.687 
      4       C           37.688        194.518 
      5       C           78.001        134.008 
      6       C          144.043         35.150 
      7       C          133.403         21.134 
      8       C          138.690         21.727 
      9       C          143.164         38.743 
     10       C           44.994        183.580 
     11       C           70.576        154.541 
     12       C           29.374        120.228 
     13       C           32.397        122.479 
     14       C           66.857        144.500 
     15       C           56.621        147.368 
     16       C          113.835         73.766 
     17       C          111.546         64.761 
     23       C           93.212         35.139 
     24       C          103.758         39.043 
     25       C           42.168        168.733 
     26       C          110.562         57.939 
     28       C           73.380        164.201 
     29       C           31.013        117.612 
     30       C           34.599        118.350 
     31       C           67.800        146.823 
     32       C           63.394        168.241 
     33       C          122.434         74.161 
     34       C          124.521         78.989 
     35       C          124.156         77.309 
     41       C          123.272         75.766 
     42       H           25.552          9.999 
     43       H           26.445          8.533 
     44       H           30.044          6.182 
     45       H           28.618          4.724 
     46       H           30.672          4.256 
     47       H           29.171          4.798 
     48       H           28.481          3.731 
     49       H           28.739          8.686 
     50       H           24.625         10.260 
     51       H           24.700          2.450 
     52       H           24.599          5.777 
     53       H           27.982          7.427 
     54       H           28.241          4.279 
     55       H           27.051          5.222 
     56       H           28.081          7.993 
     57       H           25.334         12.389 
     58       H           26.515          2.492 
     59       H           26.994          5.959 
     60       H           27.855          5.517 
     61       H           27.377          6.642 
     62       H           29.377         13.724 
     63       H           24.503         11.295 
     64       H           25.174          4.427 
     65       H           25.175          5.847 
     66       H           28.205          8.382 
     67       H           28.710         10.085 
     68       H           27.542          6.805 
     69       H           27.922          7.565 
     70       H           28.003          9.629 
     71       H           27.469          9.487 
     72       H           27.762          9.505 
     73       H           27.657          5.683 
     74       H           27.316          8.884 
     75       H           27.426         21.188 
     76       H           28.324         27.160 
     77       H           30.846         16.035 
     78       H           25.508         14.922 
     79       H           27.347          5.399 
     80       H           28.141          9.723 
     81       H           27.666          4.112 


NMR shielding tensor and spin rotation calculation done in   2.9 sec 

Maximum memory used throughout the entire PROP-calculation: 368.3 MB
--------------------------------------------------------------------------
WARNING: There is at least one non-excluded one OpenFabrics device found,
but there are no active ports detected (or Open MPI was unable to use
them).  This is most certainly not what you wanted.  Check your
cables, subnet manager configuration, etc.  The openib BTL will be
ignored for this job.

  Local host: c01b01n02
--------------------------------------------------------------------------
--------------------------------------------------------------------------
WARNING: There was an error initializing an OpenFabrics device.

  Local host:   c01b01n02
  Local device: mlx5_0
--------------------------------------------------------------------------
[c01b01n02:1399881] 7 more processes have sent help message help-mpi-btl-openib.txt / no active ports found
[c01b01n02:1399881] Set MCA parameter "orte_base_help_aggregate" to 0 to see all help / error messages
[c01b01n02:1399881] 51 more processes have sent help message help-mpi-btl-openib.txt / error in device init

--------------------------------
SUGGESTED CITATIONS FOR THIS RUN
--------------------------------

Below you find a list of papers that are relevant to this ORCA run
We neither can nor want to force you to cite these papers, but we appreciate if you do
You receive ORCA, which is the product of decades of hard work by many enthusiastic individuals, for free
The only thing we kindly ask in return is that you cite our papers,
We deeply appreciate it, if you show your appreciation for ORCA by not just citing the generic ORCA reference.

Please note that relegating all ORCA citations to the supporting information does *not* help us.
SI sections are not indexed - citations you put there will not count into any citation statistics
But we need these citations in order to attract the funding resources that allow us to do what we are doing

Therefore, if you are a happy ORCA user, please consider citing a few of the papers listed below in the main body of your paper

In addition to the list printed below, the program has created the file nmr-conf-14.bibtex that contains the list in bibtex format
You can import this file easily into all common literature databanks and citation aid programs


List of essential papers. We consider these as the minimum necessary citations

  1. Neese, F.
     Software update: the ORCA program system, version 6.0
     WIRES Comput. Molec. Sci. 2025 15(1), e70019
     doi.org/10.1002/wcms.7019

List of papers to cite with high priority. The work reported in these papers was absolutely
necessary for this run to complete.
Our perspective: the developers of density functionals and basis sets usually get cited in chemistry papers
Good! But without the algorithms to do something with them, the functionals or basis sets would not do anything.
Hence, in our opinion, the algorithm design and method developments papers are equally worthy of getting cited

  1. Neese, F.
     An improvement of the resolution of the identity approximation for the formation of the Coulomb matrix
     J. Comp. Chem. 2003 24(14), 1740-1747
     doi.org/10.1002/jcc.10318
  2. Stoychev, G.L.; Auer, A.A.; Neese, F.
     Automatic Generation of Auxiliary Basis Sets
     J. Theo. Comp. Chem. 2017 13 , 554-562
     doi.org/10.1021/acs.jctc.6b01041
  3. Stoychev, G.L.; Auer, A.A.; Izsak, R.; Neese, F.
     Self-Consistent Field Calculation of Nuclear Magnetic Resonance Chemical Shielding Constants Using Gauge-Including Atomic Orbitals and Approximate Two-Electron Integrals
     J. Chem. Theory Comput. 2018 14(2), 619-637
     doi.org/10.1021/acs.jctc.7b01006
  4. Garcia-Rates, M.; Neese, F.
     Effect of the Solute Cavity on the Solvation Energy and its Derivatives within the Framework of the Gaussian Charge Scheme
     J. Comput. Chem. 2020 41 , 922-939
     doi.org/10.1002/jcc.26139
  5. Neese, F.
     The SHARK Integral Generation and Digestion System
     J. Comp. Chem. 2022 44(3), 381
     doi.org/10.1002/jcc.26942

List of suggested additional citations. These are papers that are important in the 'surrounding' of 
of this run, or papers that preceded the highly important papers. If you like your results we are grateful for a citation.

  1. Neese, F.
     The ORCA program system
     WIRES Comput. Molec. Sci. 2012 2(1), 73-78
     doi.org/10.1002/wcms.81
  2. Neese, F.
     Software update: the ORCA program system, version 4.0
     WIRES Comput. Molec. Sci. 2018 8(1), 1-6
     doi.org/10.1002/wcms.1327
  3. Neese, F.; Wennmohs, F.; Becker, U.; Riplinger, C.
     The ORCA quantum chemistry program package
     J. Chem. Phys. 2020 152(22), 224108
     doi.org/10.1063/5.0004608
  4. Neese, F.
     Software update: The ORCA program system—Version 5.0
     WIRES Comput. Molec. Sci. 2022 12(1), e1606
     doi.org/10.1002/wcms.1606

List of optional additional citations

  1. Neese, F.
     Approximate second-order SCF convergence for spin unrestricted wavefunctions
     Chem. Phys. Lett. 2000 325(1-3), 93-98
     doi.org/10.1016/s0009-2614(00)00662-x

Timings for individual modules:

Sum of individual times          ...      338.187 sec (=   5.636 min)
Startup calculation              ...      121.758 sec (=   2.029 min)  36.0 %
SCF iterations                   ...      117.346 sec (=   1.956 min)  34.7 %
Property integrals               ...       54.591 sec (=   0.910 min)  16.1 %
SCF Response                     ...       30.611 sec (=   0.510 min)   9.1 %
Property calculations            ...       13.880 sec (=   0.231 min)   4.1 %
                             ****ORCA TERMINATED NORMALLY****
TOTAL RUN TIME: 0 days 0 hours 6 minutes 9 seconds 930 msec
