
                                 *****************
                                 * O   R   C   A *
                                 *****************

                                            #,                                       
                                            ###                                      
                                            ####                                     
                                            #####                                    
                                            ######                                   
                                           ########,                                 
                                     ,,################,,,,,                         
                               ,,#################################,,                 
                          ,,##########################################,,             
                       ,#########################################, ''#####,          
                    ,#############################################,,   '####,        
                  ,##################################################,,,,####,       
                ,###########''''           ''''###############################       
              ,#####''   ,,,,##########,,,,          '''####'''          '####       
            ,##' ,,,,###########################,,,                        '##       
           ' ,,###''''                  '''############,,,                           
         ,,##''                                '''############,,,,        ,,,,,,###''
      ,#''                                            '''#######################'''  
     '                                                          ''''####''''         
             ,#######,   #######,   ,#######,      ##                                
            ,#'     '#,  ##    ##  ,#'     '#,    #''#        ,####,    ,#,          
            ##       ##  ##   ,#'  ##            #'  '#       #'       ,# #          
            ##       ##  #######   ##           ,######,      #####,      #          
            '#,     ,#'  ##    ##  '#,     ,#' ,#      #,     #,   #      #          
             '#######'   ##     ##  '#######'  #'      '#     '####' #    #          



                #########################################################
                #                        -***-                          #
                #          Department of theory and spectroscopy        #
                #                                                       #
                #                      Frank Neese                      #
                #                                                       #
                #     Directorship, Architecture, Infrastructure        #
                #                    SHARK, DRIVERS                     #
                #        Core code/Algorithms in most modules           #
                #                                                       #
                #        Max Planck Institute fuer Kohlenforschung      #
                #                Kaiser Wilhelm Platz 1                 #
                #                 D-45470 Muelheim/Ruhr                 #
                #                      Germany                          #
                #                                                       #
                #                  All rights reserved                  #
                #                        -***-                          #
                #########################################################


                         Program Version 6.1.0-f.0  -   RELEASE   -


 With contributions from (in alphabetic order):
[Max-Planck-Institut fuer Kohlenforschung]                               
  Daniel Aravena         : Magnetic Suceptibility                        
  Michael Atanasov       : Ab Initio Ligand Field Theory (pilot matlab implementation)
  Alexander A. Auer      : GIAO ZORA, VPT2 properties, NMR spectrum      
  Ute Becker             : All parallelization in ORCA, NUMFREQ, NUMCALC 
  Giovanni Bistoni       : ED, misc. LED, open-shell LED, HFLD           
  Dmytro Bykov           : pre 5.0 version of the SCF Hessian            
  Marcos Casanova-Páez   : Triplet and SCS-CIS(D). UHF-(DLPNO)-IP/EA/STEOM-CCSD. UHF-CVS-IP/STEOM-CCSD   
  Vijay G. Chilkuri      : MRCI spin determinant printing, contributions to CSF-ICE 
  Pauline Colinet        : FMM embedding                                 
  Dipayan Datta          : RHF DLPNO-CCSD density                        
  Achintya Kumar Dutta   : EOM-CC, STEOM-CC                              
  Nicolas Foglia         : Exact transition moments, OPA infrastructure, MCD improvements    
  Dmitry Ganyushin       : Spin-Orbit,Spin-Spin,Magnetic field MRCI      
  Miquel Garcia-Rates    : C-PCM and meta-GGA Hessian, CCSD/C-PCM, Gaussian charge scheme 
  Tiago L. C. Gouveia    : GS-ROHF, GS-ROCIS                             
  Yang Guo               : DLPNO-NEVPT2, F12-NEVPT2, CIM, IAO-localization        
  Andreas Hansen         : Spin unrestricted coupled pair/coupled cluster methods 
  Ingolf Harden          : AUTO-CI MPn and infrastructure                
  Benjamin Helmich-Paris : MC-RPA, TRAH-(SCF,CASSCF), AVAS, COSX integrals, SCF dyn. polar., MC-PDFT, srDFT 
  Lee Huntington         : MR-EOM, pCC                                   
  Robert Izsak           : Overlap fitted RIJCOSX, COSX-SCS-MP3, EOM     
  Riya Kayal             : Wick's Theorem for AUTO-CI, AUTO-CI UHF-CCSDT 
  Emily Kempfer          : AUTO-CI RHF CISDT and CCSDT, approximate NEVPT4
  Christian Kollmar      : KDIIS, OOCD, Brueckner-CCSD(T), CCSD density, CASPT2, CASPT2-K, improved NEVPT2 
  Axel Koslowski         : Symmetry handling                             
  Simone Kossmann        : meta-GGA functionals, TD-DFT gradient, OOMP2, (MP2 Hessian; deprecated post 5.0) 
  Lucas Lang             : DCDCAS, Hyperfine gauge corrections, ICE-SOC+SSC
  Marvin Lechner         : AUTO-CI (C++ implementation), FIC-MRCC        
  Spencer Leger          : CASSCF response                               
  Dagmar Lenk            : GEPOL surface, SMD, ORCA-2-JSON               
  Dimitrios Liakos       : Extrapolation schemes; Compound Job, Property file
  Dimitrios Manganas     : Further ROCIS development; embedding schemes. LFT, Crystal Embedding 
  Dimitrios Pantazis     : SARC Basis sets                               
  Anastasios Papadopoulos: AUTO-CI, single reference methods and gradients 
  Taras Petrenko         : pre 6.0 DFT Hessian and TD-DFT gradient,  ECA, NRVS 
  Petra Pikulova         : Analytic Raman intensities                    
  Peter Pinski           : DLPNO-MP2, DLPNO-MP2 Gradient                 
  Shashank Vittal Rao    : ES-AILFT, MagRelax                            
  Christoph Reimann      : Effective Core Potentials                     
  Marius Retegan         : Local ZFS, SOC                                
  Christoph Riplinger    : Optimizer, TS searches, QM/MM, DLPNO-CCSD(T), (RO)-DLPNO pert. Triples 
  Michael Roemelt        : Original ROCIS implementation, recursive CI coupling coefficients
  Masaaki Saitow         : Open-shell DLPNO-CCSD energy and density      
  Barbara Sandhoefer     : DKH picture change effects                    
  Yorick L. A. Schmerwitz: GMF and freeze-and-release deltaSCF, NEB S-IDPP initial path                    
  Kantharuban Sivalingam : CASSCF convergence/infrastructure, NEVPT2, NEVPT3, NEVPT4(SD), FIC-MRCI and CEPA variants
  Bernardo de Souza      : ESD, SOC TD-DFT                               
  Georgi L. Stoychev     : AutoAux, RI-MP2 NMR, DLPNO-MP2 response, X2C  
  Van Anh Tran           : RI-MP2 g-tensors                              
  Willem Van den Heuvel  : Paramagnetic NMR                              
  Zikuan Wang            : NOTCH, Electric field optimization            
  Frank Wennmohs         : Technical directorship and infrastructure     
  Hang Xu                : AUTO-CI-Response properties                   
                                                                         
[FACCTs GmbH]                                                            
  Markus Bursch, Nicolas Foglia, Miquel Garcia-Rates, Ingolf Harden, Hagen Neugebauer, Anastasios Papadopoulos, 
  Christoph Riplinger, Bernardo de Souza, Georgi L. Stoychev                                                    
                                                                 
  APM, various basis sets, CI-OPT, improved COSX, DLPNO-Multilevel,           
  DOCKER, DRACO, updates on ESD, Fragmentator, GOAT, IRC, LR-CPCM, L-BFGS, MBIS, meta-GGA TD-DFT gradient, ML-optimized integration grids, 
  MM, NACMEs, nearIR, NEB, NEB-TS, NL-DFT gradient (VV10), 2- and 3-layer-ONIOM, interface openCOSMO-RS, QMMM,   
  Crystal-QMMM, RESP, rigid body optimization, SF, symmetry and pop. for TD-DFT, various functionals, SOLVATOR                                   
                                                                         
[Other institutions]                                                     
  V. Asgeirsson          : NEB                                           
  Christoph Bannwarth    : sTDA-DFT, sTD-DFT, PBEh-3c, B97-3c, D3        
  Giovanni Bistoni       : ETS/NOCV, ADLD/ADEX, COVALED                  
  Martin Brehm           : Molecular dynamics                            
  Ronald Cardenas        : ETS/NOCV                                      
  Martina Colucci        : COVALED                                       
  Sebastian Ehlert       : rSCAN, r2SCAN, r2SCAN-3c, D4, dhf basis sets  
  Marvin Friede          : D4 for Fr, Ra, Ac-Lr                          
  Lars Goerigk           : TD-DFT with DH, B97 family of functionals     
  Stefan Grimme          : VdW corrections, initial TS optimization, DFT functionals, gCP, sTDA/sTD-DF 
  Waldemar Hujo          : DFT-NL                                        
  H. Jonsson             : NEB                                           
  Holger Kruse           : gCP                                           
  Marcel Mueller         : wB97X-3c, vDZP basis set                      
  Hagen Neugebauer       : wr2SCAN, Native XTB                           
  Gianluca Regni         : ADLD/ADEX                                     
  Tobias Risthaus        : pre 6.0 range-separated hybrid DFT and stability analysis
  Lukas Wittmann         : regularized MP2, r2SCAN double-hybrids, wr2SCAN        
                                                                         
We gratefully acknowledge several colleagues who have allowed us to      
interface, adapt or use parts of their codes:                            
  Ed Valeev, F. Pavosevic, A. Kumar             : LibInt (2-el integral package), F12 methods 
  Garnet Chan, S. Sharma, J. Yang, R. Olivares  : DMRG                   
  Ulf Ekstrom                                   : XCFun DFT Library      
  Mihaly Kallay                                 : mrcc  (arbitrary order and MRCC methods)
  Frank Weinhold                                : gennbo (NPA and NBO analysis)           
  Simon Mueller                                 : openCOSMO-RS                            
  Christopher J. Cramer and Donald G. Truhlar   : smd solvation model                     
  S Lehtola, MJT Oliveira, MAL Marques          : LibXC Library                           
  Liviu Ungur et al                             : ANISO software                          


 Your calculation uses the libint2 library for the computation of 2-el integrals
 For citations please refer to: http://libint.valeyev.net

 Your ORCA version has been built with support for libXC version: 7.0.0
 For citations please refer to: https://libxc.gitlab.io

 This ORCA versions uses:
   CBLAS   interface :  Fast vector & matrix operations
   LAPACKE interface :  Fast linear algebra routines
   SCALAPACK package :  Parallel linear algebra routines
   Shared memory     :  Shared parallel matrices
   BLAS/LAPACK       :  OpenBLAS 0.3.29  USE64BITINT DYNAMIC_ARCH NO_AFFINITY Cooperlake SINGLE_THREADED
        Core in use  :  Cooperlake
   Copyright (c) 2011-2014, The OpenBLAS Project


  ***********************************
  * Starting time: Tue Mar  3 21:28:29 2026
  * Host name:     c08b01n08
  * Process ID:    1533015
  * Working dir.:  /lustre1/jiangy/jiangy_liuxy/NMR/B9D7C2-RSSS-NMR/opt_conf
  ***********************************

NOTE: MaxCore=5000 MB was set to SCF,MP2,MDCI,CIPSI,MRCI,RASCI and CIS
      => If you want to overwrite this, your respective input block should be placed after the MaxCore statement


***************************************
The coordinates will be read from file: opt-conf-1.xyz
***************************************



Warning: The global flag for NMR shieldings has been found
         but shieldings for certain elements have also been explicitly requested in the EPRNMR block
         ==>> only the requested shieldings will be calculated

================================================================================

----- Orbital basis set information -----
Your calculation utilizes the basis: pcSseg-2
   F. Jensen, J. Chem. Theory Comput. 11, 132 (2015).

----- AuxJ basis set information -----
Your calculation utilizes the AutoAux generation procedure.
  G. L. Stoychev, A. A. Auer, F. Neese, J. Chem. Theory Comput. 13, 554 (2017)

----- AuxC basis set information -----
Your calculation utilizes the AutoAux generation procedure.
  G. L. Stoychev, A. A. Auer, F. Neese, J. Chem. Theory Comput. 13, 554 (2017)

----- AuxJK basis set information -----
Your calculation utilizes the AutoAux generation procedure.
  G. L. Stoychev, A. A. Auer, F. Neese, J. Chem. Theory Comput. 13, 554 (2017)

----- AuxX basis set information -----
Your calculation utilizes the AutoAux generation procedure.
  G. L. Stoychev, A. A. Auer, F. Neese, J. Chem. Theory Comput. 13, 554 (2017)

================================================================================
                                        WARNINGS
                       Please study these warnings very carefully!
================================================================================


================================================================================
                                       INPUT FILE
================================================================================
NAME = nmr-conf-1.inp
|  1> !TPSS PCSSEG-2 AUTOAUX NMR CPCM(Methanol)
|  2> 
|  3> %pal nprocs 60 end
|  4> %maxcore 5000
|  5> 
|  6> *XYZFILE 0 1 opt-conf-1.xyz
|  7> 
|  8> %EPRNMR
|  9>    NUCLEI = ALL C {SHIFT}
| 10>    NUCLEI = ALL H {SHIFT}
| 11>    TAU DOBSON
| 12> END
| 13> 
| 14> 
| 15>                          ****END OF INPUT****
================================================================================

                       ****************************
                       * Single Point Calculation *
                       ****************************

---------------------------------
CARTESIAN COORDINATES (ANGSTROEM)
---------------------------------
  C     11.816628  -12.074072   -1.907397
  C     12.283431  -13.363800   -1.644705
  C     11.387250  -14.434683   -1.644239
  C     10.029761  -14.207815   -1.867082
  C      9.564290  -12.917432   -2.100659
  C     10.461852  -11.851290   -2.129602
  C      8.092412  -12.651620   -2.294330
  C      7.435944  -11.982132   -1.067616
  C      6.095905  -11.290512   -1.387401
  C      6.261690  -10.047697   -2.282971
  C      7.266048   -9.033771   -1.798099
  C      7.128705   -8.437196   -0.537607
  C      8.041166   -7.489625   -0.100933
  C      9.109761   -7.106910   -0.928411
  C      9.258500   -7.700415   -2.166406
  C      8.342146   -8.661031   -2.594137
  C      7.317368  -12.984572    0.083102
  C      5.063388  -12.239748   -1.996460
  O     11.932082  -15.656276   -1.402118
  O     12.763377  -11.092902   -1.911596
  O     13.627853  -13.562355   -1.437136
  O      9.994059   -6.150717   -0.516413
  O      8.007018   -6.848210    1.103281
  C     14.048647  -13.879785   -0.090654
  C     14.075260  -12.623164    0.795037
  C     12.694244  -12.148299    1.240485
  C     15.423674  -14.500887   -0.245806
  O     15.372742  -15.701758   -1.011526
  C     12.426509  -10.779091    1.288986
  C     11.177101  -10.315059    1.670409
  C     10.171121  -11.224699    2.012928
  C     10.440710  -12.580280    2.007769
  C     11.697919  -13.039151    1.626319
  C     12.330054   -9.747022   -2.114434
  C     11.062115  -16.784342   -1.340547
  C      6.926949   -7.130402    1.990722
  O     14.816637  -11.591386    0.156327
  O      6.817170  -12.408421    1.289633
  O      3.756432  -11.657990   -2.080126
  O     10.808042   -9.004149    1.744124
  O      8.925531  -10.771063    2.363462
  C     11.826990   -8.010743    1.631142
  H      9.329451  -15.029900   -1.854539
  H     10.093760  -10.853171   -2.314389
  H      7.578559  -13.588657   -2.523226
  H      7.963405  -12.002666   -3.162388
  H      8.115168  -11.195510   -0.726417
  H      5.689597  -10.960335   -0.425354
  H      6.541659  -10.359779   -3.292216
  H      5.280318   -9.574914   -2.374167
  H      6.301141   -8.718995    0.098426
  H     10.089492   -7.404971   -2.794670
  H      8.469867   -9.117352   -3.568087
  H      8.295389  -13.440440    0.261256
  H      6.628225  -13.790738   -0.175842
  H      5.333555  -12.492276   -3.023633
  H      5.014909  -13.171966   -1.426408
  H      9.722032   -5.841993    0.360656
  H     13.374722  -14.626849    0.326963
  H     14.651006  -12.884167    1.688984
  H     15.812635  -14.767406    0.737624
  H     16.104010  -13.776424   -0.704686
  H     14.866241  -15.505038   -1.811475
  H     13.199018  -10.080443    1.009756
  H      9.662728  -13.274505    2.298102
  H     11.876566  -14.105288    1.623918
  H     13.221453   -9.131472   -2.024637
  H     11.895101   -9.625916   -3.108539
  H     11.600194   -9.452277   -1.359834
  H     10.324963  -16.669169   -0.542370
  H     10.548037  -16.938062   -2.292261
  H     11.700466  -17.638501   -1.128341
  H      5.969857   -6.869273    1.532977
  H      6.918837   -8.185413    2.274193
  H      7.094058   -6.515590    2.871381
  H     14.338814  -11.369890   -0.661531
  H      7.482023  -11.787640    1.631357
  H      3.462007  -11.455351   -1.183066
  H      8.922181   -9.802925    2.306033
  H     12.245915   -7.993188    0.623847
  H     11.343871   -7.061133    1.840096
  H     12.621916   -8.192416    2.357970

----------------------------
CARTESIAN COORDINATES (A.U.)
----------------------------
  NO LB      ZA    FRAG     MASS         X           Y           Z
   0 C     6.0000    0    12.011   22.330191  -22.816690   -3.604458
   1 C     6.0000    0    12.011   23.212321  -25.253922   -3.108042
   2 C     6.0000    0    12.011   21.518785  -27.277598   -3.107162
   3 C     6.0000    0    12.011   18.953502  -26.848879   -3.528274
   4 C     6.0000    0    12.011   18.073889  -24.410409   -3.969671
   5 C     6.0000    0    12.011   19.770036  -22.395693   -4.024365
   6 C     6.0000    0    12.011   15.292443  -23.908097   -4.335656
   7 C     6.0000    0    12.011   14.051897  -22.642948   -2.017502
   8 C     6.0000    0    12.011   11.519591  -21.335976   -2.621808
   9 C     6.0000    0    12.011   11.832879  -18.987396   -4.314190
  10 C     6.0000    0    12.011   13.730841  -17.071353   -3.397915
  11 C     6.0000    0    12.011   13.471300  -15.943990   -1.015930
  12 C     6.0000    0    12.011   15.195602  -14.153340   -0.190735
  13 C     6.0000    0    12.011   17.214954  -13.430114   -1.754443
  14 C     6.0000    0    12.011   17.496030  -14.551676   -4.093915
  15 C     6.0000    0    12.011   15.764372  -16.366977   -4.902208
  16 C     6.0000    0    12.011   13.827822  -24.537285    0.157040
  17 C     6.0000    0    12.011    9.568416  -23.129771   -3.772763
  18 O     8.0000    0    15.999   22.548367  -29.586074   -2.649618
  19 O     8.0000    0    15.999   24.119288  -20.962547   -3.612393
  20 O     8.0000    0    15.999   25.752909  -25.629136   -2.715793
  21 O     8.0000    0    15.999   18.886035  -11.623171   -0.975880
  22 O     8.0000    0    15.999   15.131072  -12.941242    2.084899
  23 C     6.0000    0    12.011   26.548095  -26.228992   -0.171312
  24 C     6.0000    0    12.011   26.598387  -23.854322    1.502402
  25 C     6.0000    0    12.011   23.988644  -22.956958    2.344176
  26 C     6.0000    0    12.011   29.146520  -27.402706   -0.464507
  27 O     8.0000    0    15.999   29.050272  -29.672022   -1.911507
  28 C     6.0000    0    12.011   23.482698  -20.369530    2.435830
  29 C     6.0000    0    12.011   21.121660  -19.492637    3.156616
  30 C     6.0000    0    12.011   19.220633  -21.211607    3.803883
  31 C     6.0000    0    12.011   19.730083  -23.773283    3.794134
  32 C     6.0000    0    12.011   22.105863  -24.640425    3.073297
  33 C     6.0000    0    12.011   23.300426  -18.419202   -3.995701
  34 C     6.0000    0    12.011   20.904368  -31.717811   -2.533266
  35 C     6.0000    0    12.011   13.090036  -13.474506    3.761920
  36 O     8.0000    0    15.999   27.999386  -21.904545    0.295415
  37 O     8.0000    0    15.999   12.882584  -23.448517    2.437053
  38 O     8.0000    0    15.999    7.098628  -22.030409   -3.930869
  39 O     8.0000    0    15.999   20.424240  -17.015375    3.295916
  40 O     8.0000    0    15.999   16.866809  -20.354359    4.466295
  41 C     6.0000    0    12.011   22.349771  -15.138110    3.082413
  42 H     1.0000    0     1.008   17.630107  -28.402395   -3.504571
  43 H     1.0000    0     1.008   19.074442  -20.509521   -4.373561
  44 H     1.0000    0     1.008   14.321400  -25.678840   -4.768207
  45 H     1.0000    0     1.008   15.048654  -22.681752   -5.976047
  46 H     1.0000    0     1.008   15.335445  -21.156448   -1.372730
  47 H     1.0000    0     1.008   10.751781  -20.712032   -0.803803
  48 H     1.0000    0     1.008   12.361944  -19.577144   -6.221388
  49 H     1.0000    0     1.008    9.978355  -18.093966   -4.486526
  50 H     1.0000    0     1.008   11.907430  -16.476514    0.185998
  51 H     1.0000    0     1.008   19.066378  -13.993367   -5.281161
  52 H     1.0000    0     1.008   16.005730  -17.229299   -6.742706
  53 H     1.0000    0     1.008   15.676014  -25.398750    0.493702
  54 H     1.0000    0     1.008   12.525530  -26.060718   -0.332294
  55 H     1.0000    0     1.008   10.078957  -23.606981   -5.713839
  56 H     1.0000    0     1.008    9.476804  -24.891408   -2.695521
  57 H     1.0000    0     1.008   18.371977  -11.039767    0.681541
  58 H     1.0000    0     1.008   25.274561  -27.640739    0.617871
  59 H     1.0000    0     1.008   27.686389  -24.347546    3.191717
  60 H     1.0000    0     1.008   29.881549  -27.906352    1.393908
  61 H     1.0000    0     1.008   30.432169  -26.033669   -1.331663
  62 H     1.0000    0     1.008   28.093124  -29.300275   -3.423191
  63 H     1.0000    0     1.008   24.942530  -19.049277    1.908162
  64 H     1.0000    0     1.008   18.259910  -25.085179    4.342783
  65 H     1.0000    0     1.008   22.443456  -26.655131    3.068760
  66 H     1.0000    0     1.008   24.984925  -17.255981   -3.826009
  67 H     1.0000    0     1.008   22.478483  -18.190346   -5.874288
  68 H     1.0000    0     1.008   21.921190  -17.862215   -2.569713
  69 H     1.0000    0     1.008   19.511352  -31.500165   -1.024931
  70 H     1.0000    0     1.008   19.932902  -32.008298   -4.331746
  71 H     1.0000    0     1.008   22.110676  -33.331936   -2.132256
  72 H     1.0000    0     1.008   11.281394  -12.981045    2.896907
  73 H     1.0000    0     1.008   13.074707  -15.468190    4.297601
  74 H     1.0000    0     1.008   13.405827  -12.312681    5.426123
  75 H     1.0000    0     1.008   27.096432  -21.485979   -1.250113
  76 H     1.0000    0     1.008   14.138975  -22.275412    3.082818
  77 H     1.0000    0     1.008    6.542245  -21.647476   -2.235671
  78 H     1.0000    0     1.008   16.860479  -18.524843    4.357770
  79 H     1.0000    0     1.008   23.141426  -15.104936    1.178901
  80 H     1.0000    0     1.008   21.436810  -13.343607    3.477277
  81 H     1.0000    0     1.008   23.851965  -15.481423    4.455918

--------------------------------
INTERNAL COORDINATES (ANGSTROEM)
--------------------------------
 C      0   0   0     0.000000000000     0.00000000     0.00000000
 C      1   0   0     1.396534928381     0.00000000     0.00000000
 C      2   1   0     1.396399656502   119.58931433     0.00000000
 C      3   2   1     1.394239977997   120.00151624   358.16527350
 C      4   3   2     1.391513436698   120.22594588     0.49455759
 C      1   2   3     1.390835785033   120.23658593     1.82481198
 C      5   4   3     1.508173861136   120.76050355   182.19369408
 C      7   5   4     1.544018344507   112.91303609   105.52264328
 C      8   7   5     1.541526665444   113.53568174   161.03211041
 C      9   8   7     1.540817736553   112.88782953   291.75825316
 C     10   9   8     1.507276573402   115.29677673   307.78757135
 C     11  10   9     1.401287114818   120.69325514   301.66259816
 C     12  11  10     1.386059338117   120.65851310   181.00632886
 C     13  12  11     1.404665760143   120.09817144     0.65762781
 C     14  13  12     1.380943287735   119.53486060   358.71694272
 C     11  10   9     1.389459507385   120.81184697   122.20441978
 C      8   7   5     1.530718136664   110.25744679   288.28822201
 C      9   8   7     1.529082213176   113.02299688    57.39150942
 O      3   2   1     1.359321021621   115.59542062   178.90007959
 O      1   2   3     1.363468564045   115.66178663   181.14141876
 O      2   1   3     1.374764620122   119.25279227   177.73169830
 O     14  13  12     1.366027152218   120.36549644   178.45026321
 O     13  12  11     1.364811618019   125.64728202   180.12839109
 C     21   2   1     1.445974366482   117.18661049   108.94036906
 C     24  21   2     1.537612848142   111.22371639   282.50477862
 C     25  24  21     1.526802765760   113.99019816    75.93225909
 C     24  21   2     1.516753477824   104.97868085   160.93405400
 O     27  24  21     1.425135130308   111.56875511   297.92753920
 C     26  25  24     1.395981197517   119.25302071   218.98555245
 C     29  26  25     1.386300414872   120.71162265   179.06280684
 C     30  29  26     1.398842223895   119.85731807     0.08205405
 C     31  30  29     1.382137556003   119.77525609     1.93541889
 C     26  25  24     1.391096367112   121.97658399    40.27085451
 C     20   1   2     1.428392584188   117.89385821   182.80746119
 C     19   3   2     1.425891563271   118.30206459   177.77754398
 C     23  13  12     1.426090414080   118.36053831   357.99352510
 O     25  24  21     1.422024956213   110.07669929   308.92379414
 O     17   8   7     1.427538246551   113.46573686   175.24388772
 O     18   9   8     1.433029562874   112.77319149   169.98735898
 O     30  29  26     1.363863981751   125.48422300   180.40484574
 O     31  30  29     1.371186825561   120.04903694   181.37947192
 C     40  30  29     1.427541136914   118.12800577   349.37775067
 H      4   3   2     1.080007631163   120.37279263   180.84377799
 H      6   1   2     1.079759604691   120.49559538   178.82646624
 H      7   5   4     1.092921092571   109.55037837   342.85310983
 H      7   5   4     1.091471048317   108.80037048   226.53739529
 H      8   7   5     1.093862935173   107.19515757    43.86488115
 H      9   8   7     1.095279576133   105.99256679   173.85532672
 H     10   9   8     1.092865301093   109.51101425    70.55097925
 H     10   9   8     1.093128760504   107.50268395   185.33956139
 H     12  11  10     1.081116218003   119.55483647     0.90252229
 H     15  14  13     1.082843869297   119.04742505   180.47089349
 H     16  11  10     1.083106524108   119.56945604   358.95010177
 H     17   8   7     1.093654024636   109.03585325    52.12566714
 H     17   8   7     1.091730232098   110.74304127   294.43184237
 H     18   9   8     1.091716962610   110.56435283   287.63816385
 H     18   9   8     1.093772948417   110.57477519    46.83769469
 H     22  14  13     0.968793461927   108.32098220   359.22453245
 H     24  21   2     1.089350234970   109.11718538    44.67157843
 H     25  24  21     1.094873455733   106.53423009   195.13216812
 H     27  24  21     1.090622856237   109.33840773   179.84711141
 H     27  24  21     1.094657387932   109.59092657    60.98456952
 H     28  27  24     0.967036879055   106.96365544    49.23913432
 H     29  26  25     1.078354897210   119.27926892     0.08510376
 H     32  31  30     1.082357833484   119.20100869   178.49139455
 H     33  26  25     1.081002842972   120.83792366     0.15808899
 H     34  20   1     1.086994196932   105.84684930   176.82917958
 H     34  20   1     1.091831821856   110.77243961   295.81958350
 H     34  20   1     1.090409053635   111.06800692    57.71127946
 H     35  19   3     1.092585938949   111.08728923   299.58734347
 H     35  19   3     1.092550085074   111.14786223    61.77462847
 H     35  19   3     1.087248564709   105.76748293   180.67490230
 H     36  23  13     1.092585941287   110.82025759   299.43852482
 H     36  23  13     1.092460913244   110.98903092    61.27421523
 H     36  23  13     1.086957884584   106.01088358   180.33693383
 H     37  25  24     0.972762567763   106.66359209    63.23951911
 H     38  17   8     0.971686309438   108.38093183   292.46086996
 H     39  18   9     0.965642726673   108.00079292   298.17396077
 H     41  31  30     0.969846133441   108.55721900     0.79631518
 H     42  40  30     1.091077699777   110.99720204    68.08762835
 H     42  40  30     1.085736607311   106.00955665   186.95721365
 H     42  40  30     1.092333207981   110.55096390   306.08044348

---------------------------
INTERNAL COORDINATES (A.U.)
---------------------------
 C      0   0   0     0.000000000000     0.00000000     0.00000000
 C      1   0   0     2.639068551096     0.00000000     0.00000000
 C      2   1   0     2.638812924290   119.58931433     0.00000000
 C      3   2   1     2.634731723380   120.00151624   358.16527350
 C      4   3   2     2.629579307031   120.22594588     0.49455759
 C      1   2   3     2.628298730969   120.23658593     1.82481198
 C      5   4   3     2.850035559885   120.76050355   182.19369408
 C      7   5   4     2.917771816868   112.91303609   105.52264328
 C      8   7   5     2.913063225827   113.53568174   161.03211041
 C      9   8   7     2.911723544373   112.88782953   291.75825316
 C     10   9   8     2.848339931805   115.29677673   307.78757135
 C     11  10   9     2.648048881998   120.69325514   301.66259816
 C     12  11  10     2.619272554405   120.65851310   181.00632886
 C     13  12  11     2.654433596367   120.09817144     0.65762781
 C     14  13  12     2.609604620297   119.53486060   358.71694272
 C     11  10   9     2.625697943132   120.81184697   122.20441978
 C      8   7   5     2.892638066522   110.25744679   288.28822201
 C      9   8   7     2.889546619152   113.02299688    57.39150942
 O      3   2   1     2.568744458946   115.59542062   178.90007959
 O      1   2   3     2.576582178257   115.66178663   181.14141876
 O      2   1   3     2.597928630635   119.25279227   177.73169830
 O     14  13  12     2.581417209192   120.36549644   178.45026321
 O     13  12  11     2.579120182450   125.64728202   180.12839109
 C     21   2   1     2.732495549322   117.18661049   108.94036906
 C     24  21   2     2.905667182987   111.22371639   282.50477862
 C     25  24  21     2.885239087800   113.99019816    75.93225909
 C     24  21   2     2.866248685760   104.97868085   160.93405400
 O     27  24  21     2.693115100113   111.56875511   297.92753920
 C     26  25  24     2.638022151411   119.25302071   218.98555245
 C     29  26  25     2.619728123449   120.71162265   179.06280684
 C     30  29  26     2.643428707727   119.85731807     0.08205405
 C     31  30  29     2.611861460253   119.77525609     1.93541889
 C     26  25  24     2.628791159734   121.97658399    40.27085451
 C     20   1   2     2.699270795839   117.89385821   182.80746119
 C     19   3   2     2.694544551252   118.30206459   177.77754398
 C     23  13  12     2.694920324822   118.36053831   357.99352510
 O     25  24  21     2.687237722845   110.07669929   308.92379414
 O     17   8   7     2.697656331680   113.46573686   175.24388772
 O     18   9   8     2.708033415645   112.77319149   169.98735898
 O     30  29  26     2.577329409429   125.48422300   180.40484574
 O     31  30  29     2.591167578752   120.04903694   181.37947192
 C     40  30  29     2.697661793674   118.12800577   349.37775067
 H      4   3   2     2.040918645443   120.37279263   180.84377799
 H      6   1   2     2.040449943337   120.49559538   178.82646624
 H      7   5   4     2.065321550946   109.55037837   342.85310983
 H      7   5   4     2.062581364423   108.80037048   226.53739529
 H      8   7   5     2.067101375524   107.19515757    43.86488115
 H      9   8   7     2.069778438970   105.99256679   173.85532672
 H     10   9   8     2.065216120330   109.51101425    70.55097925
 H     10   9   8     2.065713986465   107.50268395   185.33956139
 H     12  11  10     2.043013570966   119.55483647     0.90252229
 H     15  14  13     2.046278358767   119.04742505   180.47089349
 H     16  11  10     2.046774704427   119.56945604   358.95010177
 H     17   8   7     2.066706591822   109.03585325    52.12566714
 H     17   8   7     2.063071150787   110.74304127   294.43184237
 H     18   9   8     2.063046075089   110.56435283   287.63816385
 H     18   9   8     2.066931325200   110.57477519    46.83769469
 H     22  14  13     1.830754323376   108.32098220   359.22453245
 H     24  21   2     2.058573608015   109.11718538    44.67157843
 H     25  24  21     2.069010982635   106.53423009   195.13216812
 H     27  24  21     2.060978513683   109.33840773   179.84711141
 H     27  24  21     2.068602673665   109.59092657    60.98456952
 H     28  27  24     1.827434862816   106.96365544    49.23913432
 H     29  26  25     2.037795430901   119.27926892     0.08510376
 H     32  31  30     2.045359884189   119.20100869   178.49139455
 H     33  26  25     2.042799323207   120.83792366     0.15808899
 H     34  20   1     2.054121341362   105.84684930   176.82917958
 H     34  20   1     2.063263127608   110.77243961   295.81958350
 H     34  20   1     2.060574485318   111.06800692    57.71127946
 H     35  19   3     2.064688202387   111.08728923   299.58734347
 H     35  19   3     2.064620448382   111.14786223    61.77462847
 H     35  19   3     2.054602026800   105.76748293   180.67490230
 H     36  23  13     2.064688206805   110.82025759   299.43852482
 H     36  23  13     2.064451938045   110.98903092    61.27421523
 H     36  23  13     2.054052720970   106.01088358   180.33693383
 H     37  25  24     1.838254846402   106.66359209    63.23951911
 H     38  17   8     1.836221012918   108.38093183   292.46086996
 H     39  18   9     1.824800296624   108.00079292   298.17396077
 H     41  31  30     1.832743584246   108.55721900     0.79631518
 H     42  40  30     2.061838043407   110.99720204    68.08762835
 H     42  40  30     2.051744841390   106.00955665   186.95721365
 H     42  40  30     2.064210610071   110.55096390   306.08044348

---------------------
BASIS SET INFORMATION
---------------------
There are 3 groups of distinct atoms

 Group   1 Type C   : 11s7p2d1f contracted to 4s5p2d1f pattern {7211/31111/11/1}
 Group   2 Type O   : 11s7p2d1f contracted to 4s5p2d1f pattern {7211/31111/11/1}
 Group   3 Type H   : 6s3p1d contracted to 3s2p1d pattern {411/21/1}

Atom   0C    basis set group =>   1
Atom   1C    basis set group =>   1
Atom   2C    basis set group =>   1
Atom   3C    basis set group =>   1
Atom   4C    basis set group =>   1
Atom   5C    basis set group =>   1
Atom   6C    basis set group =>   1
Atom   7C    basis set group =>   1
Atom   8C    basis set group =>   1
Atom   9C    basis set group =>   1
Atom  10C    basis set group =>   1
Atom  11C    basis set group =>   1
Atom  12C    basis set group =>   1
Atom  13C    basis set group =>   1
Atom  14C    basis set group =>   1
Atom  15C    basis set group =>   1
Atom  16C    basis set group =>   1
Atom  17C    basis set group =>   1
Atom  18O    basis set group =>   2
Atom  19O    basis set group =>   2
Atom  20O    basis set group =>   2
Atom  21O    basis set group =>   2
Atom  22O    basis set group =>   2
Atom  23C    basis set group =>   1
Atom  24C    basis set group =>   1
Atom  25C    basis set group =>   1
Atom  26C    basis set group =>   1
Atom  27O    basis set group =>   2
Atom  28C    basis set group =>   1
Atom  29C    basis set group =>   1
Atom  30C    basis set group =>   1
Atom  31C    basis set group =>   1
Atom  32C    basis set group =>   1
Atom  33C    basis set group =>   1
Atom  34C    basis set group =>   1
Atom  35C    basis set group =>   1
Atom  36O    basis set group =>   2
Atom  37O    basis set group =>   2
Atom  38O    basis set group =>   2
Atom  39O    basis set group =>   2
Atom  40O    basis set group =>   2
Atom  41C    basis set group =>   1
Atom  42H    basis set group =>   3
Atom  43H    basis set group =>   3
Atom  44H    basis set group =>   3
Atom  45H    basis set group =>   3
Atom  46H    basis set group =>   3
Atom  47H    basis set group =>   3
Atom  48H    basis set group =>   3
Atom  49H    basis set group =>   3
Atom  50H    basis set group =>   3
Atom  51H    basis set group =>   3
Atom  52H    basis set group =>   3
Atom  53H    basis set group =>   3
Atom  54H    basis set group =>   3
Atom  55H    basis set group =>   3
Atom  56H    basis set group =>   3
Atom  57H    basis set group =>   3
Atom  58H    basis set group =>   3
Atom  59H    basis set group =>   3
Atom  60H    basis set group =>   3
Atom  61H    basis set group =>   3
Atom  62H    basis set group =>   3
Atom  63H    basis set group =>   3
Atom  64H    basis set group =>   3
Atom  65H    basis set group =>   3
Atom  66H    basis set group =>   3
Atom  67H    basis set group =>   3
Atom  68H    basis set group =>   3
Atom  69H    basis set group =>   3
Atom  70H    basis set group =>   3
Atom  71H    basis set group =>   3
Atom  72H    basis set group =>   3
Atom  73H    basis set group =>   3
Atom  74H    basis set group =>   3
Atom  75H    basis set group =>   3
Atom  76H    basis set group =>   3
Atom  77H    basis set group =>   3
Atom  78H    basis set group =>   3
Atom  79H    basis set group =>   3
Atom  80H    basis set group =>   3
Atom  81H    basis set group =>   3
---------------------------------
AUXILIARY/J BASIS SET INFORMATION
---------------------------------
There are 3 groups of distinct atoms

 Group   1 Type C   : 15s13p12d5f5g contracted to 15s13p12d5f5g pattern {111111111111111/1111111111111/111111111111/11111/11111}
 Group   2 Type O   : 15s13p12d5f5g contracted to 15s13p12d5f5g pattern {111111111111111/1111111111111/111111111111/11111/11111}
 Group   3 Type H   : 12s4p3d2f contracted to 12s4p3d2f pattern {111111111111/1111/111/11}

Atom   0C    basis set group =>   1
Atom   1C    basis set group =>   1
Atom   2C    basis set group =>   1
Atom   3C    basis set group =>   1
Atom   4C    basis set group =>   1
Atom   5C    basis set group =>   1
Atom   6C    basis set group =>   1
Atom   7C    basis set group =>   1
Atom   8C    basis set group =>   1
Atom   9C    basis set group =>   1
Atom  10C    basis set group =>   1
Atom  11C    basis set group =>   1
Atom  12C    basis set group =>   1
Atom  13C    basis set group =>   1
Atom  14C    basis set group =>   1
Atom  15C    basis set group =>   1
Atom  16C    basis set group =>   1
Atom  17C    basis set group =>   1
Atom  18O    basis set group =>   2
Atom  19O    basis set group =>   2
Atom  20O    basis set group =>   2
Atom  21O    basis set group =>   2
Atom  22O    basis set group =>   2
Atom  23C    basis set group =>   1
Atom  24C    basis set group =>   1
Atom  25C    basis set group =>   1
Atom  26C    basis set group =>   1
Atom  27O    basis set group =>   2
Atom  28C    basis set group =>   1
Atom  29C    basis set group =>   1
Atom  30C    basis set group =>   1
Atom  31C    basis set group =>   1
Atom  32C    basis set group =>   1
Atom  33C    basis set group =>   1
Atom  34C    basis set group =>   1
Atom  35C    basis set group =>   1
Atom  36O    basis set group =>   2
Atom  37O    basis set group =>   2
Atom  38O    basis set group =>   2
Atom  39O    basis set group =>   2
Atom  40O    basis set group =>   2
Atom  41C    basis set group =>   1
Atom  42H    basis set group =>   3
Atom  43H    basis set group =>   3
Atom  44H    basis set group =>   3
Atom  45H    basis set group =>   3
Atom  46H    basis set group =>   3
Atom  47H    basis set group =>   3
Atom  48H    basis set group =>   3
Atom  49H    basis set group =>   3
Atom  50H    basis set group =>   3
Atom  51H    basis set group =>   3
Atom  52H    basis set group =>   3
Atom  53H    basis set group =>   3
Atom  54H    basis set group =>   3
Atom  55H    basis set group =>   3
Atom  56H    basis set group =>   3
Atom  57H    basis set group =>   3
Atom  58H    basis set group =>   3
Atom  59H    basis set group =>   3
Atom  60H    basis set group =>   3
Atom  61H    basis set group =>   3
Atom  62H    basis set group =>   3
Atom  63H    basis set group =>   3
Atom  64H    basis set group =>   3
Atom  65H    basis set group =>   3
Atom  66H    basis set group =>   3
Atom  67H    basis set group =>   3
Atom  68H    basis set group =>   3
Atom  69H    basis set group =>   3
Atom  70H    basis set group =>   3
Atom  71H    basis set group =>   3
Atom  72H    basis set group =>   3
Atom  73H    basis set group =>   3
Atom  74H    basis set group =>   3
Atom  75H    basis set group =>   3
Atom  76H    basis set group =>   3
Atom  77H    basis set group =>   3
Atom  78H    basis set group =>   3
Atom  79H    basis set group =>   3
Atom  80H    basis set group =>   3
Atom  81H    basis set group =>   3
---------------------------------
AUXILIARY/C BASIS SET INFORMATION
---------------------------------
There are 3 groups of distinct atoms

 Group   1 Type C   : 15s13p12d5f5g contracted to 15s13p12d5f5g pattern {111111111111111/1111111111111/111111111111/11111/11111}
 Group   2 Type O   : 15s13p12d5f5g contracted to 15s13p12d5f5g pattern {111111111111111/1111111111111/111111111111/11111/11111}
 Group   3 Type H   : 12s4p3d2f contracted to 12s4p3d2f pattern {111111111111/1111/111/11}

Atom   0C    basis set group =>   1
Atom   1C    basis set group =>   1
Atom   2C    basis set group =>   1
Atom   3C    basis set group =>   1
Atom   4C    basis set group =>   1
Atom   5C    basis set group =>   1
Atom   6C    basis set group =>   1
Atom   7C    basis set group =>   1
Atom   8C    basis set group =>   1
Atom   9C    basis set group =>   1
Atom  10C    basis set group =>   1
Atom  11C    basis set group =>   1
Atom  12C    basis set group =>   1
Atom  13C    basis set group =>   1
Atom  14C    basis set group =>   1
Atom  15C    basis set group =>   1
Atom  16C    basis set group =>   1
Atom  17C    basis set group =>   1
Atom  18O    basis set group =>   2
Atom  19O    basis set group =>   2
Atom  20O    basis set group =>   2
Atom  21O    basis set group =>   2
Atom  22O    basis set group =>   2
Atom  23C    basis set group =>   1
Atom  24C    basis set group =>   1
Atom  25C    basis set group =>   1
Atom  26C    basis set group =>   1
Atom  27O    basis set group =>   2
Atom  28C    basis set group =>   1
Atom  29C    basis set group =>   1
Atom  30C    basis set group =>   1
Atom  31C    basis set group =>   1
Atom  32C    basis set group =>   1
Atom  33C    basis set group =>   1
Atom  34C    basis set group =>   1
Atom  35C    basis set group =>   1
Atom  36O    basis set group =>   2
Atom  37O    basis set group =>   2
Atom  38O    basis set group =>   2
Atom  39O    basis set group =>   2
Atom  40O    basis set group =>   2
Atom  41C    basis set group =>   1
Atom  42H    basis set group =>   3
Atom  43H    basis set group =>   3
Atom  44H    basis set group =>   3
Atom  45H    basis set group =>   3
Atom  46H    basis set group =>   3
Atom  47H    basis set group =>   3
Atom  48H    basis set group =>   3
Atom  49H    basis set group =>   3
Atom  50H    basis set group =>   3
Atom  51H    basis set group =>   3
Atom  52H    basis set group =>   3
Atom  53H    basis set group =>   3
Atom  54H    basis set group =>   3
Atom  55H    basis set group =>   3
Atom  56H    basis set group =>   3
Atom  57H    basis set group =>   3
Atom  58H    basis set group =>   3
Atom  59H    basis set group =>   3
Atom  60H    basis set group =>   3
Atom  61H    basis set group =>   3
Atom  62H    basis set group =>   3
Atom  63H    basis set group =>   3
Atom  64H    basis set group =>   3
Atom  65H    basis set group =>   3
Atom  66H    basis set group =>   3
Atom  67H    basis set group =>   3
Atom  68H    basis set group =>   3
Atom  69H    basis set group =>   3
Atom  70H    basis set group =>   3
Atom  71H    basis set group =>   3
Atom  72H    basis set group =>   3
Atom  73H    basis set group =>   3
Atom  74H    basis set group =>   3
Atom  75H    basis set group =>   3
Atom  76H    basis set group =>   3
Atom  77H    basis set group =>   3
Atom  78H    basis set group =>   3
Atom  79H    basis set group =>   3
Atom  80H    basis set group =>   3
Atom  81H    basis set group =>   3
----------------------------------
AUXILIARY/JK BASIS SET INFORMATION
----------------------------------
There are 3 groups of distinct atoms

 Group   1 Type C   : 15s13p12d5f5g contracted to 15s13p12d5f5g pattern {111111111111111/1111111111111/111111111111/11111/11111}
 Group   2 Type O   : 15s13p12d5f5g contracted to 15s13p12d5f5g pattern {111111111111111/1111111111111/111111111111/11111/11111}
 Group   3 Type H   : 12s4p3d2f contracted to 12s4p3d2f pattern {111111111111/1111/111/11}

Atom   0C    basis set group =>   1
Atom   1C    basis set group =>   1
Atom   2C    basis set group =>   1
Atom   3C    basis set group =>   1
Atom   4C    basis set group =>   1
Atom   5C    basis set group =>   1
Atom   6C    basis set group =>   1
Atom   7C    basis set group =>   1
Atom   8C    basis set group =>   1
Atom   9C    basis set group =>   1
Atom  10C    basis set group =>   1
Atom  11C    basis set group =>   1
Atom  12C    basis set group =>   1
Atom  13C    basis set group =>   1
Atom  14C    basis set group =>   1
Atom  15C    basis set group =>   1
Atom  16C    basis set group =>   1
Atom  17C    basis set group =>   1
Atom  18O    basis set group =>   2
Atom  19O    basis set group =>   2
Atom  20O    basis set group =>   2
Atom  21O    basis set group =>   2
Atom  22O    basis set group =>   2
Atom  23C    basis set group =>   1
Atom  24C    basis set group =>   1
Atom  25C    basis set group =>   1
Atom  26C    basis set group =>   1
Atom  27O    basis set group =>   2
Atom  28C    basis set group =>   1
Atom  29C    basis set group =>   1
Atom  30C    basis set group =>   1
Atom  31C    basis set group =>   1
Atom  32C    basis set group =>   1
Atom  33C    basis set group =>   1
Atom  34C    basis set group =>   1
Atom  35C    basis set group =>   1
Atom  36O    basis set group =>   2
Atom  37O    basis set group =>   2
Atom  38O    basis set group =>   2
Atom  39O    basis set group =>   2
Atom  40O    basis set group =>   2
Atom  41C    basis set group =>   1
Atom  42H    basis set group =>   3
Atom  43H    basis set group =>   3
Atom  44H    basis set group =>   3
Atom  45H    basis set group =>   3
Atom  46H    basis set group =>   3
Atom  47H    basis set group =>   3
Atom  48H    basis set group =>   3
Atom  49H    basis set group =>   3
Atom  50H    basis set group =>   3
Atom  51H    basis set group =>   3
Atom  52H    basis set group =>   3
Atom  53H    basis set group =>   3
Atom  54H    basis set group =>   3
Atom  55H    basis set group =>   3
Atom  56H    basis set group =>   3
Atom  57H    basis set group =>   3
Atom  58H    basis set group =>   3
Atom  59H    basis set group =>   3
Atom  60H    basis set group =>   3
Atom  61H    basis set group =>   3
Atom  62H    basis set group =>   3
Atom  63H    basis set group =>   3
Atom  64H    basis set group =>   3
Atom  65H    basis set group =>   3
Atom  66H    basis set group =>   3
Atom  67H    basis set group =>   3
Atom  68H    basis set group =>   3
Atom  69H    basis set group =>   3
Atom  70H    basis set group =>   3
Atom  71H    basis set group =>   3
Atom  72H    basis set group =>   3
Atom  73H    basis set group =>   3
Atom  74H    basis set group =>   3
Atom  75H    basis set group =>   3
Atom  76H    basis set group =>   3
Atom  77H    basis set group =>   3
Atom  78H    basis set group =>   3
Atom  79H    basis set group =>   3
Atom  80H    basis set group =>   3
Atom  81H    basis set group =>   3
---------------------------------
AUXILIARY/X BASIS SET INFORMATION
---------------------------------
There are 3 groups of distinct atoms

 Group   1 Type C   : 15s13p12d5f5g contracted to 15s13p12d5f5g pattern {111111111111111/1111111111111/111111111111/11111/11111}
 Group   2 Type O   : 15s13p12d5f5g contracted to 15s13p12d5f5g pattern {111111111111111/1111111111111/111111111111/11111/11111}
 Group   3 Type H   : 12s4p3d2f contracted to 12s4p3d2f pattern {111111111111/1111/111/11}

Atom   0C    basis set group =>   1
Atom   1C    basis set group =>   1
Atom   2C    basis set group =>   1
Atom   3C    basis set group =>   1
Atom   4C    basis set group =>   1
Atom   5C    basis set group =>   1
Atom   6C    basis set group =>   1
Atom   7C    basis set group =>   1
Atom   8C    basis set group =>   1
Atom   9C    basis set group =>   1
Atom  10C    basis set group =>   1
Atom  11C    basis set group =>   1
Atom  12C    basis set group =>   1
Atom  13C    basis set group =>   1
Atom  14C    basis set group =>   1
Atom  15C    basis set group =>   1
Atom  16C    basis set group =>   1
Atom  17C    basis set group =>   1
Atom  18O    basis set group =>   2
Atom  19O    basis set group =>   2
Atom  20O    basis set group =>   2
Atom  21O    basis set group =>   2
Atom  22O    basis set group =>   2
Atom  23C    basis set group =>   1
Atom  24C    basis set group =>   1
Atom  25C    basis set group =>   1
Atom  26C    basis set group =>   1
Atom  27O    basis set group =>   2
Atom  28C    basis set group =>   1
Atom  29C    basis set group =>   1
Atom  30C    basis set group =>   1
Atom  31C    basis set group =>   1
Atom  32C    basis set group =>   1
Atom  33C    basis set group =>   1
Atom  34C    basis set group =>   1
Atom  35C    basis set group =>   1
Atom  36O    basis set group =>   2
Atom  37O    basis set group =>   2
Atom  38O    basis set group =>   2
Atom  39O    basis set group =>   2
Atom  40O    basis set group =>   2
Atom  41C    basis set group =>   1
Atom  42H    basis set group =>   3
Atom  43H    basis set group =>   3
Atom  44H    basis set group =>   3
Atom  45H    basis set group =>   3
Atom  46H    basis set group =>   3
Atom  47H    basis set group =>   3
Atom  48H    basis set group =>   3
Atom  49H    basis set group =>   3
Atom  50H    basis set group =>   3
Atom  51H    basis set group =>   3
Atom  52H    basis set group =>   3
Atom  53H    basis set group =>   3
Atom  54H    basis set group =>   3
Atom  55H    basis set group =>   3
Atom  56H    basis set group =>   3
Atom  57H    basis set group =>   3
Atom  58H    basis set group =>   3
Atom  59H    basis set group =>   3
Atom  60H    basis set group =>   3
Atom  61H    basis set group =>   3
Atom  62H    basis set group =>   3
Atom  63H    basis set group =>   3
Atom  64H    basis set group =>   3
Atom  65H    basis set group =>   3
Atom  66H    basis set group =>   3
Atom  67H    basis set group =>   3
Atom  68H    basis set group =>   3
Atom  69H    basis set group =>   3
Atom  70H    basis set group =>   3
Atom  71H    basis set group =>   3
Atom  72H    basis set group =>   3
Atom  73H    basis set group =>   3
Atom  74H    basis set group =>   3
Atom  75H    basis set group =>   3
Atom  76H    basis set group =>   3
Atom  77H    basis set group =>   3
Atom  78H    basis set group =>   3
Atom  79H    basis set group =>   3
Atom  80H    basis set group =>   3
Atom  81H    basis set group =>   3
--------------------------------------------------------------------------
WARNING: There was an error initializing an OpenFabrics device.

  Local host:   c08b01n08
  Local device: mlx5_0
--------------------------------------------------------------------------
--------------------------------------------------------------------------
WARNING: There is at least one non-excluded one OpenFabrics device found,
but there are no active ports detected (or Open MPI was unable to use
them).  This is most certainly not what you wanted.  Check your
cables, subnet manager configuration, etc.  The openib BTL will be
ignored for this job.

  Local host: c08b01n08
--------------------------------------------------------------------------


           ************************************************************
           *        Program running with 60 parallel MPI-processes    *
           *              working on a common directory               *
           ************************************************************
------------------------------------------------------------------------------
                             ORCA STARTUP CALCULATIONS
                           -- RI-GTO INTEGRALS CHOSEN --
------------------------------------------------------------------------------
------------------------------------------------------------------------------
                   ___                                                        
                  /   \      - P O W E R E D   B Y -                         
                 /     \                                                     
                 |  |  |   _    _      __       _____    __    __             
                 |  |  |  | |  | |    /  \     |  _  \  |  |  /  |          
                  \  \/   | |  | |   /    \    | | | |  |  | /  /          
                 / \  \   | |__| |  /  /\  \   | |_| |  |  |/  /          
                |  |  |   |  __  | /  /__\  \  |    /   |      \           
                |  |  |   | |  | | |   __   |  |    \   |  |\   \          
                \     /   | |  | | |  |  |  |  | |\  \  |  | \   \       
                 \___/    |_|  |_| |__|  |__|  |_| \__\ |__|  \__/        
                                                                              
                      - O R C A' S   B I G   F R I E N D -                    
                                      &                                       
                       - I N T E G R A L  F E E D E R -                       
                                                                              
 v1 FN, 2020, v2 2021, v3 2022-2024                                           
------------------------------------------------------------------------------


----------------------
SHARK INTEGRAL PACKAGE
----------------------

Number of atoms                             ...     82
Number of basis functions                   ...   2072
Number of shells                            ...    744
Maximum angular momentum                    ...      3
Integral batch strategy                     ... SHARK/LIBINT Hybrid
RI-J (if used) integral strategy            ... SPLIT-RIJ (Revised 2003 algorithm where possible)
Printlevel                                  ...      1
Contraction scheme used                     ... SEGMENTED contraction
Prescreening option                         ... SCHWARTZ
   Thresh                                   ... 1.000e-10
   Tcut                                     ... 1.000e-11
   Tpresel                                  ... 1.000e-11 
Coulomb Range Separation                    ... NOT USED
Exchange Range Separation                   ... NOT USED
Multipole approximations                    ... NOT USED
Finite Nucleus Model                        ... NOT USED
CABS basis                                  ... NOT available
Auxiliary Coulomb fitting basis             ... AVAILABLE
   # of basis functions in Aux-J            ...  10268
   # of shells in Aux-J                     ...   2940
   Maximum angular momentum in Aux-J        ...      4
Auxiliary J/K fitting basis                 ... AVAILABLE
   # of basis functions in Aux-JK           ...  10268
   # of shells in Aux-JK                    ...   2940
   Maximum angular momentum in Aux-JK       ...      4
Auxiliary Correlation fitting basis         ... AVAILABLE
   # of basis functions in Aux-C            ...  10268
   # of shells in Aux-C                     ...   2940
   Maximum angular momentum in Aux-C        ...      4
Auxiliary 'external' fitting basis          ... NOT available

Checking pre-screening integrals            ... done (  0.0 sec) Dimension = 744
   => SHARK Basis and OBASIS are compatible. Storing Pre-screening
Shell pair information
Shell pair cut-off parameter TPreSel        ...   1.0e-11
Total number of shell pairs                 ...    277140
Shell pairs after pre-screening             ...    150355
Total number of primitive shell pairs       ...    823733
Primitive shell pairs kept                  ...    275258
          la=0 lb=0:  28656 shell pairs
          la=1 lb=0:  50019 shell pairs
          la=1 lb=1:  20421 shell pairs
          la=2 lb=0:  19715 shell pairs
          la=2 lb=1:  14910 shell pairs
          la=2 lb=2:   2654 shell pairs
          la=3 lb=0:   6761 shell pairs
          la=3 lb=1:   5103 shell pairs
          la=3 lb=2:   1782 shell pairs
          la=3 lb=3:    334 shell pairs

Checking whether 4 symmetric matrices of dimension 2072 fit in memory
:Max Core in MB      =   5000.00
 MB in use           =    185.69
 MB left             =   4814.31
 MB needed           =     65.54
 Data fit in memory  = YES
[c08b01n08:1533016] 49 more processes have sent help message help-mpi-btl-openib.txt / error in device init
[c08b01n08:1533016] Set MCA parameter "orte_base_help_aggregate" to 0 to see all help / error messages
[c08b01n08:1533016] 9 more processes have sent help message help-mpi-btl-openib.txt / no active ports found
Calculating RI/J V-Matrix + Cholesky decomp.... done (  8.8 sec)
Calculating RI/JK V-Matrix + Cholesky decomp.... done (  4.2 sec)
Calculating RI/C V-Matrix + Cholesky decomp.... done (  4.0 sec)
Calculating Nuclear repulsion               ... done (  0.0 sec) ENN=   5694.683443069907 Eh

Diagonalization of the overlap matrix:
Smallest eigenvalue                        ... 7.111e-06
Time for diagonalization                   ...    2.983 sec
Threshold for overlap eigenvalues          ... 1.000e-07
Number of eigenvalues below threshold      ... 0
Time for construction of square roots      ...    0.536 sec
Total time needed                          ...    3.616 sec

-------------------
DFT GRID GENERATION
-------------------

General Integration Accuracy     IntAcc      ... 4.388
Radial Grid Type                 RadialGrid  ... OptM3 with GC (2021)
Angular Grid (max. ang.)         AngularGrid ... 4 (Lebedev-302)
Angular grid pruning method      GridPruning ... 4 (adaptive)
Weight generation scheme         WeightScheme... mBecke (2022)
Basis function cutoff            BFCut       ... 1.0000e-10
Integration weight cutoff        WCut        ... 1.0000e-14
Partially contracted basis set               ... off
Rotationally invariant grid construction     ... off
Angular grids for H and He will be reduced by one unit
Diffuse basis detected: some atoms will have their outermost
                        angular grid increased by 1.

Total number of grid points                  ...   376911
Total number of batches                      ...     5934
Average number of points per batch           ...       63
Average number of grid points per atom       ...     4596
Grids setup in   5.1 sec
Initializing property integral containers    ... done (  0.1 sec)

SHARK setup successfully completed in  33.5 seconds

Maximum memory used throughout the entire STARTUP-calculation: 257.7 MB
--------------------------------------------------------------------------
WARNING: There was an error initializing an OpenFabrics device.

  Local host:   c08b01n08
  Local device: mlx5_0
--------------------------------------------------------------------------
--------------------------------------------------------------------------
WARNING: There is at least one non-excluded one OpenFabrics device found,
but there are no active ports detected (or Open MPI was unable to use
them).  This is most certainly not what you wanted.  Check your
cables, subnet manager configuration, etc.  The openib BTL will be
ignored for this job.

  Local host: c08b01n08
--------------------------------------------------------------------------


           ************************************************************
           *        Program running with 60 parallel MPI-processes    *
           *              working on a common directory               *
           ************************************************************
-------------------------------------------------------------------------------
                                 ORCA GUESS
                   Start orbitals & Density for SCF / CASSCF
-------------------------------------------------------------------------------

------------
SCF SETTINGS
------------
Hamiltonian:
 Density Functional     Method          .... DFT(GTOs)
 Exchange Functional    Exchange        .... TPSS
 Correlation Functional Correlation     .... TPSS
 LDA part of GGA corr.  LDAOpt          .... PW91-LDA
 Gradients option       PostSCFGGA      .... off
   NL short-range parameter             ....  5.000000
 RI-approximation to the Coulomb term is turned on
   Number of AuxJ basis functions       .... 10268


General Settings:
 Integral files         IntName         .... nmr-conf-1
 Hartree-Fock type      HFTyp           .... RHF
 Total Charge           Charge          ....    0
 Multiplicity           Mult            ....    1
 Number of Electrons    NEL             ....  314
 Basis Dimension        Dim             .... 2072
 Nuclear Repulsion      ENuc            ....   5694.6834430699 Eh

Convergence Acceleration:
 AO-DIIS                CNVDIIS         .... on
   Start iteration      DIISMaxIt       ....    12
   Startup error        DIISStart       ....  0.200000
   # of expansion vecs  DIISMaxEq       ....     5
   Bias factor          DIISBfac        ....   1.050
   Max. coefficient     DIISMaxC        ....  10.000
 MO-DIIS                CNVKDIIS        .... off
 Trust-Rad. Augm. Hess. CNVTRAH         .... auto
   Auto Start mean grad. ratio tolernc. ....  1.125000
   Auto Start start iteration           ....    50
   Auto Start num. interpolation iter.  ....    10
   Max. Number of Micro iterations      ....    24
   Max. Number of Macro iterations      .... Maxiter - #DIIS iter
   Number of Davidson start vectors     ....     2
   Converg. threshold    (grad. norm)   ....   5.000e-05
   Grad. Scal. Fac. for Micro threshold ....   0.100
   Minimum threshold for Micro iter.    ....   1.000e-02
   NR start threshold (gradient norm)   ....   1.000e-04
   Initial trust radius                 ....   0.400
   Minimum AH scaling param. (alpha)    ....   1.000
   Maximum AH scaling param. (alpha)    .... 1000.000
   Quad. conv. algorithm                .... NR
   White noise on init. David. guess    .... on
   Maximum white noise                  ....   0.010
   Pseudo random numbers                .... off
   Inactive MOs                         .... canonical
   Orbital update algorithm             .... Taylor
   Preconditioner                       .... Diag
   Full preconditioner red. dimension   ....   250
 SOSCF                 CNVSOSCF           .... on
   Start iteration     SOSCFMaxIt         ....   150
   Startup grad/error  SOSCFStart         ....  0.003300
   Hessian update      SOSCFHessUp        .... L-BFGS
   Autom. constraints  SOSCFAutoConstrain .... off
 Level Shifting         CNVShift        .... on
   Level shift para.    LevelShift      ....    0.2500
   Turn off err/grad.   ShiftErr        ....    0.0010
 Zerner damping         CNVZerner       .... off
 Static damping         CNVDamp         .... on
   Fraction old density DampFac         ....    0.7000
   Max. Damping (<1)    DampMax         ....    0.9800
   Min. Damping (>=0)   DampMin         ....    0.0000
   Turn off err/grad.   DampErr         ....    0.1000

SCF Procedure:
 Maximum # iterations   MaxIter         ....   125
 SCF integral mode      SCFMode         .... Direct
   Integral package                     .... SHARK and LIBINT hybrid scheme
 Reset frequency        DirectResetFreq ....    20
 Integral Threshold     Thresh          ....  1.000e-10 Eh
 Primitive CutOff       TCut            ....  1.000e-11 Eh

Convergence Tolerance:
 Convergence Check Mode ConvCheckMode   .... Total+1el-Energy
 Convergence forced     ConvForced      .... 0
 Energy Change          TolE            ....  1.000e-06 Eh
 1-El. energy change                    ....  1.000e-03 Eh
 Orbital Gradient       TolG            ....  5.000e-05
 Orbital Rotation angle TolX            ....  5.000e-05
 DIIS Error             TolErr          ....  1.000e-06

------------------------------
INITIAL GUESS: MODEL POTENTIAL
------------------------------
Loading Hartree-Fock densities                     ... done
Calculating cut-offs                               ... done
Initializing the effective Hamiltonian             ... done
Setting up the integral package (SHARK)            ... done
Starting the Coulomb interaction                   ... [c08b01n08:1533423] 51 more processes have sent help message help-mpi-btl-openib.txt / error in device init
[c08b01n08:1533423] Set MCA parameter "orte_base_help_aggregate" to 0 to see all help / error messages
[c08b01n08:1533423] 7 more processes have sent help message help-mpi-btl-openib.txt / no active ports found
done (   3.4 sec)
Making the grid                                    ... done (   0.5 sec)
Mapping shells                                     ... done
Starting the XC term evaluation                    ... done (   0.4 sec)
  promolecular density results
     # of electrons  =    313.969598015
     EX              =   -260.291994035
     EC              =    -10.637106201
     EX+EC           =   -270.929100237
Transforming the Hamiltonian                       ... done (   0.4 sec)
Diagonalizing the Hamiltonian                      ... done (   0.6 sec)
Back transforming the eigenvectors                 ... done (   0.2 sec)
Now organizing SCF variables                       ... done
                      ------------------
                      INITIAL GUESS DONE (   6.7 sec)
                      ------------------
             **** ENERGY FILE WAS UPDATED (nmr-conf-1.en.tmp) ****
Finished Guess after  14.2 sec
Maximum memory used throughout the entire GUESS-calculation: 289.2 MB
--------------------------------------------------------------------------
WARNING: There was an error initializing an OpenFabrics device.

  Local host:   c08b01n08
  Local device: mlx5_0
--------------------------------------------------------------------------
--------------------------------------------------------------------------
WARNING: There is at least one non-excluded one OpenFabrics device found,
but there are no active ports detected (or Open MPI was unable to use
them).  This is most certainly not what you wanted.  Check your
cables, subnet manager configuration, etc.  The openib BTL will be
ignored for this job.

  Local host: c08b01n08
--------------------------------------------------------------------------


           ************************************************************
           *        Program running with 60 parallel MPI-processes    *
           *              working on a common directory               *
           ************************************************************

-------------------------------------------------------------------------------------------
                                      ORCA LEAN-SCF
                              memory conserving SCF solver
-------------------------------------------------------------------------------------------

[c08b01n08:1533815] 49 more processes have sent help message help-mpi-btl-openib.txt / error in device init
[c08b01n08:1533815] Set MCA parameter "orte_base_help_aggregate" to 0 to see all help / error messages
[c08b01n08:1533815] 9 more processes have sent help message help-mpi-btl-openib.txt / no active ports found
--------------------
CPCM SOLVATION MODEL
--------------------
CPCM parameters:
  Epsilon                                         ...      33.4280
  Refrac                                          ...       1.3288
  Rsolv                                           ...       1.3000
  Surface type                                    ... GAUSSIAN VDW
  Discretization scheme                           ... Constant charge density
    Threshold for H atoms                         ...       5.0000 (charges/Ang^2)
    Threshold for non-H atoms                     ...       5.0000 (charges/Ang^2)
  Epsilon function type                           ...         CPCM
Solvent:                                          ... METHANOL
Radii:
  Scheme                                          ... Element-dependent radii
  Radius for C  used is    3.8550 Bohr (=   2.0400 Ang.)
  Radius for O  used is    3.4469 Bohr (=   1.8240 Ang.)
  Radius for H  used is    2.4944 Bohr (=   1.3200 Ang.)
Calculating surface                               ...        done! (  0.7s)
Cavity surface points                             ...         6265
Cavity Volume                                     ...    4572.8856
Cavity Surface-area                               ...    2105.2133
Calculating surface distance matrix               ...        done! (  0.2s)
Performing Cholesky decomposition & store         ...        done! (  0.7s)
Overall time for CPCM initialization              ...                 2.0s

----------------------------------------D-I-I-S--------------------------------------------
Iteration    Energy (Eh)           Delta-E    RMSDP     MaxDP     DIISErr   Damp  Time(sec)
-------------------------------------------------------------------------------------------
               ***  Starting incremental Fock matrix formation  ***
    1    -2033.0240113405370721     0.00e+00  7.82e-03  2.35e-01  2.36e-01  0.700  16.9
    2    -2033.4320806969617479    -4.08e-01  6.43e-03  1.83e-01  8.32e-02  0.700   9.8
                               ***Turning on AO-DIIS***
    3    -2033.5846952973779480    -1.53e-01  2.78e-03  6.13e-02  2.50e-02  0.700   8.0
    4    -2033.6768586476764540    -9.22e-02  4.70e-03  7.26e-02  1.19e-02  0.000   6.9
    5    -2033.8809164074664295    -2.04e-01  1.23e-03  2.97e-02  4.65e-03  0.000   7.3
                              *** Initializing SOSCF ***
---------------------------------------S-O-S-C-F--------------------------------------
Iteration    Energy (Eh)           Delta-E    RMSDP     MaxDP     MaxGrad    Time(sec)
--------------------------------------------------------------------------------------
    6    -2033.8822856657398006    -1.37e-03  3.95e-04  9.36e-03  1.27e-03     8.0
               *** Restarting incremental Fock matrix formation ***
    7    -2033.8823918517146012    -1.06e-04  3.08e-04  5.69e-03  1.35e-04     7.0
    8    -2033.8823681488120201     2.37e-05  7.11e-05  1.75e-03  6.54e-04     5.6
    9    -2033.8824075563379665    -3.94e-05  6.40e-05  9.92e-04  1.16e-04     5.7
   10    -2033.8824076694854739    -1.13e-07  1.81e-05  3.25e-04  1.09e-04     5.6
                 **** Energy Check signals convergence ****

               *****************************************************
               *                     SUCCESS                       *
               *           SCF CONVERGED AFTER  10 CYCLES          *
               *****************************************************

             **** ENERGY FILE WAS UPDATED (nmr-conf-1.en.tmp) ****

----------------
TOTAL SCF ENERGY
----------------

Total Energy       :      -2033.88240769192089 Eh          -55344.75399 eV

Components:
Nuclear Repulsion  :       5694.68344306990730 Eh          154960.21451 eV
Electronic Energy  :      -7728.51852793313719 Eh         -210303.68078 eV
One Electron Energy:     -14116.72549120608892 Eh         -384135.62969 eV
Two Electron Energy:       6388.20696327295173 Eh          173831.94892 eV
CPCM Dielectric    :         -0.04732282869079 Eh              -1.28772 eV

Virial components:
Potential Energy   :      -4061.11604041590908 Eh         -110508.58561 eV
Kinetic Energy     :       2027.23363272398797 Eh           55163.83162 eV
Virial Ratio       :          2.00327972802967

DFT components:
N(Alpha)           :      157.000788755277 electrons
N(Beta)            :      157.000788755277 electrons
N(Total)           :      314.001577510554 electrons
E(X)               :     -268.092651394946 Eh       
E(C)               :      -10.602870902411 Eh       
E(XC)              :     -278.695522297357 Eh       

CPCM Solvation Model Properties:
Surface-charge          :         -0.04258073155251
Corrected charge        :          0.00000000000000
Outlying charge corr.   :          0.00007808105703 Eh               0.00212 eV
Free-energy (cav+disp)  :  This term is not implemented in the current solvation scheme

---------------
SCF CONVERGENCE
---------------

  Last Energy change         ...    1.1315e-07  Tolerance :   1.0000e-06
  Last MAX-Density change    ...    3.2460e-04  Tolerance :   1.0000e-05
  Last RMS-Density change    ...    1.8058e-05  Tolerance :   1.0000e-06
  Last DIIS Error            ...    1.2656e-03  Tolerance :   1.0000e-06
  Last Orbital Gradient      ...    1.0916e-04  Tolerance :   5.0000e-05
  Last Orbital Rotation      ...    2.2225e-04  Tolerance :   5.0000e-05


----------------
ORBITAL ENERGIES
----------------

  NO   OCC          E(Eh)            E(eV) 
   0   2.0000     -18.920064      -514.8411 
   1   2.0000     -18.918360      -514.7947 
   2   2.0000     -18.918250      -514.7917 
   3   2.0000     -18.918090      -514.7874 
   4   2.0000     -18.913267      -514.6562 
   5   2.0000     -18.908712      -514.5322 
   6   2.0000     -18.903894      -514.4011 
   7   2.0000     -18.879713      -513.7431 
   8   2.0000     -18.877890      -513.6935 
   9   2.0000     -18.877544      -513.6841 
  10   2.0000     -18.868210      -513.4301 
  11   2.0000     -10.046088      -273.3680 
  12   2.0000     -10.045882      -273.3623 
  13   2.0000     -10.045332      -273.3474 
  14   2.0000     -10.045193      -273.3436 
  15   2.0000     -10.044947      -273.3369 
  16   2.0000     -10.043919      -273.3089 
  17   2.0000     -10.041535      -273.2441 
  18   2.0000     -10.040693      -273.2212 
  19   2.0000     -10.036701      -273.1125 
  20   2.0000     -10.035155      -273.0704 
  21   2.0000     -10.034095      -273.0416 
  22   2.0000     -10.034071      -273.0410 
  23   2.0000     -10.033521      -273.0260 
  24   2.0000     -10.030413      -272.9414 
  25   2.0000     -10.024389      -272.7775 
  26   2.0000     -10.020385      -272.6685 
  27   2.0000      -9.993450      -271.9356 
  28   2.0000      -9.992012      -271.8965 
  29   2.0000      -9.986769      -271.7538 
  30   2.0000      -9.986578      -271.7486 
  31   2.0000      -9.984784      -271.6998 
  32   2.0000      -9.984168      -271.6830 
  33   2.0000      -9.984050      -271.6798 
  34   2.0000      -9.983645      -271.6688 
  35   2.0000      -9.983149      -271.6553 
  36   2.0000      -9.982859      -271.6474 
  37   2.0000      -9.982072      -271.6260 
  38   2.0000      -9.979345      -271.5518 
  39   2.0000      -9.978172      -271.5199 
  40   2.0000      -9.978063      -271.5169 
  41   2.0000      -9.976832      -271.4834 
  42   2.0000      -1.014821       -27.6147 
  43   2.0000      -1.012102       -27.5407 
  44   2.0000      -1.010910       -27.5083 
  45   2.0000      -1.000884       -27.2354 
  46   2.0000      -0.989109       -26.9150 
  47   2.0000      -0.984423       -26.7875 
  48   2.0000      -0.982942       -26.7472 
  49   2.0000      -0.954428       -25.9713 
  50   2.0000      -0.950210       -25.8565 
  51   2.0000      -0.949094       -25.8262 
  52   2.0000      -0.941426       -25.6175 
  53   2.0000      -0.798364       -21.7246 
  54   2.0000      -0.797249       -21.6942 
  55   2.0000      -0.794537       -21.6205 
  56   2.0000      -0.760056       -20.6822 
  57   2.0000      -0.733810       -19.9680 
  58   2.0000      -0.718312       -19.5463 
  59   2.0000      -0.703213       -19.1354 
  60   2.0000      -0.700301       -19.0562 
  61   2.0000      -0.698791       -19.0151 
  62   2.0000      -0.696307       -18.9475 
  63   2.0000      -0.688974       -18.7479 
  64   2.0000      -0.668958       -18.2033 
  65   2.0000      -0.652299       -17.7500 
  66   2.0000      -0.649870       -17.6839 
  67   2.0000      -0.648981       -17.6597 
  68   2.0000      -0.639378       -17.3984 
  69   2.0000      -0.619680       -16.8623 
  70   2.0000      -0.617771       -16.8104 
  71   2.0000      -0.613898       -16.7050 
  72   2.0000      -0.579170       -15.7600 
  73   2.0000      -0.569052       -15.4847 
  74   2.0000      -0.561574       -15.2812 
  75   2.0000      -0.558314       -15.1925 
  76   2.0000      -0.549036       -14.9400 
  77   2.0000      -0.544481       -14.8161 
  78   2.0000      -0.542082       -14.7508 
  79   2.0000      -0.535609       -14.5747 
  80   2.0000      -0.512954       -13.9582 
  81   2.0000      -0.511138       -13.9088 
  82   2.0000      -0.504501       -13.7282 
  83   2.0000      -0.495811       -13.4917 
  84   2.0000      -0.483375       -13.1533 
  85   2.0000      -0.477681       -12.9984 
  86   2.0000      -0.477079       -12.9820 
  87   2.0000      -0.471915       -12.8415 
  88   2.0000      -0.461374       -12.5546 
  89   2.0000      -0.456838       -12.4312 
  90   2.0000      -0.452108       -12.3025 
  91   2.0000      -0.449223       -12.2240 
  92   2.0000      -0.446566       -12.1517 
  93   2.0000      -0.442564       -12.0428 
  94   2.0000      -0.439092       -11.9483 
  95   2.0000      -0.432269       -11.7626 
  96   2.0000      -0.429247       -11.6804 
  97   2.0000      -0.426230       -11.5983 
  98   2.0000      -0.423814       -11.5326 
  99   2.0000      -0.420827       -11.4513 
 100   2.0000      -0.420149       -11.4328 
 101   2.0000      -0.413272       -11.2457 
 102   2.0000      -0.407439       -11.0870 
 103   2.0000      -0.405595       -11.0368 
 104   2.0000      -0.400768       -10.9054 
 105   2.0000      -0.400459       -10.8970 
 106   2.0000      -0.399425       -10.8689 
 107   2.0000      -0.389272       -10.5926 
 108   2.0000      -0.388525       -10.5723 
 109   2.0000      -0.385578       -10.4921 
 110   2.0000      -0.384150       -10.4532 
 111   2.0000      -0.381286       -10.3753 
 112   2.0000      -0.377651       -10.2764 
 113   2.0000      -0.376040       -10.2326 
 114   2.0000      -0.375549       -10.2192 
 115   2.0000      -0.372323       -10.1314 
 116   2.0000      -0.370179       -10.0731 
 117   2.0000      -0.369548       -10.0559 
[...]
 
 sDSO           108.677           69.453           48.937  iso=      75.689
 sPSO           -85.229          -43.599          -14.903  iso=     -47.910
        ---------------  ---------------  ---------------
 Total           23.448           25.854           34.034  iso=      27.779

 Orientation: 
  X           0.0844914    0.3796096   -0.9212805
  Y          -0.4854125    0.8231371    0.2946524
  Z           0.8701930    0.4223054    0.2538152

 --------------
 Nucleus  73H :
 --------------

Diamagnetic contribution to the shielding tensor (ppm) : 
            22.869          8.513        -5.571
           -11.802         54.454        -6.288
            39.091        -47.017        88.076

Paramagnetic contribution to the shielding tensor (ppm): 
             3.308         -7.031         3.590
            12.396        -25.537         4.701
           -42.380         44.713       -60.163

Total shielding tensor (ppm): 
            26.176          1.481        -1.981
             0.593         28.916        -1.587
            -3.289         -2.304        27.913


 Diagonalized sT*s matrix:
 
 sDSO            61.409           30.665           73.325  iso=      55.133
 sPSO           -37.161           -3.509          -41.722  iso=     -27.464
        ---------------  ---------------  ---------------
 Total           24.248           27.156           31.602  iso=      27.669

 Orientation: 
  X           0.7815095    0.4458523   -0.4364156
  Y           0.0797879   -0.7651834   -0.6388491
  Z           0.6187704   -0.4644460    0.6335718

 --------------
 Nucleus  74H :
 --------------

Diamagnetic contribution to the shielding tensor (ppm) : 
            41.356          3.765         0.158
            12.833         36.204        10.178
            33.582        -28.442        92.118

Paramagnetic contribution to the shielding tensor (ppm): 
           -15.339         -4.518        -4.112
           -12.552        -10.575        -7.535
           -36.040         32.531       -61.728

Total shielding tensor (ppm): 
            26.017         -0.753        -3.954
             0.281         25.629         2.644
            -2.458          4.089        30.390


 Diagonalized sT*s matrix:
 
 sDSO            64.023           47.857           57.798  iso=      56.559
 sPSO           -40.945          -22.247          -24.449  iso=     -29.214
        ---------------  ---------------  ---------------
 Total           23.077           25.610           33.349  iso=      27.345

 Orientation: 
  X          -0.5329510    0.7625979   -0.3666166
  Y           0.6544031    0.6461487    0.3927449
  Z          -0.5363952    0.0306012    0.8434120

 --------------
 Nucleus  75H :
 --------------

Diamagnetic contribution to the shielding tensor (ppm) : 
            36.164        -11.917        -3.257
            -8.388         20.957       -14.931
           -32.582         -3.584         9.328

Paramagnetic contribution to the shielding tensor (ppm): 
           -10.225          9.461        12.826
             6.058          3.551         8.757
            41.188         -1.977        22.876

Total shielding tensor (ppm): 
            25.938         -2.456         9.569
            -2.329         24.508        -6.175
             8.606         -5.561        32.204


 Diagonalized sT*s matrix:
 
 sDSO            40.065           14.250           12.134  iso=      22.150
 sPSO           -21.179            8.513           28.867  iso=       5.401
        ---------------  ---------------  ---------------
 Total           18.886           22.763           41.001  iso=      27.550

 Orientation: 
  X          -0.6913550    0.5045216    0.5171907
  Y           0.3682735    0.8619220   -0.3485186
  Z           0.6216132    0.0504824    0.7816959

 --------------
 Nucleus  76H :
 --------------

Diamagnetic contribution to the shielding tensor (ppm) : 
            29.012          4.331         0.147
            -2.318         41.761         6.729
            46.140        -39.243        93.364

Paramagnetic contribution to the shielding tensor (ppm): 
             2.209          6.015         6.330
            14.341        -13.309         0.729
           -39.356         47.744       -67.610

Total shielding tensor (ppm): 
            31.221         10.346         6.477
            12.023         28.452         7.458
             6.783          8.502        25.754


 Diagonalized sT*s matrix:
 
 sDSO            67.590           44.635           51.912  iso=      54.713
 sPSO           -49.761          -23.290           -5.660  iso=     -26.237
        ---------------  ---------------  ---------------
 Total           17.829           21.346           46.253  iso=      28.476

 Orientation: 
  X           0.4398540    0.6080150    0.6609434
  Y          -0.7905578   -0.0870294    0.6061718
  Z           0.4260830   -0.7891411    0.4423908

 --------------
 Nucleus  77H :
 --------------

Diamagnetic contribution to the shielding tensor (ppm) : 
            38.115         48.268        -6.319
            -5.396         60.783         0.015
            -9.409         -5.502        86.824

Paramagnetic contribution to the shielding tensor (ppm): 
            -5.095        -51.089        -0.355
             3.221        -37.891         4.245
             3.851          8.625       -50.026

Total shielding tensor (ppm): 
            33.020         -2.821        -6.674
            -2.175         22.892         4.260
            -5.558          3.123        36.798


 Diagonalized sT*s matrix:
 
 sDSO            67.590           47.547           70.586  iso=      61.908
 sPSO           -45.722          -19.033          -28.256  iso=     -31.004
        ---------------  ---------------  ---------------
 Total           21.868           28.513           42.329  iso=      30.904

 Orientation: 
  X           0.1163738   -0.8140730   -0.5689835
  Y           0.9755246   -0.0139267    0.2194491
  Z          -0.1865716   -0.5805955    0.7925275

 --------------
 Nucleus  78H :
 --------------

Diamagnetic contribution to the shielding tensor (ppm) : 
            26.921         -8.956         2.537
            -9.612         51.955         7.697
            53.428        -31.289        90.291

Paramagnetic contribution to the shielding tensor (ppm): 
            -2.122          7.361        -3.647
            10.167        -16.498       -10.021
           -55.395         31.172       -73.427

Total shielding tensor (ppm): 
            24.799         -1.595        -1.110
             0.556         35.457        -2.323
            -1.966         -0.117        16.864


 Diagonalized sT*s matrix:
 
 sDSO            95.566           18.933           54.669  iso=      56.389
 sPSO           -79.072            6.151          -19.126  iso=     -30.682
        ---------------  ---------------  ---------------
 Total           16.494           25.084           35.543  iso=      25.707

 Orientation: 
  X           0.1800205    0.9834115   -0.0222347
  Y           0.0855461    0.0068666    0.9963106
  Z           0.9799360   -0.1812584   -0.0828909

 --------------
 Nucleus  79H :
 --------------

Diamagnetic contribution to the shielding tensor (ppm) : 
            52.431        -25.488        14.385
            18.267          8.454        17.740
             3.034        -11.923        50.416

Paramagnetic contribution to the shielding tensor (ppm): 
           -23.995         26.343       -16.916
           -16.862         19.147       -19.945
            -4.284         11.283       -23.520

Total shielding tensor (ppm): 
            28.436          0.855        -2.531
             1.406         27.601        -2.205
            -1.250         -0.640        26.897


 Diagonalized sT*s matrix:
 
 sDSO            52.328           27.875           31.098  iso=      37.100
 sPSO           -26.906           -1.058           -0.404  iso=      -9.456
        ---------------  ---------------  ---------------
 Total           25.423           26.817           30.694  iso=      27.644

 Orientation: 
  X           0.4163701    0.5970693   -0.6856706
  Y           0.3512428   -0.8012341   -0.4844094
  Z           0.8386086    0.0391432    0.5433262

 --------------
 Nucleus  80H :
 --------------

Diamagnetic contribution to the shielding tensor (ppm) : 
            49.770        -25.822        15.244
            18.613         19.044        22.488
            41.306        -22.698        70.006

Paramagnetic contribution to the shielding tensor (ppm): 
           -22.683         27.930       -13.752
           -19.569         12.201       -21.823
           -40.181         24.403       -45.904

Total shielding tensor (ppm): 
            27.087          2.108         1.492
            -0.956         31.245         0.665
             1.125          1.705        24.102


 Diagonalized sT*s matrix:
 
 sDSO            49.759           67.311           21.751  iso=      46.273
 sPSO           -26.258          -39.951            9.823  iso=     -18.795
        ---------------  ---------------  ---------------
 Total           23.501           27.360           31.574  iso=      27.478

 Orientation: 
  X          -0.3230531    0.9341034    0.1519456
  Y          -0.1196954   -0.1995938    0.9725407
  Z           0.9387810    0.2959951    0.1762873

 --------------
 Nucleus  81H :
 --------------

Diamagnetic contribution to the shielding tensor (ppm) : 
            45.850        -27.303        24.328
            14.194         -3.932        16.371
            64.670        -44.626        28.257

Paramagnetic contribution to the shielding tensor (ppm): 
           -15.325         29.242       -20.712
           -10.921         31.119       -14.130
           -61.192         48.397        -1.580

Total shielding tensor (ppm): 
            30.525          1.939         3.616
             3.273         27.187         2.241
             3.478          3.771        26.677


 Diagonalized sT*s matrix:
 
 sDSO            14.539            2.996           52.639  iso=      23.391
 sPSO             9.188           23.065          -18.039  iso=       4.738
        ---------------  ---------------  ---------------
 Total           23.727           26.061           34.601  iso=      28.129

 Orientation: 
  X           0.2235626    0.6390304    0.7359755
  Y           0.5277906   -0.7141729    0.4597761
  Z          -0.8194247   -0.2856522    0.4969366



--------------------------------
CHEMICAL SHIELDING SUMMARY (ppm)
--------------------------------


  Nucleus  Element    Isotropic     Anisotropy
  -------  -------  ------------   ------------
      0       C           24.951        123.257 
      1       C           44.154         92.086 
      2       C           25.736        119.103 
      3       C           75.166        125.610 
      4       C           38.041        194.503 
      5       C           77.739        134.005 
      6       C          147.445         33.953 
      7       C          133.309         19.941 
      8       C          137.275         26.136 
      9       C          142.824         42.500 
     10       C           44.119        183.291 
     11       C           71.343        153.437 
     12       C           29.262        119.777 
     13       C           32.315        122.551 
     14       C           67.167        143.865 
     15       C           56.682        146.857 
     16       C          115.399         73.151 
     17       C          112.357         62.730 
     23       C           93.382         37.325 
     24       C          103.810         38.448 
     25       C           42.514        168.306 
     26       C          110.773         57.970 
     28       C           72.791        164.608 
     29       C           31.026        116.936 
     30       C           34.588        118.065 
     31       C           68.161        146.126 
     32       C           63.386        168.552 
     33       C          122.905         74.694 
     34       C          124.544         79.211 
     35       C          123.990         78.063 
     41       C          122.824         75.572 
     42       H           25.531          9.938 
     43       H           26.159          8.635 
     44       H           30.190          6.726 
     45       H           28.904          4.804 
     46       H           30.680          4.583 
     47       H           29.003          3.023 
     48       H           29.158          4.508 
     49       H           28.107          7.764 
     50       H           24.677         10.255 
     51       H           24.777          2.639 
     52       H           24.642          5.734 
     53       H           28.165          7.740 
     54       H           28.359          4.957 
     55       H           28.475          5.124 
     56       H           27.357          6.203 
     57       H           25.365         12.096 
     58       H           26.517          2.179 
     59       H           26.992          5.924 
     60       H           27.868          5.526 
     61       H           27.401          6.654 
     62       H           29.305         13.940 
     63       H           24.449         11.443 
     64       H           25.274          4.546 
     65       H           25.242          5.777 
     66       H           27.589          6.914 
     67       H           28.161          8.100 
     68       H           28.790          9.339 
     69       H           27.927          7.651 
     70       H           28.000          9.641 
     71       H           27.480          9.448 
     72       H           27.779          9.384 
     73       H           27.669          5.900 
     74       H           27.345          9.005 
     75       H           27.550         20.176 
     76       H           28.476         26.665 
     77       H           30.904         17.139 
     78       H           25.707         14.754 
     79       H           27.644          4.574 
     80       H           27.478          6.144 
     81       H           28.129          9.707 


NMR shielding tensor and spin rotation calculation done in   2.8 sec 

Maximum memory used throughout the entire PROP-calculation: 366.6 MB
--------------------------------------------------------------------------
WARNING: There was an error initializing an OpenFabrics device.

  Local host:   c08b01n08
  Local device: mlx5_0
--------------------------------------------------------------------------
--------------------------------------------------------------------------
WARNING: There is at least one non-excluded one OpenFabrics device found,
but there are no active ports detected (or Open MPI was unable to use
them).  This is most certainly not what you wanted.  Check your
cables, subnet manager configuration, etc.  The openib BTL will be
ignored for this job.

  Local host: c08b01n08
--------------------------------------------------------------------------
[c08b01n08:1535609] 51 more processes have sent help message help-mpi-btl-openib.txt / error in device init
[c08b01n08:1535609] Set MCA parameter "orte_base_help_aggregate" to 0 to see all help / error messages
[c08b01n08:1535609] 7 more processes have sent help message help-mpi-btl-openib.txt / no active ports found

--------------------------------
SUGGESTED CITATIONS FOR THIS RUN
--------------------------------

Below you find a list of papers that are relevant to this ORCA run
We neither can nor want to force you to cite these papers, but we appreciate if you do
You receive ORCA, which is the product of decades of hard work by many enthusiastic individuals, for free
The only thing we kindly ask in return is that you cite our papers,
We deeply appreciate it, if you show your appreciation for ORCA by not just citing the generic ORCA reference.

Please note that relegating all ORCA citations to the supporting information does *not* help us.
SI sections are not indexed - citations you put there will not count into any citation statistics
But we need these citations in order to attract the funding resources that allow us to do what we are doing

Therefore, if you are a happy ORCA user, please consider citing a few of the papers listed below in the main body of your paper

In addition to the list printed below, the program has created the file nmr-conf-1.bibtex that contains the list in bibtex format
You can import this file easily into all common literature databanks and citation aid programs


List of essential papers. We consider these as the minimum necessary citations

  1. Neese, F.
     Software update: the ORCA program system, version 6.0
     WIRES Comput. Molec. Sci. 2025 15(1), e70019
     doi.org/10.1002/wcms.7019

List of papers to cite with high priority. The work reported in these papers was absolutely
necessary for this run to complete.
Our perspective: the developers of density functionals and basis sets usually get cited in chemistry papers
Good! But without the algorithms to do something with them, the functionals or basis sets would not do anything.
Hence, in our opinion, the algorithm design and method developments papers are equally worthy of getting cited

  1. Neese, F.
     An improvement of the resolution of the identity approximation for the formation of the Coulomb matrix
     J. Comp. Chem. 2003 24(14), 1740-1747
     doi.org/10.1002/jcc.10318
  2. Stoychev, G.L.; Auer, A.A.; Neese, F.
     Automatic Generation of Auxiliary Basis Sets
     J. Theo. Comp. Chem. 2017 13 , 554-562
     doi.org/10.1021/acs.jctc.6b01041
  3. Stoychev, G.L.; Auer, A.A.; Izsak, R.; Neese, F.
     Self-Consistent Field Calculation of Nuclear Magnetic Resonance Chemical Shielding Constants Using Gauge-Including Atomic Orbitals and Approximate Two-Electron Integrals
     J. Chem. Theory Comput. 2018 14(2), 619-637
     doi.org/10.1021/acs.jctc.7b01006
  4. Garcia-Rates, M.; Neese, F.
     Effect of the Solute Cavity on the Solvation Energy and its Derivatives within the Framework of the Gaussian Charge Scheme
     J. Comput. Chem. 2020 41 , 922-939
     doi.org/10.1002/jcc.26139
  5. Neese, F.
     The SHARK Integral Generation and Digestion System
     J. Comp. Chem. 2022 44(3), 381
     doi.org/10.1002/jcc.26942

List of suggested additional citations. These are papers that are important in the 'surrounding' of 
of this run, or papers that preceded the highly important papers. If you like your results we are grateful for a citation.

  1. Neese, F.
     The ORCA program system
     WIRES Comput. Molec. Sci. 2012 2(1), 73-78
     doi.org/10.1002/wcms.81
  2. Neese, F.
     Software update: the ORCA program system, version 4.0
     WIRES Comput. Molec. Sci. 2018 8(1), 1-6
     doi.org/10.1002/wcms.1327
  3. Neese, F.; Wennmohs, F.; Becker, U.; Riplinger, C.
     The ORCA quantum chemistry program package
     J. Chem. Phys. 2020 152(22), 224108
     doi.org/10.1063/5.0004608
  4. Neese, F.
     Software update: The ORCA program system—Version 5.0
     WIRES Comput. Molec. Sci. 2022 12(1), e1606
     doi.org/10.1002/wcms.1606

List of optional additional citations

  1. Neese, F.
     Approximate second-order SCF convergence for spin unrestricted wavefunctions
     Chem. Phys. Lett. 2000 325(1-3), 93-98
     doi.org/10.1016/s0009-2614(00)00662-x

Timings for individual modules:

Sum of individual times          ...      227.478 sec (=   3.791 min)
Startup calculation              ...       37.535 sec (=   0.626 min)  16.5 %
SCF iterations                   ...      116.467 sec (=   1.941 min)  51.2 %
Property integrals               ...       49.365 sec (=   0.823 min)  21.7 %
SCF Response                     ...       15.097 sec (=   0.252 min)   6.6 %
Property calculations            ...        9.015 sec (=   0.150 min)   4.0 %
                             ****ORCA TERMINATED NORMALLY****
TOTAL RUN TIME: 0 days 0 hours 3 minutes 56 seconds 716 msec
