
                                 *****************
                                 * O   R   C   A *
                                 *****************

                                            #,                                       
                                            ###                                      
                                            ####                                     
                                            #####                                    
                                            ######                                   
                                           ########,                                 
                                     ,,################,,,,,                         
                               ,,#################################,,                 
                          ,,##########################################,,             
                       ,#########################################, ''#####,          
                    ,#############################################,,   '####,        
                  ,##################################################,,,,####,       
                ,###########''''           ''''###############################       
              ,#####''   ,,,,##########,,,,          '''####'''          '####       
            ,##' ,,,,###########################,,,                        '##       
           ' ,,###''''                  '''############,,,                           
         ,,##''                                '''############,,,,        ,,,,,,###''
      ,#''                                            '''#######################'''  
     '                                                          ''''####''''         
             ,#######,   #######,   ,#######,      ##                                
            ,#'     '#,  ##    ##  ,#'     '#,    #''#        ,####,    ,#,          
            ##       ##  ##   ,#'  ##            #'  '#       #'       ,# #          
            ##       ##  #######   ##           ,######,      #####,      #          
            '#,     ,#'  ##    ##  '#,     ,#' ,#      #,     #,   #      #          
             '#######'   ##     ##  '#######'  #'      '#     '####' #    #          



                #########################################################
                #                        -***-                          #
                #          Department of theory and spectroscopy        #
                #                                                       #
                #                      Frank Neese                      #
                #                                                       #
                #     Directorship, Architecture, Infrastructure        #
                #                    SHARK, DRIVERS                     #
                #        Core code/Algorithms in most modules           #
                #                                                       #
                #        Max Planck Institute fuer Kohlenforschung      #
                #                Kaiser Wilhelm Platz 1                 #
                #                 D-45470 Muelheim/Ruhr                 #
                #                      Germany                          #
                #                                                       #
                #                  All rights reserved                  #
                #                        -***-                          #
                #########################################################


                         Program Version 6.1.0-f.0  -   RELEASE   -


 With contributions from (in alphabetic order):
[Max-Planck-Institut fuer Kohlenforschung]                               
  Daniel Aravena         : Magnetic Suceptibility                        
  Michael Atanasov       : Ab Initio Ligand Field Theory (pilot matlab implementation)
  Alexander A. Auer      : GIAO ZORA, VPT2 properties, NMR spectrum      
  Ute Becker             : All parallelization in ORCA, NUMFREQ, NUMCALC 
  Giovanni Bistoni       : ED, misc. LED, open-shell LED, HFLD           
  Dmytro Bykov           : pre 5.0 version of the SCF Hessian            
  Marcos Casanova-Páez   : Triplet and SCS-CIS(D). UHF-(DLPNO)-IP/EA/STEOM-CCSD. UHF-CVS-IP/STEOM-CCSD   
  Vijay G. Chilkuri      : MRCI spin determinant printing, contributions to CSF-ICE 
  Pauline Colinet        : FMM embedding                                 
  Dipayan Datta          : RHF DLPNO-CCSD density                        
  Achintya Kumar Dutta   : EOM-CC, STEOM-CC                              
  Nicolas Foglia         : Exact transition moments, OPA infrastructure, MCD improvements    
  Dmitry Ganyushin       : Spin-Orbit,Spin-Spin,Magnetic field MRCI      
  Miquel Garcia-Rates    : C-PCM and meta-GGA Hessian, CCSD/C-PCM, Gaussian charge scheme 
  Tiago L. C. Gouveia    : GS-ROHF, GS-ROCIS                             
  Yang Guo               : DLPNO-NEVPT2, F12-NEVPT2, CIM, IAO-localization        
  Andreas Hansen         : Spin unrestricted coupled pair/coupled cluster methods 
  Ingolf Harden          : AUTO-CI MPn and infrastructure                
  Benjamin Helmich-Paris : MC-RPA, TRAH-(SCF,CASSCF), AVAS, COSX integrals, SCF dyn. polar., MC-PDFT, srDFT 
  Lee Huntington         : MR-EOM, pCC                                   
  Robert Izsak           : Overlap fitted RIJCOSX, COSX-SCS-MP3, EOM     
  Riya Kayal             : Wick's Theorem for AUTO-CI, AUTO-CI UHF-CCSDT 
  Emily Kempfer          : AUTO-CI RHF CISDT and CCSDT, approximate NEVPT4
  Christian Kollmar      : KDIIS, OOCD, Brueckner-CCSD(T), CCSD density, CASPT2, CASPT2-K, improved NEVPT2 
  Axel Koslowski         : Symmetry handling                             
  Simone Kossmann        : meta-GGA functionals, TD-DFT gradient, OOMP2, (MP2 Hessian; deprecated post 5.0) 
  Lucas Lang             : DCDCAS, Hyperfine gauge corrections, ICE-SOC+SSC
  Marvin Lechner         : AUTO-CI (C++ implementation), FIC-MRCC        
  Spencer Leger          : CASSCF response                               
  Dagmar Lenk            : GEPOL surface, SMD, ORCA-2-JSON               
  Dimitrios Liakos       : Extrapolation schemes; Compound Job, Property file
  Dimitrios Manganas     : Further ROCIS development; embedding schemes. LFT, Crystal Embedding 
  Dimitrios Pantazis     : SARC Basis sets                               
  Anastasios Papadopoulos: AUTO-CI, single reference methods and gradients 
  Taras Petrenko         : pre 6.0 DFT Hessian and TD-DFT gradient,  ECA, NRVS 
  Petra Pikulova         : Analytic Raman intensities                    
  Peter Pinski           : DLPNO-MP2, DLPNO-MP2 Gradient                 
  Shashank Vittal Rao    : ES-AILFT, MagRelax                            
  Christoph Reimann      : Effective Core Potentials                     
  Marius Retegan         : Local ZFS, SOC                                
  Christoph Riplinger    : Optimizer, TS searches, QM/MM, DLPNO-CCSD(T), (RO)-DLPNO pert. Triples 
  Michael Roemelt        : Original ROCIS implementation, recursive CI coupling coefficients
  Masaaki Saitow         : Open-shell DLPNO-CCSD energy and density      
  Barbara Sandhoefer     : DKH picture change effects                    
  Yorick L. A. Schmerwitz: GMF and freeze-and-release deltaSCF, NEB S-IDPP initial path                    
  Kantharuban Sivalingam : CASSCF convergence/infrastructure, NEVPT2, NEVPT3, NEVPT4(SD), FIC-MRCI and CEPA variants
  Bernardo de Souza      : ESD, SOC TD-DFT                               
  Georgi L. Stoychev     : AutoAux, RI-MP2 NMR, DLPNO-MP2 response, X2C  
  Van Anh Tran           : RI-MP2 g-tensors                              
  Willem Van den Heuvel  : Paramagnetic NMR                              
  Zikuan Wang            : NOTCH, Electric field optimization            
  Frank Wennmohs         : Technical directorship and infrastructure     
  Hang Xu                : AUTO-CI-Response properties                   
                                                                         
[FACCTs GmbH]                                                            
  Markus Bursch, Nicolas Foglia, Miquel Garcia-Rates, Ingolf Harden, Hagen Neugebauer, Anastasios Papadopoulos, 
  Christoph Riplinger, Bernardo de Souza, Georgi L. Stoychev                                                    
                                                                 
  APM, various basis sets, CI-OPT, improved COSX, DLPNO-Multilevel,           
  DOCKER, DRACO, updates on ESD, Fragmentator, GOAT, IRC, LR-CPCM, L-BFGS, MBIS, meta-GGA TD-DFT gradient, ML-optimized integration grids, 
  MM, NACMEs, nearIR, NEB, NEB-TS, NL-DFT gradient (VV10), 2- and 3-layer-ONIOM, interface openCOSMO-RS, QMMM,   
  Crystal-QMMM, RESP, rigid body optimization, SF, symmetry and pop. for TD-DFT, various functionals, SOLVATOR                                   
                                                                         
[Other institutions]                                                     
  V. Asgeirsson          : NEB                                           
  Christoph Bannwarth    : sTDA-DFT, sTD-DFT, PBEh-3c, B97-3c, D3        
  Giovanni Bistoni       : ETS/NOCV, ADLD/ADEX, COVALED                  
  Martin Brehm           : Molecular dynamics                            
  Ronald Cardenas        : ETS/NOCV                                      
  Martina Colucci        : COVALED                                       
  Sebastian Ehlert       : rSCAN, r2SCAN, r2SCAN-3c, D4, dhf basis sets  
  Marvin Friede          : D4 for Fr, Ra, Ac-Lr                          
  Lars Goerigk           : TD-DFT with DH, B97 family of functionals     
  Stefan Grimme          : VdW corrections, initial TS optimization, DFT functionals, gCP, sTDA/sTD-DF 
  Waldemar Hujo          : DFT-NL                                        
  H. Jonsson             : NEB                                           
  Holger Kruse           : gCP                                           
  Marcel Mueller         : wB97X-3c, vDZP basis set                      
  Hagen Neugebauer       : wr2SCAN, Native XTB                           
  Gianluca Regni         : ADLD/ADEX                                     
  Tobias Risthaus        : pre 6.0 range-separated hybrid DFT and stability analysis
  Lukas Wittmann         : regularized MP2, r2SCAN double-hybrids, wr2SCAN        
                                                                         
We gratefully acknowledge several colleagues who have allowed us to      
interface, adapt or use parts of their codes:                            
  Ed Valeev, F. Pavosevic, A. Kumar             : LibInt (2-el integral package), F12 methods 
  Garnet Chan, S. Sharma, J. Yang, R. Olivares  : DMRG                   
  Ulf Ekstrom                                   : XCFun DFT Library      
  Mihaly Kallay                                 : mrcc  (arbitrary order and MRCC methods)
  Frank Weinhold                                : gennbo (NPA and NBO analysis)           
  Simon Mueller                                 : openCOSMO-RS                            
  Christopher J. Cramer and Donald G. Truhlar   : smd solvation model                     
  S Lehtola, MJT Oliveira, MAL Marques          : LibXC Library                           
  Liviu Ungur et al                             : ANISO software                          


 Your calculation uses the libint2 library for the computation of 2-el integrals
 For citations please refer to: http://libint.valeyev.net

 Your ORCA version has been built with support for libXC version: 7.0.0
 For citations please refer to: https://libxc.gitlab.io

 This ORCA versions uses:
   CBLAS   interface :  Fast vector & matrix operations
   LAPACKE interface :  Fast linear algebra routines
   SCALAPACK package :  Parallel linear algebra routines
   Shared memory     :  Shared parallel matrices
   BLAS/LAPACK       :  OpenBLAS 0.3.29  USE64BITINT DYNAMIC_ARCH NO_AFFINITY Cooperlake SINGLE_THREADED
        Core in use  :  Cooperlake
   Copyright (c) 2011-2014, The OpenBLAS Project


  ***********************************
  * Starting time: Tue Mar  3 21:32:46 2026
  * Host name:     c01b01n02
  * Process ID:    1393777
  * Working dir.:  /lustre1/jiangy/jiangy_liuxy/NMR/B9D7C2-RSSS-NMR/opt_conf
  ***********************************

NOTE: MaxCore=5000 MB was set to SCF,MP2,MDCI,CIPSI,MRCI,RASCI and CIS
      => If you want to overwrite this, your respective input block should be placed after the MaxCore statement


***************************************
The coordinates will be read from file: opt-conf-6.xyz
***************************************



Warning: The global flag for NMR shieldings has been found
         but shieldings for certain elements have also been explicitly requested in the EPRNMR block
         ==>> only the requested shieldings will be calculated

================================================================================

----- Orbital basis set information -----
Your calculation utilizes the basis: pcSseg-2
   F. Jensen, J. Chem. Theory Comput. 11, 132 (2015).

----- AuxJ basis set information -----
Your calculation utilizes the AutoAux generation procedure.
  G. L. Stoychev, A. A. Auer, F. Neese, J. Chem. Theory Comput. 13, 554 (2017)

----- AuxC basis set information -----
Your calculation utilizes the AutoAux generation procedure.
  G. L. Stoychev, A. A. Auer, F. Neese, J. Chem. Theory Comput. 13, 554 (2017)

----- AuxJK basis set information -----
Your calculation utilizes the AutoAux generation procedure.
  G. L. Stoychev, A. A. Auer, F. Neese, J. Chem. Theory Comput. 13, 554 (2017)

----- AuxX basis set information -----
Your calculation utilizes the AutoAux generation procedure.
  G. L. Stoychev, A. A. Auer, F. Neese, J. Chem. Theory Comput. 13, 554 (2017)

================================================================================
                                        WARNINGS
                       Please study these warnings very carefully!
================================================================================


================================================================================
                                       INPUT FILE
================================================================================
NAME = nmr-conf-6.inp
|  1> !TPSS PCSSEG-2 AUTOAUX NMR CPCM(Methanol)
|  2> 
|  3> %pal nprocs 60 end
|  4> %maxcore 5000
|  5> 
|  6> *XYZFILE 0 1 opt-conf-6.xyz
|  7> 
|  8> %EPRNMR
|  9>    NUCLEI = ALL C {SHIFT}
| 10>    NUCLEI = ALL H {SHIFT}
| 11>    TAU DOBSON
| 12> END
| 13> 
| 14> 
| 15>                          ****END OF INPUT****
================================================================================

                       ****************************
                       * Single Point Calculation *
                       ****************************

---------------------------------
CARTESIAN COORDINATES (ANGSTROEM)
---------------------------------
  C     11.867691  -11.594708   -2.017541
  C     12.356686  -12.840562   -1.621411
  C     11.479597  -13.923038   -1.519371
  C     10.118702  -13.741924   -1.762045
  C      9.628163  -12.485141   -2.105330
  C     10.508404  -11.414208   -2.249327
  C      8.145319  -12.246149   -2.255811
  C      7.522541  -11.681182   -0.958038
  C      6.171098  -10.956119   -1.156854
  C      6.224043   -9.836758   -2.214717
  C      7.360696   -8.859779   -2.040199
  C      7.591079   -8.255366   -0.798252
  C      8.644954   -7.373485   -0.624722
  C      9.488017   -7.064597   -1.704188
  C      9.254454   -7.641849   -2.937424
  C      8.200063   -8.539941   -3.099724
  C      7.440921  -12.801278    0.083479
  C      4.990673  -11.882680   -1.434898
  O     12.042998  -15.106148   -1.157569
  O     12.802358  -10.607228   -2.130275
  O     13.704111  -12.983447   -1.387459
  O     10.539182   -6.208539   -1.535378
  O      8.975270   -6.752186    0.544570
  C     14.123868  -13.150676   -0.014797
  C     14.036286  -11.829234    0.774501
  C     12.615038  -11.446930    1.174586
  C     15.547745  -13.667344   -0.100763
  O     15.615995  -14.919520   -0.777965
  C     11.762823  -12.403190    1.734678
  C     10.458059  -12.083864    2.078790
  C      9.968036  -10.784015    1.853597
  C     10.827771   -9.827850    1.340565
  C     12.142794  -10.152461    1.012727
  C     12.354965   -9.293580   -2.469617
  C     11.197846  -16.248343   -1.039680
  C      8.108556   -6.918433    1.668882
  O     14.700061  -10.789509    0.070559
  O      6.880797  -12.381666    1.333985
  O      4.513380  -12.402939   -0.178717
  O      9.571607  -12.955744    2.634129
  O      8.683348  -10.445241    2.160354
  C      9.956613  -14.320743    2.761385
  H      9.433744  -14.571239   -1.666844
  H     10.122176  -10.442698   -2.518846
  H      7.642895  -13.176564   -2.532289
  H      7.984857  -11.543182   -3.072323
  H      8.213566  -10.927995   -0.573735
  H      5.940161  -10.469621   -0.204047
  H      6.275019  -10.264487   -3.218512
  H      5.271019   -9.300026   -2.163816
  H      6.949899   -8.491083    0.038931
  H      9.909867   -7.398307   -3.764099
  H      8.041038   -9.000614   -4.067048
  H      8.438785  -13.170649    0.308207
  H      6.859471  -13.639743   -0.310785
  H      4.183513  -11.324460   -1.919120
  H      5.275970  -12.705452   -2.096648
  H     10.540505   -5.905555   -0.614846
  H     13.502489  -13.912832    0.454806
  H     14.618970  -11.983067    1.688879
  H     15.931125  -13.832285    0.906724
  H     16.179517  -12.922938   -0.595611
  H     15.172135  -14.806444   -1.629207
  H     12.117078  -13.409182    1.902147
  H     10.455368   -8.824707    1.178343
  H     12.787588   -9.390230    0.601302
  H     11.879874   -9.288351   -3.452092
  H     11.656677   -8.915087   -1.723548
  H     13.247097   -8.672635   -2.488869
  H     11.848687  -17.069153   -0.748498
  H     10.434039  -16.096898   -0.273417
  H     10.716790  -16.481106   -1.992718
  H      8.071989   -7.963905    1.978886
  H      8.534374   -6.311923    2.464285
  H      7.102054   -6.564882    1.433015
  H     14.224254  -10.670319   -0.770264
  H      5.928412  -12.267963    1.174627
  H      3.962068  -13.176896   -0.345048
  H      8.074443  -11.209517    2.047556
  H      9.089938  -14.839371    3.164026
  H     10.220783  -14.744676    1.789690
  H     10.800785  -14.430836    3.446860

----------------------------
CARTESIAN COORDINATES (A.U.)
----------------------------
  NO LB      ZA    FRAG     MASS         X           Y           Z
   0 C     6.0000    0    12.011   22.426687  -21.910822   -3.812600
   1 C     6.0000    0    12.011   23.350753  -24.265145   -3.064023
   2 C     6.0000    0    12.011   21.693295  -26.310729   -2.871194
   3 C     6.0000    0    12.011   19.121575  -25.968473   -3.329783
   4 C     6.0000    0    12.011   18.194592  -23.593497   -3.978497
   5 C     6.0000    0    12.011   19.858005  -21.569727   -4.250612
   6 C     6.0000    0    12.011   15.392421  -23.141868   -4.262865
   7 C     6.0000    0    12.011   14.215543  -22.074234   -1.810429
   8 C     6.0000    0    12.011   11.661685  -20.704065   -2.186138
   9 C     6.0000    0    12.011   11.761737  -18.588780   -4.185209
  10 C     6.0000    0    12.011   13.909699  -16.742557   -3.855417
  11 C     6.0000    0    12.011   14.345060  -15.600382   -1.508478
  12 C     6.0000    0    12.011   16.336595  -13.933867   -1.180554
  13 C     6.0000    0    12.011   17.929753  -13.350153   -3.220448
  14 C     6.0000    0    12.011   17.488383  -14.441001   -5.550926
  15 C     6.0000    0    12.011   15.495873  -16.138151   -5.857629
  16 C     6.0000    0    12.011   14.061304  -24.190909    0.157752
  17 C     6.0000    0    12.011    9.431006  -22.455011   -2.711563
  18 O     8.0000    0    15.999   22.757968  -28.546483   -2.187488
  19 O     8.0000    0    15.999   24.192950  -20.044756   -4.025637
  20 O     8.0000    0    15.999   25.897016  -24.535160   -2.621918
  21 O     8.0000    0    15.999   19.916167  -11.732438   -2.901443
  22 O     8.0000    0    15.999   16.960802  -12.759783    1.029088
  23 C     6.0000    0    12.011   26.690243  -24.851176   -0.027963
  24 C     6.0000    0    12.011   26.524737  -22.354012    1.463596
  25 C     6.0000    0    12.011   23.838967  -21.631564    2.219646
  26 C     6.0000    0    12.011   29.380981  -25.827537   -0.190414
  27 O     8.0000    0    15.999   29.509954  -28.193806   -1.470142
  28 C     6.0000    0    12.011   22.228514  -23.438632    3.278067
  29 C     6.0000    0    12.011   19.762868  -22.835193    3.928343
  30 C     6.0000    0    12.011   18.836858  -20.378835    3.502790
  31 C     6.0000    0    12.011   20.461522  -18.571945    2.533300
  32 C     6.0000    0    12.011   22.946555  -19.185372    1.913776
  33 C     6.0000    0    12.011   23.347500  -17.562321   -4.666900
  34 C     6.0000    0    12.011   21.160862  -30.704919   -1.964711
  35 C     6.0000    0    12.011   15.322951  -13.073943    3.153729
  36 O     8.0000    0    15.999   27.779089  -20.389216    0.133337
  37 O     8.0000    0    15.999   13.002823  -23.397957    2.520866
  38 O     8.0000    0    15.999    8.529052  -23.438158   -0.337726
  39 O     8.0000    0    15.999   18.087715  -24.482808    4.977782
  40 O     8.0000    0    15.999   16.409149  -19.738644    4.082477
  41 C     6.0000    0    12.011   18.815271  -27.062282    5.218261
  42 H     1.0000    0     1.008   17.827193  -27.535651   -3.149878
  43 H     1.0000    0     1.008   19.128141  -19.733839   -4.759929
  44 H     1.0000    0     1.008   14.442978  -24.900097   -4.785332
  45 H     1.0000    0     1.008   15.089192  -21.813453   -5.805849
  46 H     1.0000    0     1.008   15.521390  -20.650918   -1.084201
  47 H     1.0000    0     1.008   11.225277  -19.784716   -0.385592
  48 H     1.0000    0     1.008   11.858067  -19.397070   -6.082106
  49 H     1.0000    0     1.008    9.960783  -17.574502   -4.089020
  50 H     1.0000    0     1.008   13.133406  -16.045822    0.073569
  51 H     1.0000    0     1.008   18.726935  -13.980774   -7.113116
  52 H     1.0000    0     1.008   15.195361  -17.008696   -7.685607
  53 H     1.0000    0     1.008   15.946993  -24.888920    0.582427
  54 H     1.0000    0     1.008   12.962523  -25.775379   -0.587298
  55 H     1.0000    0     1.008    7.905694  -21.400129   -3.626612
  56 H     1.0000    0     1.008    9.970139  -24.009825   -3.962091
  57 H     1.0000    0     1.008   19.918668  -11.159882   -1.161890
  58 H     1.0000    0     1.008   25.516007  -26.291442    0.859459
  59 H     1.0000    0     1.008   27.625850  -22.644716    3.191519
  60 H     1.0000    0     1.008   30.105464  -26.139231    1.713461
  61 H     1.0000    0     1.008   30.574857  -24.420813   -1.125541
  62 H     1.0000    0     1.008   28.671181  -27.980125   -3.078755
  63 H     1.0000    0     1.008   22.897958  -25.339681    3.594538
  64 H     1.0000    0     1.008   19.757782  -16.676280    2.226746
  65 H     1.0000    0     1.008   24.165040  -17.744963    1.136296
  66 H     1.0000    0     1.008   22.449708  -17.552439   -6.523509
  67 H     1.0000    0     1.008   22.027928  -16.847074   -3.257033
  68 H     1.0000    0     1.008   25.033386  -16.388906   -4.703280
  69 H     1.0000    0     1.008   22.390773  -32.256025   -1.414456
  70 H     1.0000    0     1.008   19.717476  -30.418728   -0.516683
  71 H     1.0000    0     1.008   20.251799  -31.144777   -3.765691
  72 H     1.0000    0     1.008   15.253848  -15.049599    3.739552
  73 H     1.0000    0     1.008   16.127630  -11.927806    4.656824
  74 H     1.0000    0     1.008   13.420937  -12.405828    2.708006
  75 H     1.0000    0     1.008   26.879944  -20.163980   -1.455588
  76 H     1.0000    0     1.008   11.203076  -23.183091    2.219724
  77 H     1.0000    0     1.008    7.487223  -24.900725   -0.652047
  78 H     1.0000    0     1.008   15.258486  -21.182918    3.869320
  79 H     1.0000    0     1.008   17.177493  -28.042347    5.979143
  80 H     1.0000    0     1.008   19.314481  -27.863399    3.382024
  81 H     1.0000    0     1.008   20.410525  -27.270327    6.513621

--------------------------------
INTERNAL COORDINATES (ANGSTROEM)
--------------------------------
 C      0   0   0     0.000000000000     0.00000000     0.00000000
 C      1   0   0     1.395774700993     0.00000000     0.00000000
 C      2   1   0     1.396944126229   119.50000967     0.00000000
 C      3   2   1     1.394177124144   119.96665343   357.51471846
 C      4   3   2     1.392112472716   120.27559998   359.95524772
 C      1   2   3     1.390671675984   120.37035779     2.97880187
 C      5   4   3     1.509499799082   120.90822418   185.26639780
 C      7   5   4     1.546368420799   111.70358707    95.38705142
 C      8   7   5     1.546493881140   114.54077121   159.54637712
 C      9   8   7     1.541053430270   113.50168104   305.98748596
 C     10   9   8     1.508948046591   114.63113634   309.99551492
 C     11  10   9     1.400293836125   120.39600338   309.67120770
 C     12  11  10     1.385092295594   120.73829725   178.98968718
 C     13  12  11     1.404069758110   120.04024152     0.71479908
 C     14  13  12     1.381536430602   119.52820046     0.25907376
 C     11  10   9     1.389038203079   121.06777125   129.62244870
 C      8   7   5     1.531676614565   108.96279641   286.62453807
 C      9   8   7     1.526179827111   114.49922594    73.47522043
 O      3   2   1     1.359437189750   115.69700958   178.53363626
 O      1   2   3     1.364341090121   115.43462983   181.98599819
 O      2   1   3     1.375028017350   118.96971241   177.64813535
 O     14  13  12     1.366118489690   120.32256726   180.82134054
 O     13  12  11     1.364684548490   125.54759456   181.42484604
 C     21   2   1     1.445117080640   117.27571021   108.96136281
 C     24  21   2     1.541710677765   111.75304287   285.99453357
 C     25  24  21     1.525178711849   113.70852537    76.43039343
 C     24  21   2     1.517155657544   104.96297789   164.41423508
 O     27  24  21     1.425204056761   111.78177583   298.75463457
 C     26  25  24     1.398000781647   120.11211788    46.19310577
 C     29  26  25     1.386647042724   121.03088367   181.39777313
 C     30  29  26     1.407281723272   120.04232563     0.63477554
 C     31  30  29     1.384412974285   118.75066399   357.23991525
 C     26  25  24     1.387394313015   121.36287804   225.28657664
 C     20   1   2     1.428630218385   118.07418778   182.96035995
 C     19   3   2     1.425759758380   118.26452212   180.13130192
 C     23  13  12     1.429303104309   118.31130384   354.17815807
 O     25  24  21     1.420267772967   110.31439653   309.02246264
 O     17   8   7     1.433031268921   113.58267876   179.72920398
 O     18   9   8     1.440995772089   108.45511322    81.79647385
 O     30  29  26     1.361754496854   124.49138413   180.37811401
 O     31  30  29     1.363558363792   121.43613049   178.88944826
 C     40  30  29     1.423954409849   118.30681378   353.87723436
 H      4   3   2     1.079811740703   120.26965564   181.12741461
 H      6   1   2     1.079650035046   120.53473918   177.63436392
 H      7   5   4     1.092950855044   109.99968628   333.23228115
 H      7   5   4     1.089312630537   108.75973545   216.37128316
 H      8   7   5     1.092013686697   107.00689484    42.44133195
 H      9   8   7     1.094465495294   106.31247820   189.39463005
 H     10   9   8     1.092316059496   110.36499047    73.44245563
 H     10   9   8     1.094955383089   107.11186633   188.37308956
 H     12  11  10     1.080532136966   119.69518375     0.00000000
 H     15  14  13     1.082715115353   119.02791280   180.02834976
 H     16  11  10     1.083154909579   119.64060731   359.75576249
 H     17   8   7     1.087506591000   109.87700555    61.03638729
 H     17   8   7     1.093870262151   110.10733021   302.72988372
 H     18   9   8     1.094344269498   109.96244930   200.90083829
 H     18   9   8     1.093737757160   111.41863211   320.56670728
 H     22  14  13     0.969112774164   108.32077139   359.24190490
 H     24  21   2     1.089734590542   108.94342646    48.09004843
 H     25  24  21     1.095112894230   106.07171132   195.19035528
 H     27  24  21     1.090511756005   109.21448775   180.77560909
 H     27  24  21     1.094600797743   109.61527707    62.00658763
 H     28  27  24     0.966648671365   107.07776405    53.35097488
 H     29  26  25     1.079611674345   119.96656711     1.18759387
 H     32  31  30     1.082263632806   118.81810290   180.74124404
 H     33  26  25     1.079827177969   119.98695027   359.64228456
 H     34  20   1     1.091327470670   110.76730161   297.99411435
 H     34  20   1     1.089716260700   110.94222807    59.97154185
 H     34  20   1     1.087126362785   105.80852323   179.06698578
 H     35  19   3     1.087248804596   105.78907046   179.83479057
 H     35  19   3     1.092472574125   111.18495818   298.73788656
 H     35  19   3     1.092645215291   111.07051918    60.92080227
 H     36  23  13     1.091077813802   110.81015811    63.32878015
 H     36  23  13     1.087125315184   105.85027319   182.39503120
 H     36  23  13     1.092556063721   110.55890818   301.21310895
 H     37  25  24     0.973438375992   106.81681868    62.82826065
 H     38  17   8     0.972296471192   105.90731159    73.22217455
 H     39  18   9     0.964686657294   109.18658714   197.05693323
 H     41  31  30     0.983670290699   111.36914531   327.99544811
 H     42  40  30     1.087299370280   105.95111511   183.46425478
 H     42  40  30     1.092563586097   110.96790293   302.46875806
 H     42  40  30     1.092988087209   111.18810053    64.46129376

---------------------------
INTERNAL COORDINATES (A.U.)
---------------------------
 C      0   0   0     0.000000000000     0.00000000     0.00000000
 C      1   0   0     2.637631929532     0.00000000     0.00000000
 C      2   1   0     2.639841822963   119.50000967     0.00000000
 C      3   2   1     2.634612946810   119.96665343   357.51471846
 C      4   3   2     2.630711321049   120.27559998   359.95524772
 C      1   2   3     2.627988609812   120.37035779     2.97880187
 C      5   4   3     2.852541219474   120.90822418   185.26639780
 C      7   5   4     2.922212817454   111.70358707    95.38705142
 C      8   7   5     2.922449903139   114.54077121   159.54637712
 C      9   8   7     2.912168940949   113.50168104   305.98748596
 C     10   9   8     2.851498558372   114.63113634   309.99551492
 C     11  10   9     2.646171857294   120.39600338   309.67120770
 C     12  11  10     2.617445108877   120.73829725   178.98968718
 C     13  12  11     2.653307315750   120.04024152     0.71479908
 C     14  13  12     2.610725497872   119.52820046     0.25907376
 C     11  10   9     2.624901793373   121.06777125   129.62244870
 C      8   7   5     2.894449327260   108.96279641   286.62453807
 C      9   8   7     2.884061904354   114.49922594    73.47522043
 O      3   2   1     2.568963984895   115.69700958   178.53363626
 O      1   2   3     2.578231013583   115.43462983   181.98599819
 O      2   1   3     2.598426379260   118.96971241   177.64813535
 O     14  13  12     2.581589812000   120.32256726   180.82134054
 O     13  12  11     2.578880055841   125.54759456   181.42484604
 C     21   2   1     2.730875513862   117.27571021   108.96136281
 C     24  21   2     2.913410958717   111.75304287   285.99453357
 C     25  24  21     2.882170070681   113.70852537    76.43039343
 C     24  21   2     2.867008695287   104.96297789   164.41423508
 O     27  24  21     2.693245352232   111.78177583   298.75463457
 C     26  25  24     2.641838612320   120.11211788    46.19310577
 C     29  26  25     2.620383155160   121.03088367   181.39777313
 C     30  29  26     2.659377050258   120.04232563     0.63477554
 C     31  30  29     2.616161377646   118.75066399   357.23991525
 C     26  25  24     2.621795291358   121.36287804   225.28657664
 C     20   1   2     2.699719859392   118.07418778   182.96035995
 C     19   3   2     2.694295476103   118.26452212   180.13130192
 C     23  13  12     2.700991429508   118.31130384   354.17815807
 O     25  24  21     2.683917127742   110.31439653   309.02246264
 O     17   8   7     2.708036639607   113.58267876   179.72920398
 O     18   9   8     2.723087369386   108.45511322    81.79647385
 O     30  29  26     2.573343060689   124.49138413   180.37811401
 O     31  30  29     2.576751875184   121.43613049   178.88944826
 C     40  30  29     2.690883861803   118.30681378   353.87723436
 H      4   3   2     2.040548466122   120.26965564   181.12741461
 H      6   1   2     2.040242886715   120.53473918   177.63436392
 H      7   5   4     2.065377793869   109.99968628   333.23228115
 H      7   5   4     2.058502545936   108.75973545   216.37128316
 H      8   7   5     2.063606802351   107.00689484    42.44133195
 H      9   8   7     2.068240049133   106.31247820   189.39463005
 H     10   9   8     2.064178204132   110.36499047    73.44245563
 H     10   9   8     2.069165802901   107.11186633   188.37308956
 H     12  11  10     2.041909817767   119.69518375     0.00000000
 H     15  14  13     2.046035049074   119.02791280   180.02834976
 H     16  11  10     2.046866139717   119.64060731   359.75576249
 H     17   8   7     2.055089625824   109.87700555    61.03638729
 H     17   8   7     2.067115221506   110.10733021   302.72988372
 H     18   9   8     2.068010965577   109.96244930   200.90083829
 H     18   9   8     2.066864823363   111.41863211   320.56670728
 H     22  14  13     1.831357736054   108.32077139   359.24190490
 H     24  21   2     2.059299934786   108.94342646    48.09004843
 H     25  24  21     2.069463455821   106.07171132   195.19035528
 H     27  24  21     2.060768564671   109.21448775   180.77560909
 H     27  24  21     2.068495733705   109.61527707    62.00658763
 H     28  27  24     1.826701256598   107.07776405    53.35097488
 H     29  26  25     2.040170395496   119.96656711     1.18759387
 H     32  31  30     2.045181870705   118.81810290   180.74124404
 H     33  26  25     2.040577638327   119.98695027   359.64228456
 H     34  20   1     2.062310041991   110.76730161   297.99411435
 H     34  20   1     2.059265296404   110.94222807    59.97154185
 H     34  20   1     2.054371098630   105.80852323   179.06698578
 H     35  19   3     2.054602480120   105.78907046   179.83479057
 H     35  19   3     2.064473973916   111.18495818   298.73788656
 H     35  19   3     2.064800218439   111.07051918    60.92080227
 H     36  23  13     2.061838258884   110.81015811    63.32878015
 H     36  23  13     2.054369118950   105.85027319   182.39503120
 H     36  23  13     2.064631746387   110.55890818   301.21310895
 H     37  25  24     1.839531938873   106.81681868    62.82826065
 H     38  17   8     1.837374051531   105.90731159    73.22217455
 H     39  18   9     1.822993587334   109.18658714   197.05693323
 H     41  31  30     1.858867455497   111.36914531   327.99544811
 H     42  40  30     2.054698035415   105.95111511   183.46425478
 H     42  40  30     2.064645961619   110.96790293   302.46875806
 H     42  40  30     2.065448152463   111.18810053    64.46129376

---------------------
BASIS SET INFORMATION
---------------------
There are 3 groups of distinct atoms

 Group   1 Type C   : 11s7p2d1f contracted to 4s5p2d1f pattern {7211/31111/11/1}
 Group   2 Type O   : 11s7p2d1f contracted to 4s5p2d1f pattern {7211/31111/11/1}
 Group   3 Type H   : 6s3p1d contracted to 3s2p1d pattern {411/21/1}

Atom   0C    basis set group =>   1
Atom   1C    basis set group =>   1
Atom   2C    basis set group =>   1
Atom   3C    basis set group =>   1
Atom   4C    basis set group =>   1
Atom   5C    basis set group =>   1
Atom   6C    basis set group =>   1
Atom   7C    basis set group =>   1
Atom   8C    basis set group =>   1
Atom   9C    basis set group =>   1
Atom  10C    basis set group =>   1
Atom  11C    basis set group =>   1
Atom  12C    basis set group =>   1
Atom  13C    basis set group =>   1
Atom  14C    basis set group =>   1
Atom  15C    basis set group =>   1
Atom  16C    basis set group =>   1
Atom  17C    basis set group =>   1
Atom  18O    basis set group =>   2
Atom  19O    basis set group =>   2
Atom  20O    basis set group =>   2
Atom  21O    basis set group =>   2
Atom  22O    basis set group =>   2
Atom  23C    basis set group =>   1
Atom  24C    basis set group =>   1
Atom  25C    basis set group =>   1
Atom  26C    basis set group =>   1
Atom  27O    basis set group =>   2
Atom  28C    basis set group =>   1
Atom  29C    basis set group =>   1
Atom  30C    basis set group =>   1
Atom  31C    basis set group =>   1
Atom  32C    basis set group =>   1
Atom  33C    basis set group =>   1
Atom  34C    basis set group =>   1
Atom  35C    basis set group =>   1
Atom  36O    basis set group =>   2
Atom  37O    basis set group =>   2
Atom  38O    basis set group =>   2
Atom  39O    basis set group =>   2
Atom  40O    basis set group =>   2
Atom  41C    basis set group =>   1
Atom  42H    basis set group =>   3
Atom  43H    basis set group =>   3
Atom  44H    basis set group =>   3
Atom  45H    basis set group =>   3
Atom  46H    basis set group =>   3
Atom  47H    basis set group =>   3
Atom  48H    basis set group =>   3
Atom  49H    basis set group =>   3
Atom  50H    basis set group =>   3
Atom  51H    basis set group =>   3
Atom  52H    basis set group =>   3
Atom  53H    basis set group =>   3
Atom  54H    basis set group =>   3
Atom  55H    basis set group =>   3
Atom  56H    basis set group =>   3
Atom  57H    basis set group =>   3
Atom  58H    basis set group =>   3
Atom  59H    basis set group =>   3
Atom  60H    basis set group =>   3
Atom  61H    basis set group =>   3
Atom  62H    basis set group =>   3
Atom  63H    basis set group =>   3
Atom  64H    basis set group =>   3
Atom  65H    basis set group =>   3
Atom  66H    basis set group =>   3
Atom  67H    basis set group =>   3
Atom  68H    basis set group =>   3
Atom  69H    basis set group =>   3
Atom  70H    basis set group =>   3
Atom  71H    basis set group =>   3
Atom  72H    basis set group =>   3
Atom  73H    basis set group =>   3
Atom  74H    basis set group =>   3
Atom  75H    basis set group =>   3
Atom  76H    basis set group =>   3
Atom  77H    basis set group =>   3
Atom  78H    basis set group =>   3
Atom  79H    basis set group =>   3
Atom  80H    basis set group =>   3
Atom  81H    basis set group =>   3
---------------------------------
AUXILIARY/J BASIS SET INFORMATION
---------------------------------
There are 3 groups of distinct atoms

 Group   1 Type C   : 15s13p12d5f5g contracted to 15s13p12d5f5g pattern {111111111111111/1111111111111/111111111111/11111/11111}
 Group   2 Type O   : 15s13p12d5f5g contracted to 15s13p12d5f5g pattern {111111111111111/1111111111111/111111111111/11111/11111}
 Group   3 Type H   : 12s4p3d2f contracted to 12s4p3d2f pattern {111111111111/1111/111/11}

Atom   0C    basis set group =>   1
Atom   1C    basis set group =>   1
Atom   2C    basis set group =>   1
Atom   3C    basis set group =>   1
Atom   4C    basis set group =>   1
Atom   5C    basis set group =>   1
Atom   6C    basis set group =>   1
Atom   7C    basis set group =>   1
Atom   8C    basis set group =>   1
Atom   9C    basis set group =>   1
Atom  10C    basis set group =>   1
Atom  11C    basis set group =>   1
Atom  12C    basis set group =>   1
Atom  13C    basis set group =>   1
Atom  14C    basis set group =>   1
Atom  15C    basis set group =>   1
Atom  16C    basis set group =>   1
Atom  17C    basis set group =>   1
Atom  18O    basis set group =>   2
Atom  19O    basis set group =>   2
Atom  20O    basis set group =>   2
Atom  21O    basis set group =>   2
Atom  22O    basis set group =>   2
Atom  23C    basis set group =>   1
Atom  24C    basis set group =>   1
Atom  25C    basis set group =>   1
Atom  26C    basis set group =>   1
Atom  27O    basis set group =>   2
Atom  28C    basis set group =>   1
Atom  29C    basis set group =>   1
Atom  30C    basis set group =>   1
Atom  31C    basis set group =>   1
Atom  32C    basis set group =>   1
Atom  33C    basis set group =>   1
Atom  34C    basis set group =>   1
Atom  35C    basis set group =>   1
Atom  36O    basis set group =>   2
Atom  37O    basis set group =>   2
Atom  38O    basis set group =>   2
Atom  39O    basis set group =>   2
Atom  40O    basis set group =>   2
Atom  41C    basis set group =>   1
Atom  42H    basis set group =>   3
Atom  43H    basis set group =>   3
Atom  44H    basis set group =>   3
Atom  45H    basis set group =>   3
Atom  46H    basis set group =>   3
Atom  47H    basis set group =>   3
Atom  48H    basis set group =>   3
Atom  49H    basis set group =>   3
Atom  50H    basis set group =>   3
Atom  51H    basis set group =>   3
Atom  52H    basis set group =>   3
Atom  53H    basis set group =>   3
Atom  54H    basis set group =>   3
Atom  55H    basis set group =>   3
Atom  56H    basis set group =>   3
Atom  57H    basis set group =>   3
Atom  58H    basis set group =>   3
Atom  59H    basis set group =>   3
Atom  60H    basis set group =>   3
Atom  61H    basis set group =>   3
Atom  62H    basis set group =>   3
Atom  63H    basis set group =>   3
Atom  64H    basis set group =>   3
Atom  65H    basis set group =>   3
Atom  66H    basis set group =>   3
Atom  67H    basis set group =>   3
Atom  68H    basis set group =>   3
Atom  69H    basis set group =>   3
Atom  70H    basis set group =>   3
Atom  71H    basis set group =>   3
Atom  72H    basis set group =>   3
Atom  73H    basis set group =>   3
Atom  74H    basis set group =>   3
Atom  75H    basis set group =>   3
Atom  76H    basis set group =>   3
Atom  77H    basis set group =>   3
Atom  78H    basis set group =>   3
Atom  79H    basis set group =>   3
Atom  80H    basis set group =>   3
Atom  81H    basis set group =>   3
---------------------------------
AUXILIARY/C BASIS SET INFORMATION
---------------------------------
There are 3 groups of distinct atoms

 Group   1 Type C   : 15s13p12d5f5g contracted to 15s13p12d5f5g pattern {111111111111111/1111111111111/111111111111/11111/11111}
 Group   2 Type O   : 15s13p12d5f5g contracted to 15s13p12d5f5g pattern {111111111111111/1111111111111/111111111111/11111/11111}
 Group   3 Type H   : 12s4p3d2f contracted to 12s4p3d2f pattern {111111111111/1111/111/11}

Atom   0C    basis set group =>   1
Atom   1C    basis set group =>   1
Atom   2C    basis set group =>   1
Atom   3C    basis set group =>   1
Atom   4C    basis set group =>   1
Atom   5C    basis set group =>   1
Atom   6C    basis set group =>   1
Atom   7C    basis set group =>   1
Atom   8C    basis set group =>   1
Atom   9C    basis set group =>   1
Atom  10C    basis set group =>   1
Atom  11C    basis set group =>   1
Atom  12C    basis set group =>   1
Atom  13C    basis set group =>   1
Atom  14C    basis set group =>   1
Atom  15C    basis set group =>   1
Atom  16C    basis set group =>   1
Atom  17C    basis set group =>   1
Atom  18O    basis set group =>   2
Atom  19O    basis set group =>   2
Atom  20O    basis set group =>   2
Atom  21O    basis set group =>   2
Atom  22O    basis set group =>   2
Atom  23C    basis set group =>   1
Atom  24C    basis set group =>   1
Atom  25C    basis set group =>   1
Atom  26C    basis set group =>   1
Atom  27O    basis set group =>   2
Atom  28C    basis set group =>   1
Atom  29C    basis set group =>   1
Atom  30C    basis set group =>   1
Atom  31C    basis set group =>   1
Atom  32C    basis set group =>   1
Atom  33C    basis set group =>   1
Atom  34C    basis set group =>   1
Atom  35C    basis set group =>   1
Atom  36O    basis set group =>   2
Atom  37O    basis set group =>   2
Atom  38O    basis set group =>   2
Atom  39O    basis set group =>   2
Atom  40O    basis set group =>   2
Atom  41C    basis set group =>   1
Atom  42H    basis set group =>   3
Atom  43H    basis set group =>   3
Atom  44H    basis set group =>   3
Atom  45H    basis set group =>   3
Atom  46H    basis set group =>   3
Atom  47H    basis set group =>   3
Atom  48H    basis set group =>   3
Atom  49H    basis set group =>   3
Atom  50H    basis set group =>   3
Atom  51H    basis set group =>   3
Atom  52H    basis set group =>   3
Atom  53H    basis set group =>   3
Atom  54H    basis set group =>   3
Atom  55H    basis set group =>   3
Atom  56H    basis set group =>   3
Atom  57H    basis set group =>   3
Atom  58H    basis set group =>   3
Atom  59H    basis set group =>   3
Atom  60H    basis set group =>   3
Atom  61H    basis set group =>   3
Atom  62H    basis set group =>   3
Atom  63H    basis set group =>   3
Atom  64H    basis set group =>   3
Atom  65H    basis set group =>   3
Atom  66H    basis set group =>   3
Atom  67H    basis set group =>   3
Atom  68H    basis set group =>   3
Atom  69H    basis set group =>   3
Atom  70H    basis set group =>   3
Atom  71H    basis set group =>   3
Atom  72H    basis set group =>   3
Atom  73H    basis set group =>   3
Atom  74H    basis set group =>   3
Atom  75H    basis set group =>   3
Atom  76H    basis set group =>   3
Atom  77H    basis set group =>   3
Atom  78H    basis set group =>   3
Atom  79H    basis set group =>   3
Atom  80H    basis set group =>   3
Atom  81H    basis set group =>   3
----------------------------------
AUXILIARY/JK BASIS SET INFORMATION
----------------------------------
There are 3 groups of distinct atoms

 Group   1 Type C   : 15s13p12d5f5g contracted to 15s13p12d5f5g pattern {111111111111111/1111111111111/111111111111/11111/11111}
 Group   2 Type O   : 15s13p12d5f5g contracted to 15s13p12d5f5g pattern {111111111111111/1111111111111/111111111111/11111/11111}
 Group   3 Type H   : 12s4p3d2f contracted to 12s4p3d2f pattern {111111111111/1111/111/11}

Atom   0C    basis set group =>   1
Atom   1C    basis set group =>   1
Atom   2C    basis set group =>   1
Atom   3C    basis set group =>   1
Atom   4C    basis set group =>   1
Atom   5C    basis set group =>   1
Atom   6C    basis set group =>   1
Atom   7C    basis set group =>   1
Atom   8C    basis set group =>   1
Atom   9C    basis set group =>   1
Atom  10C    basis set group =>   1
Atom  11C    basis set group =>   1
Atom  12C    basis set group =>   1
Atom  13C    basis set group =>   1
Atom  14C    basis set group =>   1
Atom  15C    basis set group =>   1
Atom  16C    basis set group =>   1
Atom  17C    basis set group =>   1
Atom  18O    basis set group =>   2
Atom  19O    basis set group =>   2
Atom  20O    basis set group =>   2
Atom  21O    basis set group =>   2
Atom  22O    basis set group =>   2
Atom  23C    basis set group =>   1
Atom  24C    basis set group =>   1
Atom  25C    basis set group =>   1
Atom  26C    basis set group =>   1
Atom  27O    basis set group =>   2
Atom  28C    basis set group =>   1
Atom  29C    basis set group =>   1
Atom  30C    basis set group =>   1
Atom  31C    basis set group =>   1
Atom  32C    basis set group =>   1
Atom  33C    basis set group =>   1
Atom  34C    basis set group =>   1
Atom  35C    basis set group =>   1
Atom  36O    basis set group =>   2
Atom  37O    basis set group =>   2
Atom  38O    basis set group =>   2
Atom  39O    basis set group =>   2
Atom  40O    basis set group =>   2
Atom  41C    basis set group =>   1
Atom  42H    basis set group =>   3
Atom  43H    basis set group =>   3
Atom  44H    basis set group =>   3
Atom  45H    basis set group =>   3
Atom  46H    basis set group =>   3
Atom  47H    basis set group =>   3
Atom  48H    basis set group =>   3
Atom  49H    basis set group =>   3
Atom  50H    basis set group =>   3
Atom  51H    basis set group =>   3
Atom  52H    basis set group =>   3
Atom  53H    basis set group =>   3
Atom  54H    basis set group =>   3
Atom  55H    basis set group =>   3
Atom  56H    basis set group =>   3
Atom  57H    basis set group =>   3
Atom  58H    basis set group =>   3
Atom  59H    basis set group =>   3
Atom  60H    basis set group =>   3
Atom  61H    basis set group =>   3
Atom  62H    basis set group =>   3
Atom  63H    basis set group =>   3
Atom  64H    basis set group =>   3
Atom  65H    basis set group =>   3
Atom  66H    basis set group =>   3
Atom  67H    basis set group =>   3
Atom  68H    basis set group =>   3
Atom  69H    basis set group =>   3
Atom  70H    basis set group =>   3
Atom  71H    basis set group =>   3
Atom  72H    basis set group =>   3
Atom  73H    basis set group =>   3
Atom  74H    basis set group =>   3
Atom  75H    basis set group =>   3
Atom  76H    basis set group =>   3
Atom  77H    basis set group =>   3
Atom  78H    basis set group =>   3
Atom  79H    basis set group =>   3
Atom  80H    basis set group =>   3
Atom  81H    basis set group =>   3
---------------------------------
AUXILIARY/X BASIS SET INFORMATION
---------------------------------
There are 3 groups of distinct atoms

 Group   1 Type C   : 15s13p12d5f5g contracted to 15s13p12d5f5g pattern {111111111111111/1111111111111/111111111111/11111/11111}
 Group   2 Type O   : 15s13p12d5f5g contracted to 15s13p12d5f5g pattern {111111111111111/1111111111111/111111111111/11111/11111}
 Group   3 Type H   : 12s4p3d2f contracted to 12s4p3d2f pattern {111111111111/1111/111/11}

Atom   0C    basis set group =>   1
Atom   1C    basis set group =>   1
Atom   2C    basis set group =>   1
Atom   3C    basis set group =>   1
Atom   4C    basis set group =>   1
Atom   5C    basis set group =>   1
Atom   6C    basis set group =>   1
Atom   7C    basis set group =>   1
Atom   8C    basis set group =>   1
Atom   9C    basis set group =>   1
Atom  10C    basis set group =>   1
Atom  11C    basis set group =>   1
Atom  12C    basis set group =>   1
Atom  13C    basis set group =>   1
Atom  14C    basis set group =>   1
Atom  15C    basis set group =>   1
Atom  16C    basis set group =>   1
Atom  17C    basis set group =>   1
Atom  18O    basis set group =>   2
Atom  19O    basis set group =>   2
Atom  20O    basis set group =>   2
Atom  21O    basis set group =>   2
Atom  22O    basis set group =>   2
Atom  23C    basis set group =>   1
Atom  24C    basis set group =>   1
Atom  25C    basis set group =>   1
Atom  26C    basis set group =>   1
Atom  27O    basis set group =>   2
Atom  28C    basis set group =>   1
Atom  29C    basis set group =>   1
Atom  30C    basis set group =>   1
Atom  31C    basis set group =>   1
Atom  32C    basis set group =>   1
Atom  33C    basis set group =>   1
Atom  34C    basis set group =>   1
Atom  35C    basis set group =>   1
Atom  36O    basis set group =>   2
Atom  37O    basis set group =>   2
Atom  38O    basis set group =>   2
Atom  39O    basis set group =>   2
Atom  40O    basis set group =>   2
Atom  41C    basis set group =>   1
Atom  42H    basis set group =>   3
Atom  43H    basis set group =>   3
Atom  44H    basis set group =>   3
Atom  45H    basis set group =>   3
Atom  46H    basis set group =>   3
Atom  47H    basis set group =>   3
Atom  48H    basis set group =>   3
Atom  49H    basis set group =>   3
Atom  50H    basis set group =>   3
Atom  51H    basis set group =>   3
Atom  52H    basis set group =>   3
Atom  53H    basis set group =>   3
Atom  54H    basis set group =>   3
Atom  55H    basis set group =>   3
Atom  56H    basis set group =>   3
Atom  57H    basis set group =>   3
Atom  58H    basis set group =>   3
Atom  59H    basis set group =>   3
Atom  60H    basis set group =>   3
Atom  61H    basis set group =>   3
Atom  62H    basis set group =>   3
Atom  63H    basis set group =>   3
Atom  64H    basis set group =>   3
Atom  65H    basis set group =>   3
Atom  66H    basis set group =>   3
Atom  67H    basis set group =>   3
Atom  68H    basis set group =>   3
Atom  69H    basis set group =>   3
Atom  70H    basis set group =>   3
Atom  71H    basis set group =>   3
Atom  72H    basis set group =>   3
Atom  73H    basis set group =>   3
Atom  74H    basis set group =>   3
Atom  75H    basis set group =>   3
Atom  76H    basis set group =>   3
Atom  77H    basis set group =>   3
Atom  78H    basis set group =>   3
Atom  79H    basis set group =>   3
Atom  80H    basis set group =>   3
Atom  81H    basis set group =>   3
--------------------------------------------------------------------------
WARNING: There is at least one non-excluded one OpenFabrics device found,
but there are no active ports detected (or Open MPI was unable to use
them).  This is most certainly not what you wanted.  Check your
cables, subnet manager configuration, etc.  The openib BTL will be
ignored for this job.

  Local host: c01b01n02
--------------------------------------------------------------------------
--------------------------------------------------------------------------
WARNING: There was an error initializing an OpenFabrics device.

  Local host:   c01b01n02
  Local device: mlx5_0
--------------------------------------------------------------------------
[c01b01n02:1393778] 9 more processes have sent help message help-mpi-btl-openib.txt / no active ports found
[c01b01n02:1393778] Set MCA parameter "orte_base_help_aggregate" to 0 to see all help / error messages
[c01b01n02:1393778] 49 more processes have sent help message help-mpi-btl-openib.txt / error in device init


           ************************************************************
           *        Program running with 60 parallel MPI-processes    *
           *              working on a common directory               *
           ************************************************************
------------------------------------------------------------------------------
                             ORCA STARTUP CALCULATIONS
                           -- RI-GTO INTEGRALS CHOSEN --
------------------------------------------------------------------------------
------------------------------------------------------------------------------
                   ___                                                        
                  /   \      - P O W E R E D   B Y -                         
                 /     \                                                     
                 |  |  |   _    _      __       _____    __    __             
                 |  |  |  | |  | |    /  \     |  _  \  |  |  /  |          
                  \  \/   | |  | |   /    \    | | | |  |  | /  /          
                 / \  \   | |__| |  /  /\  \   | |_| |  |  |/  /          
                |  |  |   |  __  | /  /__\  \  |    /   |      \           
                |  |  |   | |  | | |   __   |  |    \   |  |\   \          
                \     /   | |  | | |  |  |  |  | |\  \  |  | \   \       
                 \___/    |_|  |_| |__|  |__|  |_| \__\ |__|  \__/        
                                                                              
                      - O R C A' S   B I G   F R I E N D -                    
                                      &                                       
                       - I N T E G R A L  F E E D E R -                       
                                                                              
 v1 FN, 2020, v2 2021, v3 2022-2024                                           
------------------------------------------------------------------------------


----------------------
SHARK INTEGRAL PACKAGE
----------------------

Number of atoms                             ...     82
Number of basis functions                   ...   2072
Number of shells                            ...    744
Maximum angular momentum                    ...      3
Integral batch strategy                     ... SHARK/LIBINT Hybrid
RI-J (if used) integral strategy            ... SPLIT-RIJ (Revised 2003 algorithm where possible)
Printlevel                                  ...      1
Contraction scheme used                     ... SEGMENTED contraction
Prescreening option                         ... SCHWARTZ
   Thresh                                   ... 1.000e-10
   Tcut                                     ... 1.000e-11
   Tpresel                                  ... 1.000e-11 
Coulomb Range Separation                    ... NOT USED
Exchange Range Separation                   ... NOT USED
Multipole approximations                    ... NOT USED
Finite Nucleus Model                        ... NOT USED
CABS basis                                  ... NOT available
Auxiliary Coulomb fitting basis             ... AVAILABLE
   # of basis functions in Aux-J            ...  10268
   # of shells in Aux-J                     ...   2940
   Maximum angular momentum in Aux-J        ...      4
Auxiliary J/K fitting basis                 ... AVAILABLE
   # of basis functions in Aux-JK           ...  10268
   # of shells in Aux-JK                    ...   2940
   Maximum angular momentum in Aux-JK       ...      4
Auxiliary Correlation fitting basis         ... AVAILABLE
   # of basis functions in Aux-C            ...  10268
   # of shells in Aux-C                     ...   2940
   Maximum angular momentum in Aux-C        ...      4
Auxiliary 'external' fitting basis          ... NOT available

Checking pre-screening integrals            ... done (  0.1 sec) Dimension = 744
   => SHARK Basis and OBASIS are compatible. Storing Pre-screening
Shell pair information
Shell pair cut-off parameter TPreSel        ...   1.0e-11
Total number of shell pairs                 ...    277140
Shell pairs after pre-screening             ...    153900
Total number of primitive shell pairs       ...    823733
Primitive shell pairs kept                  ...    281971
          la=0 lb=0:  29240 shell pairs
          la=1 lb=0:  51143 shell pairs
          la=1 lb=1:  20900 shell pairs
          la=2 lb=0:  20191 shell pairs
          la=2 lb=1:  15307 shell pairs
          la=2 lb=2:   2726 shell pairs
          la=3 lb=0:   6966 shell pairs
          la=3 lb=1:   5245 shell pairs
          la=3 lb=2:   1836 shell pairs
          la=3 lb=3:    346 shell pairs

Checking whether 4 symmetric matrices of dimension 2072 fit in memory
:Max Core in MB      =   5000.00
 MB in use           =    189.81
 MB left             =   4810.19
 MB needed           =     65.54
 Data fit in memory  = YES
Calculating RI/J V-Matrix + Cholesky decomp.... done (  7.8 sec)
Calculating RI/JK V-Matrix + Cholesky decomp.... done (  4.0 sec)
Calculating RI/C V-Matrix + Cholesky decomp.... done (  4.9 sec)
Calculating Nuclear repulsion               ... done (  0.0 sec) ENN=   5783.604260621796 Eh

Diagonalization of the overlap matrix:
Smallest eigenvalue                        ... 6.854e-06
Time for diagonalization                   ...    2.512 sec
Threshold for overlap eigenvalues          ... 1.000e-07
Number of eigenvalues below threshold      ... 0
Time for construction of square roots      ...    0.992 sec
Total time needed                          ...    3.860 sec

-------------------
DFT GRID GENERATION
-------------------

General Integration Accuracy     IntAcc      ... 4.388
Radial Grid Type                 RadialGrid  ... OptM3 with GC (2021)
Angular Grid (max. ang.)         AngularGrid ... 4 (Lebedev-302)
Angular grid pruning method      GridPruning ... 4 (adaptive)
Weight generation scheme         WeightScheme... mBecke (2022)
Basis function cutoff            BFCut       ... 1.0000e-10
Integration weight cutoff        WCut        ... 1.0000e-14
Partially contracted basis set               ... off
Rotationally invariant grid construction     ... off
Angular grids for H and He will be reduced by one unit
Diffuse basis detected: some atoms will have their outermost
                        angular grid increased by 1.

Total number of grid points                  ...   376475
Total number of batches                      ...     5926
Average number of points per batch           ...       63
Average number of grid points per atom       ...     4591
Grids setup in   4.6 sec
Initializing property integral containers    ... done (  0.1 sec)

SHARK setup successfully completed in  41.0 seconds

Maximum memory used throughout the entire STARTUP-calculation: 261.9 MB
--------------------------------------------------------------------------
WARNING: There was an error initializing an OpenFabrics device.

  Local host:   c01b01n02
  Local device: mlx5_0
--------------------------------------------------------------------------
--------------------------------------------------------------------------
WARNING: There is at least one non-excluded one OpenFabrics device found,
but there are no active ports detected (or Open MPI was unable to use
them).  This is most certainly not what you wanted.  Check your
cables, subnet manager configuration, etc.  The openib BTL will be
ignored for this job.

  Local host: c01b01n02
--------------------------------------------------------------------------


           ************************************************************
           *        Program running with 60 parallel MPI-processes    *
           *              working on a common directory               *
           ************************************************************
-------------------------------------------------------------------------------
                                 ORCA GUESS
                   Start orbitals & Density for SCF / CASSCF
-------------------------------------------------------------------------------

------------
SCF SETTINGS
------------
Hamiltonian:
 Density Functional     Method          .... DFT(GTOs)
 Exchange Functional    Exchange        .... TPSS
 Correlation Functional Correlation     .... TPSS
 LDA part of GGA corr.  LDAOpt          .... PW91-LDA
 Gradients option       PostSCFGGA      .... off
   NL short-range parameter             ....  5.000000
 RI-approximation to the Coulomb term is turned on
   Number of AuxJ basis functions       .... 10268


General Settings:
 Integral files         IntName         .... nmr-conf-6
 Hartree-Fock type      HFTyp           .... RHF
 Total Charge           Charge          ....    0
 Multiplicity           Mult            ....    1
 Number of Electrons    NEL             ....  314
 Basis Dimension        Dim             .... 2072
 Nuclear Repulsion      ENuc            ....   5783.6042606218 Eh

Convergence Acceleration:
 AO-DIIS                CNVDIIS         .... on
   Start iteration      DIISMaxIt       ....    12
   Startup error        DIISStart       ....  0.200000
   # of expansion vecs  DIISMaxEq       ....     5
   Bias factor          DIISBfac        ....   1.050
   Max. coefficient     DIISMaxC        ....  10.000
 MO-DIIS                CNVKDIIS        .... off
 Trust-Rad. Augm. Hess. CNVTRAH         .... auto
   Auto Start mean grad. ratio tolernc. ....  1.125000
   Auto Start start iteration           ....    50
   Auto Start num. interpolation iter.  ....    10
   Max. Number of Micro iterations      ....    24
   Max. Number of Macro iterations      .... Maxiter - #DIIS iter
   Number of Davidson start vectors     ....     2
   Converg. threshold    (grad. norm)   ....   5.000e-05
   Grad. Scal. Fac. for Micro threshold ....   0.100
   Minimum threshold for Micro iter.    ....   1.000e-02
   NR start threshold (gradient norm)   ....   1.000e-04
   Initial trust radius                 ....   0.400
   Minimum AH scaling param. (alpha)    ....   1.000
   Maximum AH scaling param. (alpha)    .... 1000.000
   Quad. conv. algorithm                .... NR
   White noise on init. David. guess    .... on
   Maximum white noise                  ....   0.010
   Pseudo random numbers                .... off
   Inactive MOs                         .... canonical
   Orbital update algorithm             .... Taylor
   Preconditioner                       .... Diag
   Full preconditioner red. dimension   ....   250
 SOSCF                 CNVSOSCF           .... on
   Start iteration     SOSCFMaxIt         ....   150
   Startup grad/error  SOSCFStart         ....  0.003300
   Hessian update      SOSCFHessUp        .... L-BFGS
   Autom. constraints  SOSCFAutoConstrain .... off
 Level Shifting         CNVShift        .... on
   Level shift para.    LevelShift      ....    0.2500
   Turn off err/grad.   ShiftErr        ....    0.0010
 Zerner damping         CNVZerner       .... off
 Static damping         CNVDamp         .... on
   Fraction old density DampFac         ....    0.7000
   Max. Damping (<1)    DampMax         ....    0.9800
   Min. Damping (>=0)   DampMin         ....    0.0000
   Turn off err/grad.   DampErr         ....    0.1000

SCF Procedure:
 Maximum # iterations   MaxIter         ....   125
 SCF integral mode      SCFMode         .... Direct
   Integral package                     .... SHARK and LIBINT hybrid scheme
 Reset frequency        DirectResetFreq ....    20
 Integral Threshold     Thresh          ....  1.000e-10 Eh
 Primitive CutOff       TCut            ....  1.000e-11 Eh

Convergence Tolerance:
 Convergence Check Mode ConvCheckMode   .... Total+1el-Energy
 Convergence forced     ConvForced      .... 0
 Energy Change          TolE            ....  1.000e-06 Eh
 1-El. energy change                    ....  1.000e-03 Eh
 Orbital Gradient       TolG            ....  5.000e-05
 Orbital Rotation angle TolX            ....  5.000e-05
 DIIS Error             TolErr          ....  1.000e-06

------------------------------
INITIAL GUESS: MODEL POTENTIAL
------------------------------
Loading Hartree-Fock densities                     ... done
Calculating cut-offs                               ... done
Initializing the effective Hamiltonian             ... done
Setting up the integral package (SHARK)            ... done
Starting the Coulomb interaction                   ... [c01b01n02:1394351] 54 more processes have sent help message help-mpi-btl-openib.txt / error in device init
[c01b01n02:1394351] Set MCA parameter "orte_base_help_aggregate" to 0 to see all help / error messages
[c01b01n02:1394351] 4 more processes have sent help message help-mpi-btl-openib.txt / no active ports found
done (   2.9 sec)
Making the grid                                    ... done (   0.5 sec)
Mapping shells                                     ... done
Starting the XC term evaluation                    ... done (   1.4 sec)
  promolecular density results
     # of electrons  =    313.989897243
     EX              =   -260.302679366
     EC              =    -10.650557367
     EX+EC           =   -270.953236733
Transforming the Hamiltonian                       ... done (   0.3 sec)
Diagonalizing the Hamiltonian                      ... done (   0.7 sec)
Back transforming the eigenvectors                 ... done (   0.2 sec)
Now organizing SCF variables                       ... done
                      ------------------
                      INITIAL GUESS DONE (   6.7 sec)
                      ------------------
             **** ENERGY FILE WAS UPDATED (nmr-conf-6.en.tmp) ****
Finished Guess after  11.9 sec
Maximum memory used throughout the entire GUESS-calculation: 294.7 MB
--------------------------------------------------------------------------
WARNING: There was an error initializing an OpenFabrics device.

  Local host:   c01b01n02
  Local device: mlx5_0
--------------------------------------------------------------------------
--------------------------------------------------------------------------
WARNING: There is at least one non-excluded one OpenFabrics device found,
but there are no active ports detected (or Open MPI was unable to use
them).  This is most certainly not what you wanted.  Check your
cables, subnet manager configuration, etc.  The openib BTL will be
ignored for this job.

  Local host: c01b01n02
--------------------------------------------------------------------------


           ************************************************************
           *        Program running with 60 parallel MPI-processes    *
           *              working on a common directory               *
           ************************************************************

-------------------------------------------------------------------------------------------
                                      ORCA LEAN-SCF
                              memory conserving SCF solver
-------------------------------------------------------------------------------------------

--------------------
[c01b01n02:1394864] 50 more processes have sent help message help-mpi-btl-openib.txt / error in device init
[c01b01n02:1394864] Set MCA parameter "orte_base_help_aggregate" to 0 to see all help / error messages
[c01b01n02:1394864] 8 more processes have sent help message help-mpi-btl-openib.txt / no active ports found
CPCM SOLVATION MODEL
--------------------
CPCM parameters:
  Epsilon                                         ...      33.4280
  Refrac                                          ...       1.3288
  Rsolv                                           ...       1.3000
  Surface type                                    ... GAUSSIAN VDW
  Discretization scheme                           ... Constant charge density
    Threshold for H atoms                         ...       5.0000 (charges/Ang^2)
    Threshold for non-H atoms                     ...       5.0000 (charges/Ang^2)
  Epsilon function type                           ...         CPCM
Solvent:                                          ... METHANOL
Radii:
  Scheme                                          ... Element-dependent radii
  Radius for C  used is    3.8550 Bohr (=   2.0400 Ang.)
  Radius for O  used is    3.4469 Bohr (=   1.8240 Ang.)
  Radius for H  used is    2.4944 Bohr (=   1.3200 Ang.)
Calculating surface                               ...        done! (  0.0s)
Cavity surface points                             ...         6078
Cavity Volume                                     ...    4507.9046
Cavity Surface-area                               ...    2011.4775
Calculating surface distance matrix               ...        done! (  0.2s)
Performing Cholesky decomposition & store         ...        done! (  0.7s)
Overall time for CPCM initialization              ...                 1.4s

----------------------------------------D-I-I-S--------------------------------------------
Iteration    Energy (Eh)           Delta-E    RMSDP     MaxDP     DIISErr   Damp  Time(sec)
-------------------------------------------------------------------------------------------
               ***  Starting incremental Fock matrix formation  ***
    1    -2033.0335952884879589     0.00e+00  8.02e-03  2.35e-01  2.36e-01  0.700  15.1
    2    -2033.4349479281845561    -4.01e-01  6.58e-03  1.81e-01  8.00e-02  0.700   8.4
                               ***Turning on AO-DIIS***
    3    -2033.5855567632761449    -1.51e-01  2.84e-03  6.25e-02  2.49e-02  0.700   8.8
    4    -2033.6765417406595589    -9.10e-02  4.83e-03  7.28e-02  1.18e-02  0.000   7.5
    5    -2033.8777033165815737    -2.01e-01  1.29e-03  3.23e-02  4.68e-03  0.000   6.8
                              *** Initializing SOSCF ***
---------------------------------------S-O-S-C-F--------------------------------------
Iteration    Energy (Eh)           Delta-E    RMSDP     MaxDP     MaxGrad    Time(sec)
--------------------------------------------------------------------------------------
    6    -2033.8790445660088153    -1.34e-03  4.09e-04  8.50e-03  1.28e-03     8.3
               *** Restarting incremental Fock matrix formation ***
    7    -2033.8791475087737126    -1.03e-04  3.10e-04  5.79e-03  1.31e-04     9.8
    8    -2033.8791220153934773     2.55e-05  7.71e-05  2.13e-03  7.36e-04     5.9
    9    -2033.8791630009427536    -4.10e-05  6.62e-05  1.52e-03  1.30e-04     5.7
   10    -2033.8791631720250734    -1.71e-07  2.17e-05  5.58e-04  1.27e-04     5.6
                 **** Energy Check signals convergence ****

               *****************************************************
               *                     SUCCESS                       *
               *           SCF CONVERGED AFTER  10 CYCLES          *
               *****************************************************

             **** ENERGY FILE WAS UPDATED (nmr-conf-6.en.tmp) ****

----------------
TOTAL SCF ENERGY
----------------

Total Energy       :      -2033.87916328507163 Eh          -55344.66570 eV

Components:
Nuclear Repulsion  :       5783.60426062179613 Eh          157379.87297 eV
Electronic Energy  :      -7817.43770920710085 Eh         -212723.29471 eV
One Electron Energy:     -14296.97225084923775 Eh         -389040.39338 eV
Two Electron Energy:       6479.53454164213690 Eh          176317.09867 eV
CPCM Dielectric    :         -0.04571469976653 Eh              -1.24396 eV

Virial components:
Potential Energy   :      -4061.12783005615347 Eh         -110508.90642 eV
Kinetic Energy     :       2027.24866677108162 Eh           55164.24072 eV
Virial Ratio       :          2.00327068732251

DFT components:
N(Alpha)           :      157.000589307326 electrons
N(Beta)            :      157.000589307326 electrons
N(Total)           :      314.001178614651 electrons
E(X)               :     -268.093288462654 Eh       
E(C)               :      -10.610778337807 Eh       
E(XC)              :     -278.704066800461 Eh       

CPCM Solvation Model Properties:
Surface-charge          :         -0.04189537575612
Corrected charge        :          0.00000000000000
Outlying charge corr.   :          0.00007643350618 Eh               0.00208 eV
Free-energy (cav+disp)  :  This term is not implemented in the current solvation scheme

---------------
SCF CONVERGENCE
---------------

  Last Energy change         ...    1.7108e-07  Tolerance :   1.0000e-06
  Last MAX-Density change    ...    5.5833e-04  Tolerance :   1.0000e-05
  Last RMS-Density change    ...    2.1690e-05  Tolerance :   1.0000e-06
  Last DIIS Error            ...    1.2802e-03  Tolerance :   1.0000e-06
  Last Orbital Gradient      ...    1.2723e-04  Tolerance :   5.0000e-05
  Last Orbital Rotation      ...    2.5536e-04  Tolerance :   5.0000e-05


----------------
ORBITAL ENERGIES
----------------

  NO   OCC          E(Eh)            E(eV) 
   0   2.0000     -18.918542      -514.7997 
   1   2.0000     -18.918027      -514.7857 
   2   2.0000     -18.913193      -514.6541 
   3   2.0000     -18.911275      -514.6019 
   4   2.0000     -18.910069      -514.5691 
   5   2.0000     -18.902997      -514.3767 
   6   2.0000     -18.892268      -514.0847 
   7   2.0000     -18.889184      -514.0008 
   8   2.0000     -18.881403      -513.7891 
   9   2.0000     -18.880198      -513.7563 
  10   2.0000     -18.875279      -513.6225 
  11   2.0000     -10.045467      -273.3510 
  12   2.0000     -10.045129      -273.3419 
  13   2.0000     -10.044426      -273.3227 
  14   2.0000     -10.043215      -273.2898 
  15   2.0000     -10.041970      -273.2559 
  16   2.0000     -10.041143      -273.2334 
  17   2.0000     -10.040554      -273.2174 
  18   2.0000     -10.037263      -273.1278 
  19   2.0000     -10.034007      -273.0392 
  20   2.0000     -10.033685      -273.0304 
  21   2.0000     -10.033401      -273.0227 
  22   2.0000     -10.033134      -273.0154 
  23   2.0000     -10.033070      -273.0137 
  24   2.0000     -10.031276      -272.9649 
  25   2.0000     -10.030132      -272.9338 
  26   2.0000     -10.023725      -272.7594 
  27   2.0000      -9.993375      -271.9336 
  28   2.0000      -9.990009      -271.8420 
  29   2.0000      -9.988564      -271.8027 
  30   2.0000      -9.987498      -271.7736 
  31   2.0000      -9.986038      -271.7339 
  32   2.0000      -9.985713      -271.7251 
  33   2.0000      -9.984104      -271.6813 
  34   2.0000      -9.983708      -271.6705 
  35   2.0000      -9.983148      -271.6553 
  36   2.0000      -9.982568      -271.6395 
  37   2.0000      -9.979788      -271.5638 
  38   2.0000      -9.978867      -271.5388 
  39   2.0000      -9.977856      -271.5113 
  40   2.0000      -9.976221      -271.4668 
  41   2.0000      -9.976064      -271.4625 
  42   2.0000      -1.011761       -27.5314 
  43   2.0000      -1.010897       -27.5079 
  44   2.0000      -1.002948       -27.2916 
  45   2.0000      -1.000726       -27.2311 
  46   2.0000      -0.983637       -26.7661 
  47   2.0000      -0.983367       -26.7588 
  48   2.0000      -0.971902       -26.4468 
  49   2.0000      -0.961679       -26.1686 
  50   2.0000      -0.952887       -25.9294 
  51   2.0000      -0.949995       -25.8507 
  52   2.0000      -0.949010       -25.8239 
  53   2.0000      -0.799439       -21.7538 
  54   2.0000      -0.795462       -21.6456 
  55   2.0000      -0.790793       -21.5186 
  56   2.0000      -0.762564       -20.7504 
  57   2.0000      -0.733848       -19.9690 
  58   2.0000      -0.718277       -19.5453 
  59   2.0000      -0.701974       -19.1017 
  60   2.0000      -0.700159       -19.0523 
  61   2.0000      -0.696780       -18.9603 
  62   2.0000      -0.694390       -18.8953 
  63   2.0000      -0.685826       -18.6623 
  64   2.0000      -0.673537       -18.3279 
  65   2.0000      -0.651913       -17.7394 
  66   2.0000      -0.649891       -17.6844 
  67   2.0000      -0.645170       -17.5560 
  68   2.0000      -0.640034       -17.4162 
  69   2.0000      -0.620532       -16.8855 
  70   2.0000      -0.617236       -16.7958 
  71   2.0000      -0.613416       -16.6919 
  72   2.0000      -0.582681       -15.8555 
  73   2.0000      -0.566778       -15.4228 
  74   2.0000      -0.558573       -15.1995 
  75   2.0000      -0.554375       -15.0853 
  76   2.0000      -0.545115       -14.8333 
  77   2.0000      -0.543351       -14.7853 
  78   2.0000      -0.541233       -14.7277 
  79   2.0000      -0.535571       -14.5736 
  80   2.0000      -0.507970       -13.8226 
  81   2.0000      -0.505519       -13.7559 
  82   2.0000      -0.500154       -13.6099 
  83   2.0000      -0.496436       -13.5087 
  84   2.0000      -0.481422       -13.1002 
  85   2.0000      -0.479971       -13.0607 
  86   2.0000      -0.475877       -12.9493 
  87   2.0000      -0.472704       -12.8629 
  88   2.0000      -0.467756       -12.7283 
  89   2.0000      -0.462530       -12.5861 
  90   2.0000      -0.458741       -12.4830 
  91   2.0000      -0.449839       -12.2408 
  92   2.0000      -0.444674       -12.1002 
  93   2.0000      -0.443447       -12.0668 
  94   2.0000      -0.439334       -11.9549 
  95   2.0000      -0.433657       -11.8004 
  96   2.0000      -0.429428       -11.6853 
  97   2.0000      -0.428899       -11.6709 
  98   2.0000      -0.425746       -11.5851 
  99   2.0000      -0.423575       -11.5261 
 100   2.0000      -0.418697       -11.3933 
 101   2.0000      -0.413681       -11.2568 
 102   2.0000      -0.404972       -11.0198 
 103   2.0000      -0.403849       -10.9893 
 104   2.0000      -0.401256       -10.9187 
 105   2.0000      -0.398148       -10.8342 
 106   2.0000      -0.397355       -10.8126 
 107   2.0000      -0.391565       -10.6550 
 108   2.0000      -0.388943       -10.5837 
 109   2.0000      -0.386259       -10.5107 
 110   2.0000      -0.385648       -10.4940 
 111   2.0000      -0.379605       -10.3296 
 112   2.0000      -0.377342       -10.2680 
 113   2.0000      -0.376714       -10.2509 
 114   2.0000      -0.374356       -10.1867 
 115   2.0000      -0.370279       -10.0758 
 116   2.0000      -0.366981        -9.9861 
 117   2.0000      -0.362752        -9.8710 
[...]
 
 sDSO            60.745           34.955           74.706  iso=      56.802
 sPSO           -38.305           -8.383          -43.164  iso=     -29.950
        ---------------  ---------------  ---------------
 Total           22.441           26.572           31.543  iso=      26.852

 Orientation: 
  X           0.8730331   -0.4541528   -0.1776469
  Y           0.1076748    0.5348122   -0.8380824
  Z           0.4756252    0.7125456    0.5158096

 --------------
 Nucleus  73H :
 --------------

Diamagnetic contribution to the shielding tensor (ppm) : 
            46.822         -0.415         6.870
            21.557         31.425        14.021
            41.006        -27.444        87.331

Paramagnetic contribution to the shielding tensor (ppm): 
           -22.202          0.686        -9.120
           -20.785         -4.994       -11.207
           -41.876         32.060       -56.189

Total shielding tensor (ppm): 
            24.621          0.272        -2.250
             0.772         26.431         2.813
            -0.870          4.616        31.143


 Diagonalized sT*s matrix:
 
 sDSO            56.865           46.238           62.476  iso=      55.193
 sPSO           -33.633          -20.603          -29.148  iso=     -27.795
        ---------------  ---------------  ---------------
 Total           23.232           25.634           33.328  iso=      27.398

 Orientation: 
  X          -0.6928343    0.7115555   -0.1169167
  Y           0.5896483    0.6523725    0.4761565
  Z          -0.4150850   -0.2609578    0.8715535

 --------------
 Nucleus  74H :
 --------------

Diamagnetic contribution to the shielding tensor (ppm) : 
            61.688         16.369         1.080
            11.688         59.782         3.111
            23.195        -29.468       109.929

Paramagnetic contribution to the shielding tensor (ppm): 
           -31.012        -18.802        -3.765
           -14.111        -32.758        -0.504
           -27.588         31.180       -84.228

Total shielding tensor (ppm): 
            30.676         -2.433        -2.685
            -2.423         27.023         2.607
            -4.394          1.712        25.700


 Diagonalized sT*s matrix:
 
 sDSO           111.183           72.052           48.164  iso=      77.133
 sPSO           -87.593          -46.199          -14.207  iso=     -49.333
        ---------------  ---------------  ---------------
 Total           23.590           25.853           33.957  iso=      27.800

 Orientation: 
  X          -0.3175489    0.5125572   -0.7977768
  Y           0.3326322    0.8480715    0.4124689
  Z          -0.8879856    0.1343872    0.4397972

 --------------
 Nucleus  75H :
 --------------

Diamagnetic contribution to the shielding tensor (ppm) : 
            38.071        -13.362        -8.586
            -3.234         17.531       -17.500
           -29.914         -7.016        19.975

Paramagnetic contribution to the shielding tensor (ppm): 
           -12.465         11.755        19.199
             1.778          5.026        12.193
            40.035          2.065        13.876

Total shielding tensor (ppm): 
            25.605         -1.607        10.614
            -1.457         22.557        -5.307
            10.120         -4.951        33.852


 Diagonalized sT*s matrix:
 
 sDSO            43.111           16.909           15.557  iso=      25.192
 sPSO           -25.265            5.041           26.660  iso=       2.146
        ---------------  ---------------  ---------------
 Total           17.846           21.950           42.217  iso=      27.338

 Orientation: 
  X          -0.7020977    0.4807939    0.5252581
  Y           0.4121696    0.8759027   -0.2508202
  Z           0.5806678   -0.0403952    0.8131379

 --------------
 Nucleus  76H :
 --------------

Diamagnetic contribution to the shielding tensor (ppm) : 
            20.450         33.580        14.743
           -22.158         54.112         8.095
            38.971          1.559        80.567

Paramagnetic contribution to the shielding tensor (ppm): 
            20.882        -35.240       -10.969
            21.352        -38.412        -9.177
           -35.370         -1.962       -56.335

Total shielding tensor (ppm): 
            41.332         -1.660         3.775
            -0.806         15.700        -1.083
             3.601         -0.403        24.232


 Diagonalized sT*s matrix:
 
 sDSO            55.393           66.674           33.063  iso=      51.710
 sPSO           -39.789          -43.175            9.099  iso=     -24.622
        ---------------  ---------------  ---------------
 Total           15.603           23.499           42.162  iso=      27.088

 Orientation: 
  X           0.0457687   -0.2074750    0.9771691
  Y           0.9971125   -0.0498487   -0.0572869
  Z           0.0605962    0.9769694    0.2045944

 --------------
 Nucleus  77H :
 --------------

Diamagnetic contribution to the shielding tensor (ppm) : 
            10.903         37.673         2.772
            -3.504         61.188         2.054
             0.766         -9.271        32.871

Paramagnetic contribution to the shielding tensor (ppm): 
            20.051        -25.301        -2.029
            15.610        -27.066        -1.026
            -1.486          8.698        -8.798

Total shielding tensor (ppm): 
            30.953         12.372         0.743
            12.106         34.122         1.028
            -0.720         -0.573        24.073


 Diagonalized sT*s matrix:
 
 sDSO            16.123           32.618           56.221  iso=      34.987
 sPSO             4.069           -8.537          -11.345  iso=      -5.271
        ---------------  ---------------  ---------------
 Total           20.192           24.082           44.875  iso=      29.716

 Orientation: 
  X           0.7513632    0.0441072    0.6584131
  Y          -0.6588306   -0.0063427    0.7522646
  Z           0.0373564   -0.9990067    0.0242935

 --------------
 Nucleus  78H :
 --------------

Diamagnetic contribution to the shielding tensor (ppm) : 
            38.667         18.224         3.441
             7.157         51.108         8.440
            45.073        -19.657        75.629

Paramagnetic contribution to the shielding tensor (ppm): 
           -10.974         -8.297         0.066
             2.801        -23.713        -6.088
           -39.507         24.741       -60.890

Total shielding tensor (ppm): 
            27.693          9.927         3.507
             9.958         27.396         2.352
             5.566          5.084        14.739


 Diagonalized sT*s matrix:
 
 sDSO            63.365           38.505           63.534  iso=      55.135
 sPSO           -50.074          -20.843          -24.660  iso=     -31.859
        ---------------  ---------------  ---------------
 Total           13.291           17.663           38.874  iso=      23.276

 Orientation: 
  X          -0.2338124    0.6737605    0.7009840
  Y          -0.0494045   -0.7282696    0.6835076
  Z           0.9710257    0.1251808    0.2035652

 --------------
 Nucleus  79H :
 --------------

Diamagnetic contribution to the shielding tensor (ppm) : 
             8.197         20.808        -4.486
           -14.715         46.926        -8.480
            27.839        -48.479        -2.423

Paramagnetic contribution to the shielding tensor (ppm): 
            18.225        -20.341         3.115
            17.121        -16.159         4.433
           -29.951         44.510        28.092

Total shielding tensor (ppm): 
            26.422          0.466        -1.371
             2.406         30.766        -4.047
            -2.112         -3.970        25.668


 Diagonalized sT*s matrix:
 
 sDSO            -6.859            6.805           52.753  iso=      17.566
 sPSO            30.073           19.253          -19.168  iso=      10.053
        ---------------  ---------------  ---------------
 Total           23.214           26.057           33.585  iso=      27.619

 Orientation: 
  X           0.2897157    0.9089458    0.2998039
  Y           0.4010146   -0.3996954    0.8242760
  Z           0.8690524   -0.1185800   -0.4802985

 --------------
 Nucleus  80H :
 --------------

Diamagnetic contribution to the shielding tensor (ppm) : 
            14.343         -0.398         1.411
           -21.685         46.711         1.466
             9.837        -20.198       -23.689

Paramagnetic contribution to the shielding tensor (ppm): 
            11.026         -0.410        -2.913
            19.160        -15.939         1.644
           -10.947         21.058        52.167

Total shielding tensor (ppm): 
            25.369         -0.807        -1.503
            -2.525         30.772         3.109
            -1.110          0.859        28.478


 Diagonalized sT*s matrix:
 
 sDSO            11.010            4.826           21.530  iso=      12.455
 sPSO            13.715           22.540           10.999  iso=      15.751
        ---------------  ---------------  ---------------
 Total           24.725           27.365           32.529  iso=      28.206

 Orientation: 
  X           0.9516671    0.0934151   -0.2925804
  Y           0.1944767    0.5540333    0.8094602
  Z           0.2377151   -0.8272368    0.5090883

 --------------
 Nucleus  81H :
 --------------

Diamagnetic contribution to the shielding tensor (ppm) : 
            20.544        -19.668         6.628
           -13.773         16.785       -13.277
            47.241        -66.707       -28.193

Paramagnetic contribution to the shielding tensor (ppm): 
             6.535         17.725        -4.715
             9.894         11.208         9.235
           -45.385         61.702        57.117

Total shielding tensor (ppm): 
            27.079         -1.943         1.913
            -3.879         27.993        -4.042
             1.856         -5.004        28.924


 Diagonalized sT*s matrix:
 
 sDSO           -27.664          -18.395           55.195  iso=       3.045
 sPSO            51.230           44.300          -20.669  iso=      24.953
        ---------------  ---------------  ---------------
 Total           23.565           25.905           34.526  iso=      27.999

 Orientation: 
  X          -0.3420414    0.8390312    0.4231245
  Y          -0.7727715    0.0050321   -0.6346643
  Z          -0.5346324   -0.5440600    0.6466582



--------------------------------
CHEMICAL SHIELDING SUMMARY (ppm)
--------------------------------


  Nucleus  Element    Isotropic     Anisotropy
  -------  -------  ------------   ------------
      0       C           24.668        122.639 
      1       C           44.749         92.198 
      2       C           25.866        119.622 
      3       C           75.675        128.680 
      4       C           38.860        194.970 
      5       C           76.807        133.124 
      6       C          148.469         27.595 
      7       C          136.303         25.240 
      8       C          140.293         28.132 
      9       C          142.989         41.178 
     10       C           46.460        180.824 
     11       C           70.041        158.676 
     12       C           29.488        119.529 
     13       C           32.193        122.567 
     14       C           66.653        144.857 
     15       C           56.718        147.763 
     16       C          113.526         68.980 
     17       C          111.766         70.560 
     23       C           92.309         31.289 
     24       C          103.384         40.257 
     25       C           43.367        168.485 
     26       C          110.764         57.736 
     28       C           73.428        155.116 
     29       C           28.798        119.940 
     30       C           32.110        120.420 
     31       C           64.261        145.986 
     32       C           64.726        172.463 
     33       C          122.942         74.892 
     34       C          124.376         78.334 
     35       C          123.870         78.082 
     41       C          124.721         75.997 
     42       H           25.652          9.542 
     43       H           26.779          7.933 
     44       H           29.947          6.962 
     45       H           29.151          5.621 
     46       H           30.536          4.607 
     47       H           28.944          2.364 
     48       H           29.147          5.348 
     49       H           28.588          8.781 
     50       H           24.406          9.949 
     51       H           24.694          2.459 
     52       H           24.661          5.784 
     53       H           28.426          5.917 
     54       H           28.021          4.097 
     55       H           27.929          6.458 
     56       H           27.530          3.935 
     57       H           25.266         12.290 
     58       H           26.569          2.691 
     59       H           27.018          5.643 
     60       H           27.882          5.359 
     61       H           27.420          6.460 
     62       H           29.383         13.611 
     63       H           25.199          9.107 
     64       H           25.248          4.911 
     65       H           24.801          8.630 
     66       H           28.280          7.982 
     67       H           28.554         11.534 
     68       H           27.576          7.357 
     69       H           27.527          9.392 
     70       H           27.839          6.568 
     71       H           28.098          9.867 
     72       H           26.852          7.036 
     73       H           27.398          8.895 
     74       H           27.800          9.235 
     75       H           27.338         22.319 
     76       H           27.088         22.611 
     77       H           29.716         22.739 
     78       H           23.276         23.397 
     79       H           27.619          8.949 
     80       H           28.206          6.484 
     81       H           27.999          9.791 


NMR shielding tensor and spin rotation calculation done in   3.3 sec 

Maximum memory used throughout the entire PROP-calculation: 370.8 MB
--------------------------------------------------------------------------
WARNING: There was an error initializing an OpenFabrics device.

  Local host:   c01b01n02
  Local device: mlx5_0
--------------------------------------------------------------------------
--------------------------------------------------------------------------
WARNING: There is at least one non-excluded one OpenFabrics device found,
but there are no active ports detected (or Open MPI was unable to use
them).  This is most certainly not what you wanted.  Check your
cables, subnet manager configuration, etc.  The openib BTL will be
ignored for this job.

  Local host: c01b01n02
--------------------------------------------------------------------------
[c01b01n02:1396785] 50 more processes have sent help message help-mpi-btl-openib.txt / error in device init
[c01b01n02:1396785] Set MCA parameter "orte_base_help_aggregate" to 0 to see all help / error messages
[c01b01n02:1396785] 8 more processes have sent help message help-mpi-btl-openib.txt / no active ports found

--------------------------------
SUGGESTED CITATIONS FOR THIS RUN
--------------------------------

Below you find a list of papers that are relevant to this ORCA run
We neither can nor want to force you to cite these papers, but we appreciate if you do
You receive ORCA, which is the product of decades of hard work by many enthusiastic individuals, for free
The only thing we kindly ask in return is that you cite our papers,
We deeply appreciate it, if you show your appreciation for ORCA by not just citing the generic ORCA reference.

Please note that relegating all ORCA citations to the supporting information does *not* help us.
SI sections are not indexed - citations you put there will not count into any citation statistics
But we need these citations in order to attract the funding resources that allow us to do what we are doing

Therefore, if you are a happy ORCA user, please consider citing a few of the papers listed below in the main body of your paper

In addition to the list printed below, the program has created the file nmr-conf-6.bibtex that contains the list in bibtex format
You can import this file easily into all common literature databanks and citation aid programs


List of essential papers. We consider these as the minimum necessary citations

  1. Neese, F.
     Software update: the ORCA program system, version 6.0
     WIRES Comput. Molec. Sci. 2025 15(1), e70019
     doi.org/10.1002/wcms.7019

List of papers to cite with high priority. The work reported in these papers was absolutely
necessary for this run to complete.
Our perspective: the developers of density functionals and basis sets usually get cited in chemistry papers
Good! But without the algorithms to do something with them, the functionals or basis sets would not do anything.
Hence, in our opinion, the algorithm design and method developments papers are equally worthy of getting cited

  1. Neese, F.
     An improvement of the resolution of the identity approximation for the formation of the Coulomb matrix
     J. Comp. Chem. 2003 24(14), 1740-1747
     doi.org/10.1002/jcc.10318
  2. Stoychev, G.L.; Auer, A.A.; Neese, F.
     Automatic Generation of Auxiliary Basis Sets
     J. Theo. Comp. Chem. 2017 13 , 554-562
     doi.org/10.1021/acs.jctc.6b01041
  3. Stoychev, G.L.; Auer, A.A.; Izsak, R.; Neese, F.
     Self-Consistent Field Calculation of Nuclear Magnetic Resonance Chemical Shielding Constants Using Gauge-Including Atomic Orbitals and Approximate Two-Electron Integrals
     J. Chem. Theory Comput. 2018 14(2), 619-637
     doi.org/10.1021/acs.jctc.7b01006
  4. Garcia-Rates, M.; Neese, F.
     Effect of the Solute Cavity on the Solvation Energy and its Derivatives within the Framework of the Gaussian Charge Scheme
     J. Comput. Chem. 2020 41 , 922-939
     doi.org/10.1002/jcc.26139
  5. Neese, F.
     The SHARK Integral Generation and Digestion System
     J. Comp. Chem. 2022 44(3), 381
     doi.org/10.1002/jcc.26942

List of suggested additional citations. These are papers that are important in the 'surrounding' of 
of this run, or papers that preceded the highly important papers. If you like your results we are grateful for a citation.

  1. Neese, F.
     The ORCA program system
     WIRES Comput. Molec. Sci. 2012 2(1), 73-78
     doi.org/10.1002/wcms.81
  2. Neese, F.
     Software update: the ORCA program system, version 4.0
     WIRES Comput. Molec. Sci. 2018 8(1), 1-6
     doi.org/10.1002/wcms.1327
  3. Neese, F.; Wennmohs, F.; Becker, U.; Riplinger, C.
     The ORCA quantum chemistry program package
     J. Chem. Phys. 2020 152(22), 224108
     doi.org/10.1063/5.0004608
  4. Neese, F.
     Software update: The ORCA program system—Version 5.0
     WIRES Comput. Molec. Sci. 2022 12(1), e1606
     doi.org/10.1002/wcms.1606

List of optional additional citations

  1. Neese, F.
     Approximate second-order SCF convergence for spin unrestricted wavefunctions
     Chem. Phys. Lett. 2000 325(1-3), 93-98
     doi.org/10.1016/s0009-2614(00)00662-x

Timings for individual modules:

Sum of individual times          ...      281.579 sec (=   4.693 min)
Startup calculation              ...       86.764 sec (=   1.446 min)  30.8 %
SCF iterations                   ...      114.168 sec (=   1.903 min)  40.5 %
Property integrals               ...       54.655 sec (=   0.911 min)  19.4 %
SCF Response                     ...       15.082 sec (=   0.251 min)   5.4 %
Property calculations            ...       10.910 sec (=   0.182 min)   3.9 %
                             ****ORCA TERMINATED NORMALLY****
TOTAL RUN TIME: 0 days 0 hours 5 minutes 11 seconds 372 msec
