
                                 *****************
                                 * O   R   C   A *
                                 *****************

                                            #,                                       
                                            ###                                      
                                            ####                                     
                                            #####                                    
                                            ######                                   
                                           ########,                                 
                                     ,,################,,,,,                         
                               ,,#################################,,                 
                          ,,##########################################,,             
                       ,#########################################, ''#####,          
                    ,#############################################,,   '####,        
                  ,##################################################,,,,####,       
                ,###########''''           ''''###############################       
              ,#####''   ,,,,##########,,,,          '''####'''          '####       
            ,##' ,,,,###########################,,,                        '##       
           ' ,,###''''                  '''############,,,                           
         ,,##''                                '''############,,,,        ,,,,,,###''
      ,#''                                            '''#######################'''  
     '                                                          ''''####''''         
             ,#######,   #######,   ,#######,      ##                                
            ,#'     '#,  ##    ##  ,#'     '#,    #''#        ,####,    ,#,          
            ##       ##  ##   ,#'  ##            #'  '#       #'       ,# #          
            ##       ##  #######   ##           ,######,      #####,      #          
            '#,     ,#'  ##    ##  '#,     ,#' ,#      #,     #,   #      #          
             '#######'   ##     ##  '#######'  #'      '#     '####' #    #          



                #########################################################
                #                        -***-                          #
                #          Department of theory and spectroscopy        #
                #                                                       #
                #                      Frank Neese                      #
                #                                                       #
                #     Directorship, Architecture, Infrastructure        #
                #                    SHARK, DRIVERS                     #
                #        Core code/Algorithms in most modules           #
                #                                                       #
                #        Max Planck Institute fuer Kohlenforschung      #
                #                Kaiser Wilhelm Platz 1                 #
                #                 D-45470 Muelheim/Ruhr                 #
                #                      Germany                          #
                #                                                       #
                #                  All rights reserved                  #
                #                        -***-                          #
                #########################################################


                         Program Version 6.1.0-f.0  -   RELEASE   -


 With contributions from (in alphabetic order):
[Max-Planck-Institut fuer Kohlenforschung]                               
  Daniel Aravena         : Magnetic Suceptibility                        
  Michael Atanasov       : Ab Initio Ligand Field Theory (pilot matlab implementation)
  Alexander A. Auer      : GIAO ZORA, VPT2 properties, NMR spectrum      
  Ute Becker             : All parallelization in ORCA, NUMFREQ, NUMCALC 
  Giovanni Bistoni       : ED, misc. LED, open-shell LED, HFLD           
  Dmytro Bykov           : pre 5.0 version of the SCF Hessian            
  Marcos Casanova-Páez   : Triplet and SCS-CIS(D). UHF-(DLPNO)-IP/EA/STEOM-CCSD. UHF-CVS-IP/STEOM-CCSD   
  Vijay G. Chilkuri      : MRCI spin determinant printing, contributions to CSF-ICE 
  Pauline Colinet        : FMM embedding                                 
  Dipayan Datta          : RHF DLPNO-CCSD density                        
  Achintya Kumar Dutta   : EOM-CC, STEOM-CC                              
  Nicolas Foglia         : Exact transition moments, OPA infrastructure, MCD improvements    
  Dmitry Ganyushin       : Spin-Orbit,Spin-Spin,Magnetic field MRCI      
  Miquel Garcia-Rates    : C-PCM and meta-GGA Hessian, CCSD/C-PCM, Gaussian charge scheme 
  Tiago L. C. Gouveia    : GS-ROHF, GS-ROCIS                             
  Yang Guo               : DLPNO-NEVPT2, F12-NEVPT2, CIM, IAO-localization        
  Andreas Hansen         : Spin unrestricted coupled pair/coupled cluster methods 
  Ingolf Harden          : AUTO-CI MPn and infrastructure                
  Benjamin Helmich-Paris : MC-RPA, TRAH-(SCF,CASSCF), AVAS, COSX integrals, SCF dyn. polar., MC-PDFT, srDFT 
  Lee Huntington         : MR-EOM, pCC                                   
  Robert Izsak           : Overlap fitted RIJCOSX, COSX-SCS-MP3, EOM     
  Riya Kayal             : Wick's Theorem for AUTO-CI, AUTO-CI UHF-CCSDT 
  Emily Kempfer          : AUTO-CI RHF CISDT and CCSDT, approximate NEVPT4
  Christian Kollmar      : KDIIS, OOCD, Brueckner-CCSD(T), CCSD density, CASPT2, CASPT2-K, improved NEVPT2 
  Axel Koslowski         : Symmetry handling                             
  Simone Kossmann        : meta-GGA functionals, TD-DFT gradient, OOMP2, (MP2 Hessian; deprecated post 5.0) 
  Lucas Lang             : DCDCAS, Hyperfine gauge corrections, ICE-SOC+SSC
  Marvin Lechner         : AUTO-CI (C++ implementation), FIC-MRCC        
  Spencer Leger          : CASSCF response                               
  Dagmar Lenk            : GEPOL surface, SMD, ORCA-2-JSON               
  Dimitrios Liakos       : Extrapolation schemes; Compound Job, Property file
  Dimitrios Manganas     : Further ROCIS development; embedding schemes. LFT, Crystal Embedding 
  Dimitrios Pantazis     : SARC Basis sets                               
  Anastasios Papadopoulos: AUTO-CI, single reference methods and gradients 
  Taras Petrenko         : pre 6.0 DFT Hessian and TD-DFT gradient,  ECA, NRVS 
  Petra Pikulova         : Analytic Raman intensities                    
  Peter Pinski           : DLPNO-MP2, DLPNO-MP2 Gradient                 
  Shashank Vittal Rao    : ES-AILFT, MagRelax                            
  Christoph Reimann      : Effective Core Potentials                     
  Marius Retegan         : Local ZFS, SOC                                
  Christoph Riplinger    : Optimizer, TS searches, QM/MM, DLPNO-CCSD(T), (RO)-DLPNO pert. Triples 
  Michael Roemelt        : Original ROCIS implementation, recursive CI coupling coefficients
  Masaaki Saitow         : Open-shell DLPNO-CCSD energy and density      
  Barbara Sandhoefer     : DKH picture change effects                    
  Yorick L. A. Schmerwitz: GMF and freeze-and-release deltaSCF, NEB S-IDPP initial path                    
  Kantharuban Sivalingam : CASSCF convergence/infrastructure, NEVPT2, NEVPT3, NEVPT4(SD), FIC-MRCI and CEPA variants
  Bernardo de Souza      : ESD, SOC TD-DFT                               
  Georgi L. Stoychev     : AutoAux, RI-MP2 NMR, DLPNO-MP2 response, X2C  
  Van Anh Tran           : RI-MP2 g-tensors                              
  Willem Van den Heuvel  : Paramagnetic NMR                              
  Zikuan Wang            : NOTCH, Electric field optimization            
  Frank Wennmohs         : Technical directorship and infrastructure     
  Hang Xu                : AUTO-CI-Response properties                   
                                                                         
[FACCTs GmbH]                                                            
  Markus Bursch, Nicolas Foglia, Miquel Garcia-Rates, Ingolf Harden, Hagen Neugebauer, Anastasios Papadopoulos, 
  Christoph Riplinger, Bernardo de Souza, Georgi L. Stoychev                                                    
                                                                 
  APM, various basis sets, CI-OPT, improved COSX, DLPNO-Multilevel,           
  DOCKER, DRACO, updates on ESD, Fragmentator, GOAT, IRC, LR-CPCM, L-BFGS, MBIS, meta-GGA TD-DFT gradient, ML-optimized integration grids, 
  MM, NACMEs, nearIR, NEB, NEB-TS, NL-DFT gradient (VV10), 2- and 3-layer-ONIOM, interface openCOSMO-RS, QMMM,   
  Crystal-QMMM, RESP, rigid body optimization, SF, symmetry and pop. for TD-DFT, various functionals, SOLVATOR                                   
                                                                         
[Other institutions]                                                     
  V. Asgeirsson          : NEB                                           
  Christoph Bannwarth    : sTDA-DFT, sTD-DFT, PBEh-3c, B97-3c, D3        
  Giovanni Bistoni       : ETS/NOCV, ADLD/ADEX, COVALED                  
  Martin Brehm           : Molecular dynamics                            
  Ronald Cardenas        : ETS/NOCV                                      
  Martina Colucci        : COVALED                                       
  Sebastian Ehlert       : rSCAN, r2SCAN, r2SCAN-3c, D4, dhf basis sets  
  Marvin Friede          : D4 for Fr, Ra, Ac-Lr                          
  Lars Goerigk           : TD-DFT with DH, B97 family of functionals     
  Stefan Grimme          : VdW corrections, initial TS optimization, DFT functionals, gCP, sTDA/sTD-DF 
  Waldemar Hujo          : DFT-NL                                        
  H. Jonsson             : NEB                                           
  Holger Kruse           : gCP                                           
  Marcel Mueller         : wB97X-3c, vDZP basis set                      
  Hagen Neugebauer       : wr2SCAN, Native XTB                           
  Gianluca Regni         : ADLD/ADEX                                     
  Tobias Risthaus        : pre 6.0 range-separated hybrid DFT and stability analysis
  Lukas Wittmann         : regularized MP2, r2SCAN double-hybrids, wr2SCAN        
                                                                         
We gratefully acknowledge several colleagues who have allowed us to      
interface, adapt or use parts of their codes:                            
  Ed Valeev, F. Pavosevic, A. Kumar             : LibInt (2-el integral package), F12 methods 
  Garnet Chan, S. Sharma, J. Yang, R. Olivares  : DMRG                   
  Ulf Ekstrom                                   : XCFun DFT Library      
  Mihaly Kallay                                 : mrcc  (arbitrary order and MRCC methods)
  Frank Weinhold                                : gennbo (NPA and NBO analysis)           
  Simon Mueller                                 : openCOSMO-RS                            
  Christopher J. Cramer and Donald G. Truhlar   : smd solvation model                     
  S Lehtola, MJT Oliveira, MAL Marques          : LibXC Library                           
  Liviu Ungur et al                             : ANISO software                          


 Your calculation uses the libint2 library for the computation of 2-el integrals
 For citations please refer to: http://libint.valeyev.net

 Your ORCA version has been built with support for libXC version: 7.0.0
 For citations please refer to: https://libxc.gitlab.io

 This ORCA versions uses:
   CBLAS   interface :  Fast vector & matrix operations
   LAPACKE interface :  Fast linear algebra routines
   SCALAPACK package :  Parallel linear algebra routines
   Shared memory     :  Shared parallel matrices
   BLAS/LAPACK       :  OpenBLAS 0.3.29  USE64BITINT DYNAMIC_ARCH NO_AFFINITY Cooperlake SINGLE_THREADED
        Core in use  :  Cooperlake
   Copyright (c) 2011-2014, The OpenBLAS Project


  ***********************************
  * Starting time: Sat Feb 28 19:46:25 2026
  * Host name:     c04b01n02
  * Process ID:    3353008
  * Working dir.:  /lustre1/jiangy/jiangy_liuxy/NMR/B9D7C2-SSSR
  ***********************************

NOTE: MaxCore=6000 MB was set to SCF,MP2,MDCI,CIPSI,MRCI,RASCI and CIS
      => If you want to overwrite this, your respective input block should be placed after the MaxCore statement


***************************************
The coordinates will be read from file: conf-13.xyz
***************************************


Your calculation utilizes the atom-pairwise dispersion correction
based on EEQ partial charges (D4)


Warning: RI is on but no J-basis has been assigned. Assigning Def2/J (nothing to worry about!)
================================================================================

----- Orbital basis set information -----
Your calculation utilizes the basis: def2-TZVP
   F. Weigend and R. Ahlrichs, Phys. Chem. Chem. Phys. 7, 3297 (2005).

----- AuxJ basis set information -----
Your calculation utilizes the auxiliary basis: def2/J
   H-Rn: F. Weigend, Phys. Chem. Chem. Phys. 8, 1057 (2006).
   Fr-Lr: K. Eichkorn, F. Weigend, O. Treutler, R. Ahlrichs; Theor. Chem. Acc. 97, 119 (1997).

================================================================================
                                        WARNINGS
                       Please study these warnings very carefully!
================================================================================


WARNING: Geometry Optimization
  ===> : Switching off AutoStart
         For restart on a previous wavefunction, please use MOREAD

================================================================================
                                       INPUT FILE
================================================================================
NAME = opt-conf-13.inp
|  1> ! B3LYP OPT FREQ DEF2-TZVP D4 CPCM(Methanol) 
|  2> ! TightOpt
|  3> %pal nprocs 64 end
|  4> %maxcore 6000
|  5> 
|  6> %cpcm
|  7> end
|  8> 
|  9> %freq
| 10>    Temp 298.15
| 11> end
| 12> 
| 13> * xyzfile 0 1 conf-13.xyz
| 14> 
| 15> 
| 16>                          ****END OF INPUT****
================================================================================

                       *****************************
                       * Geometry Optimization Run *
                       *****************************

Geometry optimization settings:
Update method            Update   .... BFGS
Choice of coordinates    CoordSys .... (2022) Redundant Internals
Initial Hessian          InHess   .... Almloef's Model
Max. no of cycles        MaxIter  .... 246

Convergence Tolerances:
Energy Change            TolE     ....  1.0000e-06 Eh
Max. Gradient            TolMAXG  ....  1.0000e-04 Eh/bohr
RMS Gradient             TolRMSG  ....  3.0000e-05 Eh/bohr
Max. Displacement        TolMAXD  ....  1.0000e-03 bohr
RMS Displacement         TolRMSD  ....  6.0000e-04 bohr
Strict Convergence                .... False

------------------------------------------------------------------------------
                        ORCA OPTIMIZATION COORDINATE SETUP
------------------------------------------------------------------------------

The optimization will be done in redundant internal coordinates (2022)
Making redundant internal coordinates   ...  (2022 redundants) done
Evaluating the initial hessian          ...  (Almloef) done
Evaluating the coordinates              ...  done
Calculating the B-matrix                .... done
Calculating the G-matrix                .... done
The number of degrees of freedom        ....  406

    -----------------------------------------------------------------
                    Redundant Internal Coordinates


    -----------------------------------------------------------------
         Definition                    Initial Value    Approx d2E/dq
    -----------------------------------------------------------------
      1. B(C   1,C   0)                  1.4036         0.594393   
      2. B(C   2,C   1)                  1.4016         0.598743   
      3. B(C   3,C   2)                  1.3901         0.624664   
      4. B(C   4,C   3)                  1.3841         0.638477   
      5. B(C   5,C   4)                  1.3872         0.631356   
      6. B(C   5,C   0)                  1.3867         0.632438   
      7. B(C   6,C   4)                  1.5033         0.412100   
      8. B(C   7,C   6)                  1.5408         0.359057   
      9. B(C   8,C   7)                  1.5491         0.348299   
     10. B(C   9,C   8)                  1.5383         0.362333   
     11. B(C  10,C   9)                  1.5034         0.411944   
     12. B(C  11,C  10)                  1.3938         0.616079   
     13. B(C  12,C  11)                  1.3820         0.643441   
     14. B(C  13,C  12)                  1.4042         0.593085   
     15. B(C  14,C  13)                  1.3827         0.641840   
     16. B(C  15,C  10)                  1.3865         0.632801   
     17. B(C  15,C  14)                  1.3863         0.633309   
     18. B(C  16,C   7)                  1.5344         0.367533   
     19. B(C  17,C   8)                  1.5410         0.358754   
     20. B(O  18,C   2)                  1.3684         0.605889   
     21. B(O  19,C   0)                  1.3606         0.623308   
     22. B(O  20,C   1)                  1.3752         0.590816   
     23. B(O  21,C  13)                  1.3623         0.619495   
     24. B(O  22,C  12)                  1.3808         0.578798   
     25. B(C  23,O  20)                  1.4228         0.496054   
     26. B(C  24,C  23)                  1.5497         0.347547   
     27. B(C  25,C  24)                  1.5101         0.401932   
     28. B(C  26,C  23)                  1.5319         0.371023   
     29. B(O  27,C  26)                  1.4022         0.535007   
     30. B(C  28,C  25)                  1.3899         0.624926   
     31. B(C  29,C  28)                  1.3826         0.642064   
     32. B(C  30,C  29)                  1.4033         0.594946   
     33. B(C  31,C  30)                  1.3825         0.642364   
     34. B(C  32,C  31)                  1.3839         0.638905   
     35. B(C  32,C  25)                  1.3866         0.632586   
     36. B(C  33,O  19)                  1.4069         0.525903   
     37. B(C  34,O  18)                  1.4069         0.525980   
     38. B(C  35,O  22)                  1.4050         0.529569   
     39. B(O  36,C  24)                  1.4102         0.519612   
     40. B(O  37,C  16)                  1.4080         0.523847   
     41. B(O  38,C  17)                  1.3996         0.540132   
     42. B(O  39,C  29)                  1.3734         0.594705   
     43. B(O  40,C  30)                  1.3656         0.612047   
     44. B(C  41,O  39)                  1.4095         0.520857   
     45. B(H  42,C   3)                  1.0779         0.376494   
     46. B(H  43,C   5)                  1.0780         0.376372   
     47. B(H  44,C   6)                  1.0920         0.357412   
     48. B(H  45,C   6)                  1.0911         0.358585   
     49. B(H  46,C   7)                  1.0956         0.352774   
     50. B(H  47,C   8)                  1.0950         0.353545   
     51. B(H  48,C   9)                  1.0944         0.354277   
     52. B(H  49,C   9)                  1.0904         0.359545   
     53. B(H  50,C  11)                  1.0778         0.376584   
     54. B(H  51,C  14)                  1.0782         0.376120   
     55. B(H  52,C  15)                  1.0800         0.373608   
     56. B(H  53,C  16)                  1.0931         0.355978   
     57. B(H  54,C  16)                  1.0981         0.349556   
     58. B(H  55,C  17)                  1.1023         0.344148   
     59. B(H  56,C  17)                  1.0951         0.353450   
     60. B(H  57,O  21)                  0.9666         0.507524   
     61. B(H  57,O  22)                  2.1205         0.010000   
     62. B(H  58,C  23)                  1.0960         0.352214   
     63. B(H  59,C  24)                  1.0943         0.354433   
     64. B(H  60,C  26)                  1.0991         0.348296   
     65. B(H  61,C  26)                  1.0913         0.358441   
     66. B(H  62,O  20)                  2.4400         0.010000   
     67. B(H  62,O  27)                  0.9655         0.509580   
     68. B(H  63,C  28)                  1.0774         0.377094   
     69. B(H  64,C  31)                  1.0782         0.376096   
     70. B(H  65,C  32)                  1.0804         0.372990   
     71. B(H  66,C  33)                  1.0945         0.354192   
     72. B(H  67,C  33)                  1.0894         0.360913   
     73. B(H  68,C  33)                  1.0946         0.354031   
     74. B(H  69,C  34)                  1.0941         0.354760   
     75. B(H  70,C  34)                  1.0890         0.361428   
     76. B(H  71,H  64)                  4.4279         0.010000   
     77. B(H  71,C  34)                  1.0948         0.353759   
     78. B(H  72,C  35)                  1.0890         0.361478   
     79. B(H  73,H  43)                  2.7624         0.010000   
     80. B(H  73,C  35)                  1.0952         0.353336   
     81. B(H  74,C  35)                  1.0942         0.354628   
     82. B(H  75,O  36)                  0.9645         0.511508   
     83. B(H  76,O  40)                  1.9520         0.013594   
     84. B(H  76,O  37)                  0.9705         0.500257   
     85. B(H  77,O  37)                  1.8911         0.017000   
     86. B(H  77,O  38)                  0.9717         0.498161   
     87. B(H  78,O  39)                  2.1180         0.010000   
     88. B(H  78,O  40)                  0.9702         0.500885   
     89. B(H  79,C  41)                  1.0941         0.354709   
     90. B(H  80,H  66)                  2.4834         0.010000   
     91. B(H  80,C  41)                  1.0924         0.356932   
     92. B(H  81,O  21)                  2.5962         0.010000   
     93. B(H  81,C  41)                  1.0883         0.362330   
     94. A(C   1,C   0,O  19)          115.8268         0.428384   
     95. A(C   5,C   0,O  19)          124.2779         0.433183   
     96. A(C   1,C   0,C   5)          119.8942         0.432328   
     97. A(C   0,C   1,O  20)          117.5913         0.424296   
     98. A(C   0,C   1,C   2)          119.1429         0.428099   
     99. A(C   2,C   1,O  20)          123.0259         0.424850   
    100. A(C   3,C   2,O  18)          123.7327         0.430026   
    101. A(C   1,C   2,C   3)          119.8923         0.431933   
    102. A(C   1,C   2,O  18)          116.3740         0.426770   
    103. A(C   4,C   3,H  42)          118.9533         0.357359   
    104. A(C   2,C   3,H  42)          120.2853         0.356034   
    105. A(C   2,C   3,C   4)          120.7539         0.436957   
    106. A(C   5,C   4,C   6)          119.0081         0.404890   
    107. A(C   3,C   4,C   6)          121.5055         0.405693   
    108. A(C   3,C   4,C   5)          119.4817         0.437797   
    109. A(C   4,C   5,H  43)          118.7009         0.356660   
    110. A(C   0,C   5,H  43)          120.4976         0.356763   
    111. A(C   0,C   5,C   4)          120.7975         0.437048   
    112. A(C   4,C   6,H  44)          108.5415         0.329197   
    113. A(C   7,C   6,H  45)          109.7992         0.321995   
    114. A(C   4,C   6,C   7)          110.9176         0.367009   
    115. A(H  44,C   6,H  45)          107.8607         0.290305   
    116. A(C   4,C   6,H  45)          110.5256         0.329375   
    117. A(C   7,C   6,H  44)          109.1231         0.321822   
    118. A(C   6,C   7,C  16)          108.3161         0.359900   
    119. A(C   8,C   7,C  16)          115.3769         0.358041   
    120. A(C  16,C   7,H  46)          106.7330         0.322364   
    121. A(C   8,C   7,H  46)          107.0025         0.319542   
    122. A(C   6,C   7,H  46)          107.1804         0.321135   
    123. A(C   6,C   7,C   8)          111.8059         0.356624   
    124. A(C   7,C   8,C  17)          114.8990         0.356573   
    125. A(C  17,C   8,H  47)          105.5013         0.321205   
    126. A(C   7,C   8,C   9)          111.6299         0.357174   
    127. A(C   9,C   8,H  47)          108.2304         0.321727   
    128. A(C   7,C   8,H  47)          107.0796         0.319656   
    129. A(C   9,C   8,C  17)          109.1108         0.358976   
    130. A(H  48,C   9,H  49)          107.0473         0.290026   
    131. A(C  10,C   9,H  48)          109.0685         0.328698   
    132. A(C  10,C   9,H  49)          108.9971         0.329500   
    133. A(C   8,C   9,C  10)          114.6464         0.367557   
    134. A(C   8,C   9,H  48)          107.8319         0.321836   
    135. A(C   8,C   9,H  49)          108.9826         0.322616   
    136. A(C   9,C  10,C  11)          121.2644         0.403117   
    137. A(C  11,C  10,C  15)          118.5717         0.435168   
    138. A(C   9,C  10,C  15)          120.1576         0.405027   
    139. A(C  10,C  11,C  12)          120.8658         0.436477   
    140. A(C  10,C  11,H  50)          119.1716         0.355214   
    141. A(C  12,C  11,H  50)          119.9626         0.357845   
    142. A(C  11,C  12,C  13)          119.9737         0.433499   
    143. A(C  13,C  12,O  22)          114.5027         0.422574   
    144. A(C  11,C  12,O  22)          125.5236         0.428783   
    145. A(C  12,C  13,O  21)          120.3844         0.427744   
    146. A(C  12,C  13,C  14)          119.2403         0.433304   
    147. A(C  14,C  13,O  21)          120.3752         0.433855   
    148. A(C  13,C  14,H  51)          118.6323         0.357618   
    149. A(C  13,C  14,C  15)          120.2067         0.438456   
    150. A(C  15,C  14,H  51)          121.1607         0.356806   
    151. A(C  14,C  15,H  52)          119.4169         0.356400   
    152. A(C  10,C  15,H  52)          119.4483         0.356352   
    153. A(C  10,C  15,C  14)          121.1272         0.437336   
    154. A(O  37,C  16,H  54)          110.2783         0.339253   
    155. A(C   7,C  16,H  54)          107.5807         0.321880   
    156. A(O  37,C  16,H  53)          106.2646         0.340286   
    157. A(C   7,C  16,H  53)          111.0930         0.322842   
    158. A(C   7,C  16,O  37)          113.7009         0.381650   
    159. A(H  53,C  16,H  54)          107.7967         0.288965   
    160. A(O  38,C  17,H  56)          105.2541         0.341626   
    161. A(C   8,C  17,O  38)          115.0486         0.382077   
    162. A(H  55,C  17,H  56)          107.3856         0.287939   
    163. A(C   8,C  17,H  56)          108.7109         0.321191   
    164. A(O  38,C  17,H  55)          111.0173         0.340105   
    165. A(C   8,C  17,H  55)          109.0812         0.319794   
    166. A(C   2,O  18,C  34)          118.9162         0.414309   
    167. A(C   0,O  19,C  33)          117.9218         0.416392   
    168. A(C   1,O  20,C  23)          118.7958         0.408200   
    169. A(C  13,O  21,H  57)          107.7291         0.368529   
    170. A(C  12,O  22,C  35)          118.1839         0.411455   
    171. A(C  26,C  23,H  58)          108.5805         0.322779   
    172. A(C  24,C  23,H  58)          109.1813         0.319346   
    173. A(O  20,C  23,H  58)          110.5269         0.336608   
    174. A(C  24,C  23,C  26)          110.9601         0.358485   
    175. A(O  20,C  23,C  26)          105.8179         0.378680   
    176. A(O  20,C  23,C  24)          111.6995         0.374426   
    177. A(C  23,C  24,O  36)          110.3490         0.377439   
    178. A(O  36,C  24,H  59)          105.2353         0.339578   
    179. A(C  25,C  24,H  59)          109.7395         0.327391   
    180. A(C  23,C  24,H  59)          108.3410         0.319674   
    181. A(C  25,C  24,O  36)          112.5287         0.387088   
    182. A(C  23,C  24,C  25)          110.4455         0.363410   
    183. A(C  28,C  25,C  32)          119.3814         0.436261   
    184. A(C  24,C  25,C  32)          120.8605         0.403248   
    185. A(C  24,C  25,C  28)          119.7577         0.402382   
    186. A(O  27,C  26,H  61)          107.1239         0.341883   
    187. A(H  60,C  26,H  61)          109.2715         0.289113   
    188. A(C  23,C  26,H  61)          109.9149         0.323709   
    189. A(O  27,C  26,H  60)          110.8233         0.340245   
    190. A(C  23,C  26,H  60)          108.2521         0.322188   
    191. A(C  23,C  26,O  27)          111.4386         0.383679   
    192. A(C  26,O  27,H  62)          106.9778         0.359652   
    193. A(C  29,C  28,H  63)          120.6205         0.357797   
    194. A(C  25,C  28,H  63)          118.8311         0.356156   
    195. A(C  25,C  28,C  29)          120.5385         0.437432   
    196. A(C  30,C  29,O  39)          114.7390         0.424865   
    197. A(C  28,C  29,O  39)          125.6700         0.430709   
    198. A(C  28,C  29,C  30)          119.5906         0.433576   
    199. A(C  31,C  30,O  40)          120.2134         0.432976   
    200. A(C  29,C  30,O  40)          120.0296         0.427057   
    201. A(C  29,C  30,C  31)          119.7540         0.433612   
    202. A(C  32,C  31,H  64)          120.8741         0.357336   
    203. A(C  30,C  31,H  64)          119.0269         0.357664   
    204. A(C  30,C  31,C  32)          120.0970         0.439218   
    205. A(C  31,C  32,H  65)          118.8207         0.356833   
    206. A(C  25,C  32,H  65)          120.6298         0.356231   
    207. A(C  25,C  32,C  31)          120.5470         0.438004   
    208. A(H  67,C  33,H  68)          108.9384         0.290167   
    209. A(H  66,C  33,H  68)          109.2081         0.289313   
    210. A(O  19,C  33,H  68)          111.5225         0.340197   
    211. A(H  66,C  33,H  67)          109.5773         0.290188   
    212. A(O  19,C  33,H  67)          105.7121         0.341294   
    213. A(O  19,C  33,H  66)          111.7890         0.340223   
    214. A(H  69,C  34,H  71)          109.5153         0.289351   
    215. A(O  18,C  34,H  71)          111.6342         0.340162   
    216. A(H  69,C  34,H  70)          109.3155         0.290326   
    217. A(O  18,C  34,H  70)          105.3354         0.341384   
    218. A(O  18,C  34,H  69)          111.5286         0.340323   
    219. A(H  70,C  34,H  71)          109.4042         0.290197   
    220. A(H  73,C  35,H  74)          109.4163         0.289280   
    221. A(H  72,C  35,H  74)          109.3275         0.290315   
    222. A(O  22,C  35,H  74)          111.4727         0.340689   
    223. A(H  72,C  35,H  73)          109.2383         0.290149   
    224. A(O  22,C  35,H  73)          111.5740         0.340481   
    225. A(O  22,C  35,H  72)          105.7168         0.341781   
    226. A(C  24,O  36,H  75)          108.6806         0.358099   
    227. A(C  16,O  37,H  76)          107.9258         0.357241   
    228. A(C  17,O  38,H  77)          108.7533         0.358849   
    229. A(C  29,O  39,C  41)          118.2290         0.412224   
    230. A(C  30,O  40,H  78)          108.0447         0.366935   
    231. A(H  80,C  41,H  81)          109.0238         0.290718   
    232. A(H  79,C  41,H  81)          110.1189         0.290433   
    233. A(O  39,C  41,H  81)          105.5135         0.340968   
    234. A(H  79,C  41,H  80)          109.4105         0.289750   
    235. A(O  39,C  41,H  80)          111.7421         0.340113   
    236. A(O  39,C  41,H  79)          110.9551         0.339758   
    237. D(O  20,C   1,C   0,O  19)     -3.2486         0.024332   
    238. D(C   2,C   1,C   0,O  19)   -177.7936         0.024332   
    239. D(C   2,C   1,C   0,C   5)      1.8415         0.024332   
    240. D(O  20,C   1,C   0,C   5)    176.3865         0.024332   
    241. D(O  18,C   2,C   1,C   0)    177.3347         0.024708   
    242. D(C   3,C   2,C   1,C   0)     -2.3260         0.024708   
    243. D(C   3,C   2,C   1,O  20)   -176.5586         0.024708   
    244. D(O  18,C   2,C   1,O  20)      3.1021         0.024708   
    245. D(C   4,C   3,C   2,C   1)      1.3155         0.027026   
    246. D(H  42,C   3,C   2,O  18)      0.6766         0.027026   
    247. D(C   4,C   3,C   2,O  18)   -178.3189         0.027026   
    248. D(H  42,C   3,C   2,C   1)   -179.6889         0.027026   
    249. D(C   6,C   4,C   3,H  42)      1.9928         0.028314   
    250. D(C   5,C   4,C   3,H  42)   -178.7977         0.028314   
    251. D(C   5,C   4,C   3,C   2)      0.2110         0.028314   
    252. D(C   6,C   4,C   3,C   2)   -178.9985         0.028314   
    253. D(H  43,C   5,C   4,C   6)     -0.7423         0.027645   
    254. D(H  43,C   5,C   4,C   3)   -179.9717         0.027645   
    255. D(C   0,C   5,C   4,C   3)     -0.7051         0.027645   
    256. D(C   4,C   5,C   0,O  19)    179.2695         0.027746   
    257. D(H  43,C   5,C   0,C   1)    178.9203         0.027746   
    258. D(H  43,C   5,C   0,O  19)     -1.4772         0.027746   
    259. D(C   0,C   5,C   4,C   6)    178.5242         0.027645   
    260. D(C   4,C   5,C   0,C   1)     -0.3331         0.027746   
    261. D(H  45,C   6,C   4,C   3)    -15.5128         0.012573   
    262. D(H  44,C   6,C   4,C   5)     47.1750         0.012573   
    263. D(H  44,C   6,C   4,C   3)   -133.6118         0.012573   
    264. D(C   7,C   6,C   4,C   5)    -72.6999         0.012573   
    265. D(C   7,C   6,C   4,C   3)    106.5133         0.012573   
    266. D(C   8,C   7,C   6,H  44)     39.0799         0.010347   
    267. D(C   8,C   7,C   6,C   4)    158.6072         0.010347   
    268. D(C  16,C   7,C   6,H  45)     49.2756         0.010347   
    269. D(C  16,C   7,C   6,H  44)    167.2994         0.010347   
    270. D(C   8,C   7,C   6,H  45)    -78.9439         0.010347   
    271. D(C  16,C   7,C   6,C   4)    -73.1734         0.010347   
    272. D(C  17,C   8,C   7,H  46)   -149.7262         0.010000   
    273. D(C  17,C   8,C   7,C  16)    -31.1539         0.010000   
    274. D(C  17,C   8,C   7,C   6)     93.2072         0.010000   
    275. D(C   9,C   8,C   7,C  16)     93.7599         0.010000   
    276. D(C   9,C   8,C   7,H  46)    -24.8125         0.010000   
    277. D(C   9,C   8,C   7,C   6)   -141.8790         0.010000   
    278. D(H  48,C   9,C   8,C  17)    -58.9229         0.010523   
    279. D(H  48,C   9,C   8,C   7)    172.9997         0.010523   
    280. D(C  10,C   9,C   8,H  47)    -66.2775         0.010523   
    281. D(C  10,C   9,C   8,C  17)    179.3970         0.010523   
    282. D(H  48,C   9,C   8,H  47)     55.4026         0.010523   
    283. D(C  10,C   9,C   8,C   7)     51.3196         0.010523   
    284. D(C  15,C  10,C   9,H  48)    103.9475         0.012564   
    285. D(C  15,C  10,C   9,C   8)   -135.0499         0.012564   
    286. D(C  11,C  10,C   9,H  49)    168.3132         0.012564   
    287. D(C  11,C  10,C   9,H  48)    -75.1321         0.012564   
    288. D(C  11,C  10,C   9,C   8)     45.8705         0.012564   
    289. D(H  50,C  11,C  10,C  15)   -178.7392         0.026244   
    290. D(H  50,C  11,C  10,C   9)      0.3547         0.026244   
    291. D(C  12,C  11,C  10,C  15)      1.2195         0.026244   
    292. D(C  12,C  11,C  10,C   9)   -179.6867         0.026244   
    293. D(O  22,C  12,C  11,H  50)     -1.2169         0.028786   
    294. D(C  13,C  12,C  11,H  50)    178.8284         0.028786   
    295. D(O  22,C  12,C  11,C  10)    178.8248         0.028786   
    296. D(C  13,C  12,C  11,C  10)     -1.1298         0.028786   
    297. D(O  21,C  13,C  12,C  11)   -179.7981         0.024219   
    298. D(C  14,C  13,C  12,O  22)   -179.8437         0.024219   
    299. D(C  14,C  13,C  12,C  11)      0.1158         0.024219   
    300. D(O  21,C  13,C  12,O  22)      0.2425         0.024219   
    301. D(H  51,C  14,C  13,O  21)      0.8858         0.028633   
    302. D(H  51,C  14,C  13,C  12)   -179.0281         0.028633   
    303. D(C  15,C  14,C  13,O  21)   -179.3032         0.028633   
    304. D(C  15,C  14,C  13,C  12)      0.7829         0.028633   
    305. D(H  52,C  15,C  14,H  51)      0.1322         0.027828   
    306. D(H  52,C  15,C  14,C  13)   -179.6740         0.027828   
    307. D(C  10,C  15,C  14,H  51)    179.1167         0.027828   
    308. D(C  10,C  15,C  14,C  13)     -0.6894         0.027828   
    309. D(H  52,C  15,C  10,C  11)    178.6743         0.027780   
    310. D(H  52,C  15,C  10,C   9)     -0.4299         0.027780   
    311. D(C  14,C  15,C  10,C  11)     -0.3100         0.027780   
    312. D(C  14,C  15,C  10,C   9)   -179.4141         0.027780   
    313. D(H  53,C  16,C   7,H  46)    178.2293         0.010807   
    314. D(H  53,C  16,C   7,C   8)     59.5074         0.010807   
    315. D(H  53,C  16,C   7,C   6)    -66.6565         0.010807   
    316. D(O  37,C  16,C   7,H  46)     58.4165         0.010807   
    317. D(O  37,C  16,C   7,C   8)    -60.3055         0.010807   
    318. D(O  37,C  16,C   7,C   6)    173.5307         0.010807   
    319. D(H  55,C  17,C   8,H  47)     73.2416         0.010331   
    320. D(H  55,C  17,C   8,C   9)   -170.6747         0.010331   
    321. D(H  55,C  17,C   8,C   7)    -44.4528         0.010331   
    322. D(O  38,C  17,C   8,H  47)   -161.2685         0.010331   
    323. D(O  38,C  17,C   8,C   9)    -45.1849         0.010331   
    324. D(O  38,C  17,C   8,C   7)     81.0371         0.010331   
    325. D(C  34,O  18,C   2,C   3)      2.2125         0.026846   
    326. D(C  34,O  18,C   2,C   1)   -177.4338         0.026846   
    327. D(C  33,O  19,C   0,C   5)     -5.3641         0.028526   
    328. D(C  33,O  19,C   0,C   1)    174.2531         0.028526   
    329. D(C  23,O  20,C   1,C   2)    -57.8786         0.028066   
    330. D(C  23,O  20,C   1,C   0)    127.8048         0.028066   
    331. D(H  57,O  21,C  13,C  14)   -176.9311         0.031072   
    332. D(H  57,O  21,C  13,C  12)      2.9817         0.031072   
    333. D(C  35,O  22,C  12,C  13)   -177.3372         0.026862   
    334. D(C  35,O  22,C  12,C  11)      2.7060         0.026862   
    335. D(H  58,C  23,O  20,C   1)     38.4876         0.021092   
    336. D(C  26,C  23,O  20,C   1)    155.8559         0.021092   
    337. D(C  24,C  23,O  20,C   1)    -83.2875         0.021092   
    338. D(O  36,C  24,C  23,H  58)     58.9358         0.010000   
    339. D(O  36,C  24,C  23,C  26)    -60.7028         0.010000   
    340. D(O  36,C  24,C  23,O  20)   -178.5163         0.010000   
    341. D(C  25,C  24,C  23,H  58)    -66.1210         0.010000   
    342. D(C  25,C  24,C  23,C  26)    174.2403         0.010000   
    343. D(C  25,C  24,C  23,O  20)     56.4269         0.010000   
    344. D(C  32,C  25,C  24,O  36)    -62.4819         0.011984   
    345. D(C  32,C  25,C  24,C  23)     61.3263         0.011984   
    346. D(C  28,C  25,C  24,H  59)      0.9358         0.011984   
    347. D(C  28,C  25,C  24,O  36)    117.7499         0.011984   
    348. D(C  28,C  25,C  24,C  23)   -118.4419         0.011984   
    349. D(H  60,C  26,C  23,H  58)    170.9499         0.011001   
    350. D(H  60,C  26,C  23,C  24)    -69.0529         0.011001   
    351. D(H  60,C  26,C  23,O  20)     52.2825         0.011001   
    352. D(O  27,C  26,C  23,H  58)     48.8332         0.011001   
    353. D(O  27,C  26,C  23,C  24)    168.8304         0.011001   
    354. D(O  27,C  26,C  23,O  20)    -69.8342         0.011001   
    355. D(H  62,O  27,C  26,H  61)    168.6007         0.022750   
    356. D(H  62,O  27,C  26,H  60)    -72.2775         0.022750   
    357. D(H  62,O  27,C  26,C  23)     48.3424         0.022750   
    358. D(H  63,C  28,C  25,C  32)    178.3057         0.027050   
    359. D(H  63,C  28,C  25,C  24)     -1.9227         0.027050   
    360. D(C  29,C  28,C  25,C  32)     -2.8363         0.027050   
    361. D(C  29,C  28,C  25,C  24)    176.9353         0.027050   
    362. D(C  30,C  29,C  28,H  63)    179.5278         0.028655   
    363. D(C  30,C  29,C  28,C  25)      0.6904         0.028655   
    364. D(O  39,C  29,C  28,H  63)     -0.2215         0.028655   
    365. D(O  39,C  29,C  28,C  25)   -179.0589         0.028655   
    366. D(O  40,C  30,C  29,O  39)      1.1321         0.024379   
    367. D(O  40,C  30,C  29,C  28)   -178.6437         0.024379   
    368. D(C  31,C  30,C  29,O  39)   -178.2415         0.024379   
    369. D(C  31,C  30,C  29,C  28)      1.9828         0.024379   
    370. D(H  64,C  31,C  30,O  40)     -2.3796         0.028683   
    371. D(H  64,C  31,C  30,C  29)    176.9928         0.028683   
    372. D(C  32,C  31,C  30,O  40)    178.1371         0.028683   
    373. D(C  32,C  31,C  30,C  29)     -2.4905         0.028683   
    374. D(H  65,C  32,C  31,H  64)      1.4334         0.028355   
    375. D(H  65,C  32,C  31,C  30)   -179.0930         0.028355   
    376. D(C  25,C  32,C  31,H  64)   -179.1455         0.028355   
    377. D(C  25,C  32,C  31,C  30)      0.3281         0.028355   
    378. D(H  65,C  32,C  25,C  28)   -178.2554         0.027760   
    379. D(H  65,C  32,C  25,C  24)      1.9756         0.027760   
    380. D(C  31,C  32,C  25,C  28)      2.3340         0.027760   
    381. D(C  31,C  32,C  25,C  24)   -177.4350         0.027760   
    382. D(H  68,C  33,O  19,C   0)    -58.8178         0.021948   
    383. D(H  67,C  33,O  19,C   0)   -177.0704         0.021948   
    384. D(H  66,C  33,O  19,C   0)     63.7649         0.021948   
    385. D(H  71,C  34,O  18,C   2)    -63.3015         0.021955   
    386. D(H  70,C  34,O  18,C   2)    178.0543         0.021955   
    387. D(H  69,C  34,O  18,C   2)     59.5720         0.021955   
    388. D(H  74,C  35,O  22,C  12)     59.8869         0.024177   
    389. D(H  73,C  35,O  22,C  12)    -62.7743         0.024177   
    390. D(H  72,C  35,O  22,C  12)    178.5827         0.024177   
    391. D(H  75,O  36,C  24,H  59)    175.3014         0.021405   
    392. D(H  75,O  36,C  24,C  25)     55.8333         0.021405   
    393. D(H  75,O  36,C  24,C  23)    -68.0284         0.021405   
    394. D(H  76,O  37,C  16,H  54)     58.2261         0.023631   
    395. D(H  76,O  37,C  16,H  53)    174.7913         0.023631   
    396. D(H  76,O  37,C  16,C   7)    -62.6955         0.023631   
    397. D(H  77,O  38,C  17,H  56)   -167.1375         0.023210   
    398. D(H  77,O  38,C  17,H  55)     76.9778         0.023210   
    399. D(H  77,O  38,C  17,C   8)    -47.5024         0.023210   
    400. D(C  41,O  39,C  29,C  30)    167.8499         0.028463   
    401. D(C  41,O  39,C  29,C  28)    -12.3902         0.028463   
    402. D(H  78,O  40,C  30,C  31)    179.8440         0.030273   
    403. D(H  78,O  40,C  30,C  29)      0.4733         0.030273   
    404. D(H  81,C  41,O  39,C  29)   -179.9655         0.023349   
    405. D(H  80,C  41,O  39,C  29)     61.6821         0.023349   
    406. D(H  79,C  41,O  39,C  29)    -60.7196         0.023349   
    -----------------------------------------------------------------

Number of atoms                         .... 82
Number of degrees of freedom            .... 406


         *************************************************************
         *                GEOMETRY OPTIMIZATION CYCLE   1            *
         *************************************************************
---------------------------------
CARTESIAN COORDINATES (ANGSTROEM)
---------------------------------
  C     28.706384  -28.950080    0.098695
  C     29.901360  -28.279810   -0.205946
  C     30.434538  -27.377911    0.725056
  C     29.754127  -27.122178    1.909920
  C     28.564739  -27.769278    2.196909
  C     28.050711  -28.686140    1.291733
  C     27.803622  -27.489276    3.462674
  C     26.540123  -26.656718    3.172073
  C     25.486883  -26.796748    4.299325
  C     24.056095  -26.841893    3.736095
  C     23.845124  -27.849501    2.640473
  C     24.328351  -29.152050    2.752734
  C     24.135285  -30.069842    1.737699
  C     23.423872  -29.701225    0.584559
  C     22.925801  -28.415590    0.480372
  C     23.142497  -27.499068    1.497674
  C     26.972662  -25.219944    2.850998
  C     25.563375  -25.717318    5.396467
  O     31.629570  -26.798871    0.394855
  O     28.274305  -29.843932   -0.831736
  O     30.551768  -28.632454   -1.365191
  O     23.225105  -30.600451   -0.419333
  O     24.590690  -31.373399    1.737390
  C     30.911881  -27.610320   -2.287119
  C     29.730225  -27.234919   -3.216744
  C     28.529769  -26.817134   -2.401443
  C     32.087182  -28.170912   -3.093975
  O     33.243650  -28.277783   -2.308217
  C     27.347952  -27.543147   -2.491758
  C     26.259164  -27.213494   -1.706013
  C     26.346347  -26.127505   -0.821507
  C     27.503728  -25.372961   -0.773498
  C     28.590612  -25.718738   -1.557310
  C     27.150174  -30.629704   -0.518252
  C     32.240150  -25.926886    1.314694
  C     25.263354  -31.841593    2.878608
  O     30.127506  -26.245403   -4.139585
  O     25.915853  -24.392342    2.426015
  O     24.952688  -24.499996    5.073709
  O     25.051428  -27.867406   -1.696003
  O     25.286008  -25.811067   -0.021228
  C     24.786046  -28.793315   -2.725098
  H     30.155866  -26.425988    2.628079
  H     27.123357  -29.182455    1.527748
  H     27.509707  -28.441605    3.909029
  H     28.435343  -26.963950    4.180702
  H     26.088578  -27.061560    2.259637
  H     25.684785  -27.745868    4.808278
  H     23.376846  -27.066709    4.564269
  H     23.789960  -25.852051    3.364075
  H     24.858075  -29.440723    3.645901
  H     22.367445  -28.147795   -0.402200
  H     22.743160  -26.499887    1.405393
  H     27.407679  -24.734646    3.728601
  H     27.749720  -25.272638    2.076914
  H     26.617578  -25.567414    5.681641
  H     25.032843  -26.079597    6.283303
  H     23.602661  -31.444445   -0.137522
  H     31.249862  -26.714017   -1.754495
  H     29.478324  -28.109828   -3.823879
  H     31.793898  -29.152092   -3.493013
  H     32.322465  -27.500839   -3.922520
  H     32.987275  -28.716963   -1.487512
  H     27.301808  -28.378263   -3.170983
  H     27.540458  -24.512031   -0.125501
  H     29.489890  -25.123401   -1.492558
  H     26.251733  -30.018860   -0.385551
  H     27.013587  -31.300569   -1.365629
  H     27.316413  -31.226524    0.384177
  H     32.451031  -26.428203    2.264006
  H     33.178092  -25.627855    0.849119
  H     31.626009  -25.039318    1.498322
  H     25.505295  -32.883023    2.671912
  H     26.189242  -31.284607    3.057151
  H     24.628694  -31.786939    3.768228
  H     30.291125  -25.424328   -3.660789
  H     25.564722  -24.757601    1.598254
  H     25.240216  -24.232207    4.185040
  H     24.575180  -26.447018   -0.198775
  H     24.804161  -28.305748   -3.704393
  H     25.498882  -29.621065   -2.718423
  H     23.790351  -29.180939   -2.518269

----------------------------
CARTESIAN COORDINATES (A.U.)
----------------------------
  NO LB      ZA    FRAG     MASS         X           Y           Z
   0 C     6.0000    0    12.011   54.247205  -54.707722    0.186507
   1 C     6.0000    0    12.011   56.505382  -53.441097   -0.389182
   2 C     6.0000    0    12.011   57.512941  -51.736753    1.370157
   3 C     6.0000    0    12.011   56.227151  -51.253489    3.609225
   4 C     6.0000    0    12.011   53.979534  -52.476331    4.151557
   5 C     6.0000    0    12.011   53.008161  -54.208949    2.441022
   6 C     6.0000    0    12.011   52.541232  -51.947203    6.543505
   7 C     6.0000    0    12.011   50.153563  -50.373897    5.994350
   8 C     6.0000    0    12.011   48.163229  -50.638515    8.124548
   9 C     6.0000    0    12.011   45.459432  -50.723827    7.060197
  10 C     6.0000    0    12.011   45.060754  -52.627929    4.989772
  11 C     6.0000    0    12.011   45.973921  -55.089392    5.201914
  12 C     6.0000    0    12.011   45.609079  -56.823767    3.283775
  13 C     6.0000    0    12.011   44.264704  -56.127181    1.104656
  14 C     6.0000    0    12.011   43.323486  -53.697683    0.907772
  15 C     6.0000    0    12.011   43.732981  -51.965707    2.830194
  16 C     6.0000    0    12.011   50.970945  -47.658788    5.387605
  17 C     6.0000    0    12.011   48.307778  -48.598688   10.197844
  18 O     8.0000    0    15.999   59.771226  -50.642527    0.746168
  19 O     8.0000    0    15.999   53.430693  -56.396858   -1.571753
  20 O     8.0000    0    15.999   57.734475  -54.107496   -2.579837
  21 O     8.0000    0    15.999   43.889089  -57.826471   -0.792425
  22 O     8.0000    0    15.999   46.469669  -59.287132    3.283190
  23 C     6.0000    0    12.011   58.414990  -52.175943   -4.322028
  24 C     6.0000    0    12.011   56.181983  -51.466538   -6.078766
  25 C     6.0000    0    12.011   53.913450  -50.677039   -4.538070
  26 C     6.0000    0    12.011   60.635987  -53.235309   -5.846766
  27 O     8.0000    0    15.999   62.821395  -53.437265   -4.361899
  28 C     6.0000    0    12.011   51.680139  -52.049004   -4.708740
  29 C     6.0000    0    12.011   49.622629  -51.426051   -3.223897
  30 C     6.0000    0    12.011   49.787380  -49.373828   -1.552423
  31 C     6.0000    0    12.011   51.974514  -47.947948   -1.461699
  32 C     6.0000    0    12.011   54.028426  -48.601372   -2.942890
  33 C     6.0000    0    12.011   51.306394  -57.881752   -0.979355
  34 C     6.0000    0    12.011   60.925054  -48.994715    2.484412
  35 C     6.0000    0    12.011   47.740820  -60.171891    5.439781
  36 O     8.0000    0    15.999   56.932735  -49.596624   -7.822682
  37 O     8.0000    0    15.999   48.973865  -46.094846    4.584504
  38 O     8.0000    0    15.999   47.153747  -46.298282    9.587920
  39 O     8.0000    0    15.999   47.340339  -52.661765   -3.204981
  40 O     8.0000    0    15.999   47.783631  -48.775849   -0.040114
  41 C     6.0000    0    12.011   46.838839  -54.411480   -5.149689
  42 H     1.0000    0     1.008   56.986328  -49.937880    4.966349
  43 H     1.0000    0     1.008   51.255716  -55.146848    2.887025
  44 H     1.0000    0     1.008   51.985812  -53.746845    7.386994
  45 H     1.0000    0     1.008   53.735012  -50.954480    7.900382
  46 H     1.0000    0     1.008   49.300267  -51.138937    4.270095
  47 H     1.0000    0     1.008   48.537209  -52.432093    9.086328
  48 H     1.0000    0     1.008   44.175836  -51.148667    8.625219
  49 H     1.0000    0     1.008   44.956509  -48.853296    6.357180
  50 H     1.0000    0     1.008   46.974954  -55.634904    6.889755
  51 H     1.0000    0     1.008   42.268346  -53.191623   -0.760048
  52 H     1.0000    0     1.008   42.978343  -50.077529    2.655808
  53 H     1.0000    0     1.008   51.793007  -46.741707    7.046035
  54 H     1.0000    0     1.008   52.439372  -47.758365    3.924799
  55 H     1.0000    0     1.008   50.299933  -48.315410   10.736745
  56 H     1.0000    0     1.008   47.305218  -49.283297   11.873721
  57 H     1.0000    0     1.008   44.602565  -59.421390   -0.259879
  58 H     1.0000    0     1.008   59.053682  -50.482177   -3.315515
  59 H     1.0000    0     1.008   55.705959  -53.119876   -7.226084
  60 H     1.0000    0     1.008   60.081760  -55.089470   -6.600838
  61 H     1.0000    0     1.008   61.080607  -51.969054   -7.412488
  62 H     1.0000    0     1.008   62.336916  -54.267195   -2.810990
  63 H     1.0000    0     1.008   51.592940  -53.627145   -5.992289
  64 H     1.0000    0     1.008   52.043923  -46.321026   -0.237163
  65 H     1.0000    0     1.008   55.727816  -47.476348   -2.820526
  66 H     1.0000    0     1.008   49.608586  -56.727423   -0.728585
  67 H     1.0000    0     1.008   51.048281  -59.149502   -2.580665
  68 H     1.0000    0     1.008   51.620539  -59.009578    0.725989
  69 H     1.0000    0     1.008   61.323561  -49.942065    4.278352
  70 H     1.0000    0     1.008   62.697508  -48.429628    1.604601
  71 H     1.0000    0     1.008   59.764496  -47.317454    2.831418
  72 H     1.0000    0     1.008   48.198022  -62.139907    5.049181
  73 H     1.0000    0     1.008   49.490494  -59.119339    5.777178
  74 H     1.0000    0     1.008   46.541487  -60.068608    7.120919
  75 H     1.0000    0     1.008   57.241931  -48.045018   -6.917888
  76 H     1.0000    0     1.008   48.310323  -46.785085    3.020262
  77 H     1.0000    0     1.008   47.697097  -45.792235    7.908579
  78 H     1.0000    0     1.008   46.440360  -49.977621   -0.375630
  79 H     1.0000    0     1.008   46.873072  -53.490111   -7.000288
  80 H     1.0000    0     1.008   48.185903  -55.975701   -5.137075
  81 H     1.0000    0     1.008   44.957248  -55.143983   -4.758838

--------------------------------
INTERNAL COORDINATES (ANGSTROEM)
--------------------------------
 C      0   0   0     0.000000000000     0.00000000     0.00000000
 C      1   0   0     1.403579119675     0.00000000     0.00000000
 C      2   1   0     1.401594277155   119.14286956     0.00000000
 C      3   2   1     1.390057680015   119.89232488   357.67400723
 C      4   3   2     1.384104121776   120.75385801     1.31554269
 C      1   2   3     1.386690907585   119.89423385     1.84153990
 C      5   4   3     1.503283015707   121.50554599   181.00146995
 C      7   5   4     1.540789519021   110.91762523   106.51325953
 C      8   7   5     1.549070417530   111.80587172   158.60715200
 C      9   8   7     1.538317345505   111.62986698   218.12097107
 C     10   9   8     1.503385842250   114.64644399    51.31961845
 C     11  10   9     1.393824589157   121.26439668    45.87050453
 C     12  11  10     1.381995919302   120.86576898   180.31330080
 C     13  12  11     1.404179031842   119.97370160   358.87016281
 C     14  13  12     1.382673763595   119.24034098     0.11576805
 C     15  14  13     1.386316146550   120.20670643     0.78291488
 C      8   7   5     1.534438034142   108.31614918   286.82664360
 C      9   8   7     1.541019067247   114.89904255    93.20722577
 O      3   2   1     1.368364837457   116.37399706   177.33467478
 O      1   2   3     1.360649249643   115.82675915   182.20639398
 O      2   1   3     1.375222493243   117.59130063   174.54496597
 O     14  13  12     1.362319510159   120.38439622   180.20191567
 O     13  12  11     1.380816421819   125.52358159   178.82480676
 C     21   2   1     1.422810208582   118.79578686   127.80482923
 C     24  21   2     1.549658883210   111.69954098   276.71253222
 C     25  24  21     1.510084038079   110.44545247    56.42686007
 C     24  21   2     1.531866020013   105.81789364   155.85585257
 O     27  24  21     1.402232162785   111.43861379   290.16581582
 C     26  25  24     1.389943666676   119.75766913   241.55811368
 C     29  26  25     1.382578810818   120.53846638   176.93529579
 C     30  29  26     1.403326131141   119.59056291     0.69035218
 C     31  30  29     1.382451814989   119.75402484     1.98275601
 C     32  31  30     1.383921538539   120.09695545   357.50951730
 C     20   1   2     1.406904291938   117.92178203   174.25313608
 C     19   3   2     1.406864695839   118.91617266   182.56622112
 C     23  13  12     1.405013166056   118.18389459     2.70602489
 O     25  24  21     1.410180340585   110.34904298   181.48370096
 O     17   8   7     1.407970492702   113.70090819   173.53065530
 O     18   9   8     1.399637399948   115.04863496    81.03707490
 O     30  29  26     1.373436275880   125.66998066   180.94109065
 O     31  30  29     1.365612311405   120.02958925   181.35634440
 C     40  30  29     1.409529050077   118.22901553   347.60983463
 H      4   3   2     1.077881339988   120.28533483   180.31105926
 H      6   1   2     1.077969025291   120.49756522   178.92028759
 H      7   5   4     1.092039623175   108.54153579   226.38820216
 H      7   5   4     1.091147859104   110.52561314   344.48721303
 H      8   7   5     1.095595419602   107.18038080    41.64789887
 H      9   8   7     1.095000715763   107.07964492   336.40860072
 H     10   9   8     1.094437591600   107.83191198   172.99970796
 H     10   9   8     1.090419518734   108.98258939   288.86903880
 H     12  11  10     1.077815923908   119.17162710     0.35468871
 H     15  14  13     1.078151306876   118.63234461   180.97189412
 H     16  15  14     1.079975932738   119.41686196   180.32601773
 H     17   8   7     1.093133795644   111.09303364   293.34350758
 H     17   8   7     1.098089900101   107.58073879    51.10923852
 H     18   9   8     1.102333543969   109.08124221   315.54722999
 H     18   9   8     1.095074289521   108.71086747   198.74108919
 H     22  14  13     0.966587902755   107.72908959     2.98172339
 H     24  21   2     1.096027754594   110.52687143    38.48764315
 H     25  24  21     1.094318031699   108.34099605   296.20639827
 H     27  24  21     1.099072527417   108.25209698    52.28252048
 H     27  24  21     1.091257171766   109.91486946   171.56488523
 H     28  27  24     0.965487063148   106.97780255    48.34241922
 H     29  26  25     1.077447977473   118.83109266   358.07729701
 H     32  31  30     1.078169211091   119.02689985   176.99282089
 H     33  32  31     1.080426132161   118.82069592   180.90700634
 H     34  20   1     1.094503272991   111.78902764    63.76493959
 H     34  20   1     1.089386274528   105.71207850   182.92964741
 H     34  20   1     1.094626700848   111.52247765   301.18224038
 H     35  19   3     1.094066902489   111.52855164    59.57204769
 H     35  19   3     1.088997791510   105.33535840   178.05428471
 H     35  19   3     1.094835898563   111.63422437   296.69851929
 H     36  23  13     1.088960228986   105.71677168   178.58273739
 H     36  23  13     1.095162045402   111.57400438   297.22571486
 H     36  23  13     1.094168055010   111.47273905    59.88690623
 H     37  25  24     0.964458944420   108.68058623   291.97158995
 H     38  17   8     0.970513227447   107.92581283   297.30445038
 H     39  18   9     0.971656249626   108.75325296   312.49759992
 H     41  31  30     0.970171695110   108.04471034     0.47331323
 H     42  40  30     1.094106233292   110.95507211   299.28043450
 H     42  40  30     1.092405450992   111.74206435    61.68210359
 H     42  40  30     1.088319448283   105.51351807   180.03447347

---------------------------
INTERNAL COORDINATES (A.U.)
---------------------------
 C      0   0   0     0.000000000000     0.00000000     0.00000000
 C      1   0   0     2.652380143475     0.00000000     0.00000000
 C      2   1   0     2.648629334695   119.14286956     0.00000000
 C      3   2   1     2.626828325583   119.89232488   357.67400723
 C      4   3   2     2.615577730988   120.75385801     1.31554269
 C      1   2   3     2.620466047734   119.89423385     1.84153990
 C      5   4   3     2.840793201462   121.50554599   181.00146995
 C      7   5   4     2.911670220965   110.91762523   106.51325953
 C      8   7   5     2.927318851290   111.80587172   158.60715200
 C      9   8   7     2.906998490066   111.62986698   218.12097107
 C     10   9   8     2.840987515468   114.64644399    51.31961845
 C     11  10   9     2.633946752232   121.26439668    45.87050453
 C     12  11  10     2.611593805678   120.86576898   180.31330080
 C     13  12  11     2.653513813177   119.97370160   358.87016281
 C     14  13  12     2.612874745753   119.24034098     0.11576805
 C     15  14  13     2.619757852013   120.20670643     0.78291488
 C      8   7   5     2.899667654001   108.31614918   286.82664360
 C      9   8   7     2.912104004248   114.89904255    93.20722577
 O      3   2   1     2.585834794082   116.37399706   177.33467478
 O      1   2   3     2.571254446150   115.82675915   182.20639398
 O      2   1   3     2.598793885438   117.59130063   174.54496597
 O     14  13  12     2.574410781097   120.38439622   180.20191567
 O     13  12  11     2.609364878459   125.52358159   178.82480676
 C     21   2   1     2.688721634767   118.79578686   127.80482923
 C     24  21   2     2.928430890264   111.69954098   276.71253222
 C     25  24  21     2.853645271176   110.44545247    56.42686007
 C     24  21   2     2.894807251684   105.81789364   155.85585257
 O     27  24  21     2.649834763840   111.43861379   290.16581582
 C     26  25  24     2.626612871596   119.75766913   241.55811368
 C     29  26  25     2.612695311009   120.53846638   176.93529579
 C     30  29  26     2.651902064432   119.59056291     0.69035218
 C     31  30  29     2.612455323672   119.75402484     1.98275601
 C     32  31  30     2.615232698673   120.09695545   357.50951730
 C     20   1   2     2.658663808401   117.92178203   174.25313608
 C     19   3   2     2.658588982619   118.91617266   182.56622112
 C     23  13  12     2.655090098399   118.18389459     2.70602489
 O     25  24  21     2.664854643146   110.34904298   181.48370096
 O     17   8   7     2.660678635849   113.70090819   173.53065530
 O     18   9   8     2.644931372695   115.04863496    81.03707490
 O     30  29  26     2.595418423807   125.66998066   180.94109065
 O     31  30  29     2.580633273666   120.02958925   181.35634440
 C     40  30  29     2.663623882451   118.22901553   347.60983463
 H      4   3   2     2.036900537442   120.28533483   180.31105926
 H      6   1   2     2.037066238651   120.49756522   178.92028759
 H      7   5   4     2.063655815191   108.54153579   226.38820216
 H      7   5   4     2.061970625321   110.52561314   344.48721303
 H      8   7   5     2.070375296627   107.18038080    41.64789887
 H      9   8   7     2.069251469240   107.07964492   336.40860072
 H     10   9   8     2.068187318792   107.83191198   172.99970796
 H     10   9   8     2.060594261490   108.98258939   288.86903880
 H     12  11  10     2.036776918966   119.17162710     0.35468871
 H     15  14  13     2.037410700925   118.63234461   180.97189412
 H     16  15  14     2.040858744100   119.41686196   180.32601773
 H     17   8   7     2.065723501501   111.09303364   293.34350758
 H     17   8   7     2.075089181615   107.58073879    51.10923852
 H     18   9   8     2.083108506336   109.08124221   315.54722999
 H     18   9   8     2.069390503492   108.71086747   198.74108919
 H     22  14  13     1.826586420568   107.72908959     2.98172339
 H     24  21   2     2.071192291358   110.52687143    38.48764315
 H     25  24  21     2.067961383322   108.34099605   296.20639827
 H     27  24  21     2.076946078135   108.25209698    52.28252048
 H     27  24  21     2.062177196316   109.91486946   171.56488523
 H     28  27  24     1.824506135193   106.97780255    48.34241922
 H     29  26  25     2.036081600972   118.83109266   358.07729701
 H     32  31  30     2.037444534989   119.02689985   176.99282089
 H     33  32  31     2.041709497716   118.82069592   180.90700634
 H     34  20   1     2.068311438634   111.78902764    63.76493959
 H     34  20   1     2.058641712910   105.71207850   182.92964741
 H     34  20   1     2.068544683481   111.52247765   301.18224038
 H     35  19   3     2.067486817891   111.52855164    59.57204769
 H     35  19   3     2.057907586399   105.33535840   178.05428471
 H     35  19   3     2.068940009869   111.63422437   296.69851929
 H     36  23  13     2.057836603516   105.71677168   178.58273739
 H     36  23  13     2.069556338076   111.57400438   297.22571486
 H     36  23  13     2.067677968455   111.47273905    59.88690623
 H     37  25  24     1.822563272365   108.68058623   291.97158995
 H     38  17   8     1.834004209223   107.92581283   297.30445038
 H     39  18   9     1.836164208106   108.75325296   312.49759992
 H     41  31  30     1.833358806640   108.04471034     0.47331323
 H     42  40  30     2.067561142338   110.95507211   299.28043450
 H     42  40  30     2.064347129577   111.74206435    61.68210359
 H     42  40  30     2.056625703475   105.51351807   180.03447347

---------------------
BASIS SET INFORMATION
---------------------
There are 3 groups of distinct atoms

 Group   1 Type C   : 11s6p2d1f contracted to 5s3p2d1f pattern {62111/411/11/1}
 Group   2 Type O   : 11s6p2d1f contracted to 5s3p2d1f pattern {62111/411/11/1}
 Group   3 Type H   : 5s1p contracted to 3s1p pattern {311/1}

Atom   0C    basis set group =>   1
Atom   1C    basis set group =>   1
Atom   2C    basis set group =>   1
Atom   3C    basis set group =>   1
Atom   4C    basis set group =>   1
Atom   5C    basis set group =>   1
Atom   6C    basis set group =>   1
Atom   7C    basis set group =>   1
Atom   8C    basis set group =>   1
Atom   9C    basis set group =>   1
Atom  10C    basis set group =>   1
Atom  11C    basis set group =>   1
Atom  12C    basis set group =>   1
Atom  13C    basis set group =>   1
Atom  14C    basis set group =>   1
Atom  15C    basis set group =>   1
Atom  16C    basis set group =>   1
Atom  17C    basis set group =>   1
Atom  18O    basis set group =>   2
Atom  19O    basis set group =>   2
Atom  20O    basis set group =>   2
Atom  21O    basis set group =>   2
Atom  22O    basis set group =>   2
Atom  23C    basis set group =>   1
Atom  24C    basis set group =>   1
Atom  25C    basis set group =>   1
Atom  26C    basis set group =>   1
Atom  27O    basis set group =>   2
Atom  28C    basis set group =>   1
Atom  29C    basis set group =>   1
Atom  30C    basis set group =>   1
Atom  31C    basis set group =>   1
Atom  32C    basis set group =>   1
Atom  33C    basis set group =>   1
Atom  34C    basis set group =>   1
Atom  35C    basis set group =>   1
Atom  36O    basis set group =>   2
Atom  37O    basis set group =>   2
Atom  38O    basis set group =>   2
Atom  39O    basis set group =>   2
Atom  40O    basis set group =>   2
Atom  41C    basis set group =>   1
Atom  42H    basis set group =>   3
Atom  43H    basis set group =>   3
Atom  44H    basis set group =>   3
Atom  45H    basis set group =>   3
Atom  46H    basis set group =>   3
Atom  47H    basis set group =>   3
Atom  48H    basis set group =>   3
Atom  49H    basis set group =>   3
Atom  50H    basis set group =>   3
Atom  51H    basis set group =>   3
Atom  52H    basis set group =>   3
Atom  53H    basis set group =>   3
Atom  54H    basis set group =>   3
Atom  55H    basis set group =>   3
Atom  56H    basis set group =>   3
Atom  57H    basis set group =>   3
Atom  58H    basis set group =>   3
Atom  59H    basis set group =>   3
Atom  60H    basis set group =>   3
Atom  61H    basis set group =>   3
Atom  62H    basis set group =>   3
Atom  63H    basis set group =>   3
Atom  64H    basis set group =>   3
Atom  65H    basis set group =>   3
Atom  66H    basis set group =>   3
Atom  67H    basis set group =>   3
Atom  68H    basis set group =>   3
Atom  69H    basis set group =>   3
Atom  70H    basis set group =>   3
Atom  71H    basis set group =>   3
Atom  72H    basis set group =>   3
Atom  73H    basis set group =>   3
Atom  74H    basis set group =>   3
Atom  75H    basis set group =>   3
Atom  76H    basis set group =>   3
Atom  77H    basis set group =>   3
Atom  78H    basis set group =>   3
Atom  79H    basis set group =>   3
Atom  80H    basis set group =>   3
Atom  81H    basis set group =>   3
---------------------------------
AUXILIARY/J BASIS SET INFORMATION
---------------------------------
There are 3 groups of distinct atoms

 Group   1 Type C   : 12s5p4d2f1g contracted to 6s4p3d1f1g pattern {711111/2111/211/2/1}
 Group   2 Type O   : 12s5p4d2f1g contracted to 6s4p3d1f1g pattern {711111/2111/211/2/1}
 Group   3 Type H   : 5s2p1d contracted to 3s1p1d pattern {311/2/1}

Atom   0C    basis set group =>   1
Atom   1C    basis set group =>   1
Atom   2C    basis set group =>   1
Atom   3C    basis set group =>   1
Atom   4C    basis set group =>   1
Atom   5C    basis set group =>   1
Atom   6C    basis set group =>   1
Atom   7C    basis set group =>   1
Atom   8C    basis set group =>   1
Atom   9C    basis set group =>   1
Atom  10C    basis set group =>   1
Atom  11C    basis set group =>   1
Atom  12C    basis set group =>   1
Atom  13C    basis set group =>   1
Atom  14C    basis set group =>   1
Atom  15C    basis set group =>   1
Atom  16C    basis set group =>   1
Atom  17C    basis set group =>   1
Atom  18O    basis set group =>   2
Atom  19O    basis set group =>   2
Atom  20O    basis set group =>   2
Atom  21O    basis set group =>   2
Atom  22O    basis set group =>   2
Atom  23C    basis set group =>   1
Atom  24C    basis set group =>   1
Atom  25C    basis set group =>   1
Atom  26C    basis set group =>   1
Atom  27O    basis set group =>   2
Atom  28C    basis set group =>   1
Atom  29C    basis set group =>   1
Atom  30C    basis set group =>   1
Atom  31C    basis set group =>   1
Atom  32C    basis set group =>   1
Atom  33C    basis set group =>   1
Atom  34C    basis set group =>   1
Atom  35C    basis set group =>   1
Atom  36O    basis set group =>   2
Atom  37O    basis set group =>   2
Atom  38O    basis set group =>   2
Atom  39O    basis set group =>   2
Atom  40O    basis set group =>   2
Atom  41C    basis set group =>   1
Atom  42H    basis set group =>   3
Atom  43H    basis set group =>   3
Atom  44H    basis set group =>   3
Atom  45H    basis set group =>   3
Atom  46H    basis set group =>   3
Atom  47H    basis set group =>   3
Atom  48H    basis set group =>   3
Atom  49H    basis set group =>   3
Atom  50H    basis set group =>   3
Atom  51H    basis set group =>   3
Atom  52H    basis set group =>   3
Atom  53H    basis set group =>   3
Atom  54H    basis set group =>   3
Atom  55H    basis set group =>   3
Atom  56H    basis set group =>   3
Atom  57H    basis set group =>   3
Atom  58H    basis set group =>   3
Atom  59H    basis set group =>   3
Atom  60H    basis set group =>   3
Atom  61H    basis set group =>   3
Atom  62H    basis set group =>   3
Atom  63H    basis set group =>   3
Atom  64H    basis set group =>   3
Atom  65H    basis set group =>   3
Atom  66H    basis set group =>   3
Atom  67H    basis set group =>   3
Atom  68H    basis set group =>   3
Atom  69H    basis set group =>   3
Atom  70H    basis set group =>   3
Atom  71H    basis set group =>   3
Atom  72H    basis set group =>   3
Atom  73H    basis set group =>   3
Atom  74H    basis set group =>   3
Atom  75H    basis set group =>   3
Atom  76H    basis set group =>   3
Atom  77H    basis set group =>   3
Atom  78H    basis set group =>   3
Atom  79H    basis set group =>   3
Atom  80H    basis set group =>   3
Atom  81H    basis set group =>   3
--------------------------------------------------------------------------
WARNING: There is at least one non-excluded one OpenFabrics device found,
but there are no active ports detected (or Open MPI was unable to use
them).  This is most certainly not what you wanted.  Check your
cables, subnet manager configuration, etc.  The openib BTL will be
ignored for this job.

  Local host: c04b01n02
--------------------------------------------------------------------------
--------------------------------------------------------------------------
WARNING: There was an error initializing an OpenFabrics device.

  Local host:   c04b01n02
  Local device: mlx5_0
--------------------------------------------------------------------------
[c04b01n02:3353010] 5 more processes have sent help message help-mpi-btl-openib.txt / no active ports found
[c04b01n02:3353010] Set MCA parameter "orte_base_help_aggregate" to 0 to see all help / error messages
[c04b01n02:3353010] 57 more processes have sent help message help-mpi-btl-openib.txt / error in device init


           ************************************************************
           *        Program running with 64 parallel MPI-processes    *
           *              working on a common directory               *
           ************************************************************
------------------------------------------------------------------------------
                             ORCA STARTUP CALCULATIONS
                           -- RI-GTO INTEGRALS CHOSEN --
------------------------------------------------------------------------------
------------------------------------------------------------------------------
                   ___                                                        
                  /   \      - P O W E R E D   B Y -                         
                 /     \                                                     
                 |  |  |   _    _      __       _____    __    __             
                 |  |  |  | |  | |    /  \     |  _  \  |  |  /  |          
                  \  \/   | |  | |   /    \    | | | |  |  | /  /          
                 / \  \   | |__| |  /  /\  \   | |_| |  |  |/  /          
                |  |  |   |  __  | /  /__\  \  |    /   |      \           
                |  |  |   | |  | | |   __   |  |    \   |  |\   \          
                \     /   | |  | | |  |  |  |  | |\  \  |  | \   \       
                 \___/    |_|  |_| |__|  |__|  |_| \__\ |__|  \__/        
                                                                              
                      - O R C A' S   B I G   F R I E N D -                    
                                      &                                       
                       - I N T E G R A L  F E E D E R -                       
                                                                              
 v1 FN, 2020, v2 2021, v3 2022-2024                                           
------------------------------------------------------------------------------


----------------------
SHARK INTEGRAL PACKAGE
----------------------

Number of atoms                             ...     82
Number of basis functions                   ...   1542
Number of shells                            ...    622
Maximum angular momentum                    ...      3
Integral batch strategy                     ... SHARK/LIBINT Hybrid
RI-J (if used) integral strategy            ... SPLIT-RIJ (Revised 2003 algorithm where possible)
Printlevel                                  ...      1
Contraction scheme used                     ... SEGMENTED contraction
Prescreening option                         ... SCHWARTZ
   Thresh                                   ... 2.500e-11
   Tcut                                     ... 2.500e-12
   Tpresel                                  ... 2.500e-12 
Coulomb Range Separation                    ... NOT USED
Exchange Range Separation                   ... NOT USED
Multipole approximations                    ... NOT USED
Finite Nucleus Model                        ... NOT USED
CABS basis                                  ... NOT available
Auxiliary Coulomb fitting basis             ... AVAILABLE
   # of basis functions in Aux-J            ...   2498
   # of shells in Aux-J                     ...    830
   Maximum angular momentum in Aux-J        ...      4
Auxiliary J/K fitting basis                 ... NOT available
Auxiliary Correlation fitting basis         ... NOT available
Auxiliary 'external' fitting basis          ... NOT available

Checking pre-screening integrals            ... done (  0.0 sec) Dimension = 622
   => SHARK Basis and OBASIS are compatible. Storing Pre-screening
Shell pair information
Shell pair cut-off parameter TPreSel        ...   2.5e-12
Total number of shell pairs                 ...    193753
Shell pairs after pre-screening             ...    117154
Total number of primitive shell pairs       ...    584784
Primitive shell pairs kept                  ...    221030
          la=0 lb=0:  32628 shell pairs
          la=1 lb=0:  34924 shell pairs
          la=1 lb=1:   9469 shell pairs
          la=2 lb=0:  15872 shell pairs
          la=2 lb=1:   8724 shell pairs
          la=2 lb=2:   2009 shell pairs
          la=3 lb=0:   7262 shell pairs
          la=3 lb=1:   4079 shell pairs
          la=3 lb=2:   1757 shell pairs
          la=3 lb=3:    430 shell pairs

Checking whether 4 symmetric matrices of dimension 1542 fit in memory
:Max Core in MB      =   6000.00
 MB in use           =    140.33
 MB left             =   5859.67
 MB needed           =     36.31
 Data fit in memory  = YES
Calculating RI/J V-Matrix + Cholesky decomp.... done (  4.1 sec)
Calculating Nuclear repulsion               ... done (  0.0 sec) ENN=   5786.964109176963 Eh

Diagonalization of the overlap matrix:
Smallest eigenvalue                        ... 2.909e-06
Time for diagonalization                   ...    1.679 sec
Threshold for overlap eigenvalues          ... 1.000e-07
Number of eigenvalues below threshold      ... 0
Time for construction of square roots      ...    0.643 sec
Total time needed                          ...    2.488 sec

-------------------
DFT GRID GENERATION
-------------------

General Integration Accuracy     IntAcc      ... 4.388
Radial Grid Type                 RadialGrid  ... OptM3 with GC (2021)
Angular Grid (max. ang.)         AngularGrid ... 4 (Lebedev-302)
Angular grid pruning method      GridPruning ... 4 (adaptive)
Weight generation scheme         WeightScheme... mBecke (2022)
Basis function cutoff            BFCut       ... 1.0000e-11
Integration weight cutoff        WCut        ... 1.0000e-14
Partially contracted basis set               ... off
Rotationally invariant grid construction     ... off
Angular grids for H and He will be reduced by one unit

Total number of grid points                  ...   373568
Total number of batches                      ...     5877
Average number of points per batch           ...       63
Average number of grid points per atom       ...     4556

--------------------
COSX GRID GENERATION
--------------------

GRIDX 1
-------
General Integration Accuracy     IntAcc      ... 3.816
Radial Grid Type                 RadialGrid  ... OptM3 with GC (2021)
Angular Grid (max. ang.)         AngularGrid ... 1 (Lebedev-50)
Angular grid pruning method      GridPruning ... 4 (adaptive)
Weight generation scheme         WeightScheme... mBecke (2022)
Basis function cutoff            BFCut       ... 1.0000e-11
Integration weight cutoff        WCut        ... 1.0000e-14
Partially contracted basis set               ... on
Rotationally invariant grid construction     ... off
Angular grids for H and He will be reduced by one unit

Total number of grid points                  ...    47271
Total number of batches                      ...      411
Average number of points per batch           ...      115
Average number of grid points per atom       ...      576
UseSFitting                                  ... on

GRIDX 2
-------
General Integration Accuracy     IntAcc      ... 4.020
Radial Grid Type                 RadialGrid  ... OptM3 with GC (2021)
Angular Grid (max. ang.)         AngularGrid ... 2 (Lebedev-110)
Angular grid pruning method      GridPruning ... 4 (adaptive)
Weight generation scheme         WeightScheme... mBecke (2022)
Basis function cutoff            BFCut       ... 1.0000e-11
Integration weight cutoff        WCut        ... 1.0000e-14
[...]
freq.     643.46  E(vib)   ...       0.09 
freq.     656.32  E(vib)   ...       0.08 
freq.     666.30  E(vib)   ...       0.08 
freq.     667.71  E(vib)   ...       0.08 
freq.     690.48  E(vib)   ...       0.07 
freq.     741.85  E(vib)   ...       0.06 
freq.     749.86  E(vib)   ...       0.06 
freq.     757.50  E(vib)   ...       0.06 
freq.     761.66  E(vib)   ...       0.06 
freq.     775.91  E(vib)   ...       0.05 
freq.     782.46  E(vib)   ...       0.05 
freq.     804.50  E(vib)   ...       0.05 
freq.     811.03  E(vib)   ...       0.05 
freq.     815.38  E(vib)   ...       0.05 
freq.     836.85  E(vib)   ...       0.04 
freq.     843.78  E(vib)   ...       0.04 
freq.     848.57  E(vib)   ...       0.04 
freq.     860.75  E(vib)   ...       0.04 
freq.     875.53  E(vib)   ...       0.04 
freq.     884.56  E(vib)   ...       0.04 
freq.     884.93  E(vib)   ...       0.04 
freq.     903.99  E(vib)   ...       0.03 
freq.     907.33  E(vib)   ...       0.03 
freq.     928.39  E(vib)   ...       0.03 
freq.     929.88  E(vib)   ...       0.03 
freq.     933.44  E(vib)   ...       0.03 
freq.     953.93  E(vib)   ...       0.03 
freq.     956.96  E(vib)   ...       0.03 
freq.     965.90  E(vib)   ...       0.03 
freq.     984.83  E(vib)   ...       0.02 
freq.     995.55  E(vib)   ...       0.02 
freq.    1000.91  E(vib)   ...       0.02 
freq.    1014.62  E(vib)   ...       0.02 
freq.    1030.96  E(vib)   ...       0.02 
freq.    1040.48  E(vib)   ...       0.02 
freq.    1049.06  E(vib)   ...       0.02 
freq.    1049.34  E(vib)   ...       0.02 
freq.    1054.15  E(vib)   ...       0.02 
freq.    1059.65  E(vib)   ...       0.02 
freq.    1067.37  E(vib)   ...       0.02 
freq.    1089.57  E(vib)   ...       0.02 
freq.    1090.97  E(vib)   ...       0.02 
freq.    1103.09  E(vib)   ...       0.02 
freq.    1112.15  E(vib)   ...       0.01 
freq.    1137.72  E(vib)   ...       0.01 
freq.    1142.59  E(vib)   ...       0.01 
freq.    1148.38  E(vib)   ...       0.01 
freq.    1150.10  E(vib)   ...       0.01 
freq.    1170.06  E(vib)   ...       0.01 
freq.    1170.47  E(vib)   ...       0.01 
freq.    1171.66  E(vib)   ...       0.01 
freq.    1171.97  E(vib)   ...       0.01 
freq.    1173.56  E(vib)   ...       0.01 
freq.    1178.35  E(vib)   ...       0.01 
freq.    1181.19  E(vib)   ...       0.01 
freq.    1184.93  E(vib)   ...       0.01 
freq.    1201.07  E(vib)   ...       0.01 
freq.    1205.60  E(vib)   ...       0.01 
freq.    1206.95  E(vib)   ...       0.01 
freq.    1212.69  E(vib)   ...       0.01 
freq.    1216.10  E(vib)   ...       0.01 
freq.    1216.57  E(vib)   ...       0.01 
freq.    1224.86  E(vib)   ...       0.01 
freq.    1225.22  E(vib)   ...       0.01 
freq.    1238.31  E(vib)   ...       0.01 
freq.    1240.98  E(vib)   ...       0.01 
freq.    1247.10  E(vib)   ...       0.01 
freq.    1248.70  E(vib)   ...       0.01 
freq.    1249.10  E(vib)   ...       0.01 
freq.    1273.41  E(vib)   ...       0.01 
freq.    1275.05  E(vib)   ...       0.01 
freq.    1277.53  E(vib)   ...       0.01 
freq.    1290.62  E(vib)   ...       0.01 
freq.    1294.89  E(vib)   ...       0.01 
freq.    1301.84  E(vib)   ...       0.01 
freq.    1309.04  E(vib)   ...       0.01 
freq.    1325.76  E(vib)   ...       0.01 
freq.    1332.00  E(vib)   ...       0.01 
freq.    1342.82  E(vib)   ...       0.01 
freq.    1345.31  E(vib)   ...       0.01 
freq.    1349.83  E(vib)   ...       0.01 
freq.    1362.62  E(vib)   ...       0.01 
freq.    1364.33  E(vib)   ...       0.01 
freq.    1373.99  E(vib)   ...       0.01 
freq.    1376.41  E(vib)   ...       0.01 
freq.    1385.74  E(vib)   ...       0.00 
freq.    1392.30  E(vib)   ...       0.00 
freq.    1397.99  E(vib)   ...       0.00 
freq.    1399.19  E(vib)   ...       0.00 
freq.    1406.31  E(vib)   ...       0.00 
freq.    1407.82  E(vib)   ...       0.00 
freq.    1415.89  E(vib)   ...       0.00 
freq.    1424.11  E(vib)   ...       0.00 
freq.    1428.80  E(vib)   ...       0.00 
freq.    1452.27  E(vib)   ...       0.00 
freq.    1457.87  E(vib)   ...       0.00 
freq.    1461.76  E(vib)   ...       0.00 
freq.    1468.36  E(vib)   ...       0.00 
freq.    1475.44  E(vib)   ...       0.00 
freq.    1478.39  E(vib)   ...       0.00 
freq.    1478.78  E(vib)   ...       0.00 
freq.    1479.03  E(vib)   ...       0.00 
freq.    1481.45  E(vib)   ...       0.00 
freq.    1482.23  E(vib)   ...       0.00 
freq.    1485.39  E(vib)   ...       0.00 
freq.    1485.48  E(vib)   ...       0.00 
freq.    1486.18  E(vib)   ...       0.00 
freq.    1490.41  E(vib)   ...       0.00 
freq.    1490.76  E(vib)   ...       0.00 
freq.    1491.42  E(vib)   ...       0.00 
freq.    1491.75  E(vib)   ...       0.00 
freq.    1493.21  E(vib)   ...       0.00 
freq.    1500.59  E(vib)   ...       0.00 
freq.    1502.58  E(vib)   ...       0.00 
freq.    1516.30  E(vib)   ...       0.00 
freq.    1534.84  E(vib)   ...       0.00 
freq.    1543.87  E(vib)   ...       0.00 
freq.    1548.19  E(vib)   ...       0.00 
freq.    1626.78  E(vib)   ...       0.00 
freq.    1634.46  E(vib)   ...       0.00 
freq.    1642.03  E(vib)   ...       0.00 
freq.    1643.86  E(vib)   ...       0.00 
freq.    1649.33  E(vib)   ...       0.00 
freq.    1651.42  E(vib)   ...       0.00 
freq.    2980.13  E(vib)   ...       0.00 
freq.    2991.31  E(vib)   ...       0.00 
freq.    3001.11  E(vib)   ...       0.00 
freq.    3018.91  E(vib)   ...       0.00 
freq.    3020.86  E(vib)   ...       0.00 
freq.    3023.29  E(vib)   ...       0.00 
freq.    3028.89  E(vib)   ...       0.00 
freq.    3029.04  E(vib)   ...       0.00 
freq.    3029.29  E(vib)   ...       0.00 
freq.    3041.25  E(vib)   ...       0.00 
freq.    3048.38  E(vib)   ...       0.00 
freq.    3049.56  E(vib)   ...       0.00 
freq.    3064.57  E(vib)   ...       0.00 
freq.    3070.57  E(vib)   ...       0.00 
freq.    3080.41  E(vib)   ...       0.00 
freq.    3082.81  E(vib)   ...       0.00 
freq.    3083.78  E(vib)   ...       0.00 
freq.    3084.31  E(vib)   ...       0.00 
freq.    3086.34  E(vib)   ...       0.00 
freq.    3093.51  E(vib)   ...       0.00 
freq.    3095.38  E(vib)   ...       0.00 
freq.    3127.21  E(vib)   ...       0.00 
freq.    3137.20  E(vib)   ...       0.00 
freq.    3138.07  E(vib)   ...       0.00 
freq.    3142.88  E(vib)   ...       0.00 
freq.    3151.32  E(vib)   ...       0.00 
freq.    3164.20  E(vib)   ...       0.00 
freq.    3179.90  E(vib)   ...       0.00 
freq.    3191.05  E(vib)   ...       0.00 
freq.    3197.75  E(vib)   ...       0.00 
freq.    3208.01  E(vib)   ...       0.00 
freq.    3209.19  E(vib)   ...       0.00 
freq.    3212.23  E(vib)   ...       0.00 
freq.    3222.20  E(vib)   ...       0.00 
freq.    3540.57  E(vib)   ...       0.00 
freq.    3620.40  E(vib)   ...       0.00 
freq.    3699.92  E(vib)   ...       0.00 
freq.    3723.82  E(vib)   ...       0.00 
freq.    3749.30  E(vib)   ...       0.00 
freq.    3760.81  E(vib)   ...       0.00 

------------
INNER ENERGY
------------

The inner energy is: U= E(el) + E(ZPE) + E(vib) + E(rot) + E(trans)
    E(el)   - is the total energy from the electronic structure calculation
              = E(kin-el) + E(nuc-el) + E(el-el) + E(nuc-nuc)
    E(ZPE)  - the the zero temperature vibrational energy from the frequency calculation
    E(vib)  - the the finite temperature correction to E(ZPE) due to population
              of excited vibrational states
    E(rot)  - is the rotational thermal energy
    E(trans)- is the translational thermal energy

Summary of contributions to the inner energy U:
Electronic energy                ...  -2032.63591756 Eh
Zero point energy                ...      0.67990860 Eh     426.65 kcal/mol
Thermal vibrational correction   ...      0.03988335 Eh      25.03 kcal/mol
Thermal rotational correction    ...      0.00141627 Eh       0.89 kcal/mol
Thermal translational correction ...      0.00141627 Eh       0.89 kcal/mol
-----------------------------------------------------------------------
Total thermal energy                  -2031.91329307 Eh


Summary of corrections to the electronic energy:
(perhaps to be used in another calculation)
Total thermal correction                  0.04271590 Eh      26.80 kcal/mol
Non-thermal (ZPE) correction              0.67990860 Eh     426.65 kcal/mol
-----------------------------------------------------------------------
Total correction                          0.72262449 Eh     453.45 kcal/mol


--------
ENTHALPY
--------

The enthalpy is H = U + kB*T
                kB is Boltzmann's constant
Total thermal energy              ...  -2031.91329307 Eh 
Thermal Enthalpy correction       ...      0.00094421 Eh       0.59 kcal/mol
-----------------------------------------------------------------------
Total Enthalpy                    ...  -2031.91234886 Eh


Note: Only C1 symmetry has been detected, increase convergence thresholds 
      if your molecule has a higher symmetry. Symmetry factor of 1.0 is   
      used for the rotational entropy correction. 
 

Note: Rotational entropy computed according to Herzberg 
Infrared and Raman Spectra, Chapter V,1, Van Nostrand Reinhold, 1945 
Point Group:  C1, Symmetry Number:   1  
Rotational constants in cm-1:     0.003880     0.002243     0.001958 

Vibrational entropy computed according to the QRRHO of S. Grimme
Chem.Eur.J. 2012 18 9955 using a reference frequency of 100.0 cm-1


-------
ENTROPY
-------

The entropy contributions are T*S = T*(S(el)+S(vib)+S(rot)+S(trans))
     S(el)   - electronic entropy
     S(vib)  - vibrational entropy
     S(rot)  - rotational entropy
     S(trans)- translational entropy
The entropies will be listed as multiplied by the temperature to get
units of energy

Electronic entropy                ...      0.00000000 Eh      0.00 kcal/mol
Vibrational entropy               ...      0.07093550 Eh     44.51 kcal/mol
Rotational entropy                ...      0.01795532 Eh     11.27 kcal/mol
Translational entropy             ...      0.02138181 Eh     13.42 kcal/mol
-----------------------------------------------------------------------
Final entropy term                ...      0.11027263 Eh     69.20 kcal/mol

In case the symmetry of your molecule has not been determined correctly
or in case you have a reason to use a different symmetry number we print 
out the resulting rotational entropy values for sn=1,12:

 non-linear molecules -----------------------------------
|  sn= 1 | S(rot)=       0.01795532 Eh     11.27 kcal/mol|
|  sn= 2 | S(rot)=       0.01730086 Eh     10.86 kcal/mol|
|  sn= 3 | S(rot)=       0.01691803 Eh     10.62 kcal/mol|
|  sn= 4 | S(rot)=       0.01664641 Eh     10.45 kcal/mol|
|  sn= 5 | S(rot)=       0.01643572 Eh     10.31 kcal/mol|
|  sn= 6 | S(rot)=       0.01626357 Eh     10.21 kcal/mol|
|  sn= 7 | S(rot)=       0.01611803 Eh     10.11 kcal/mol|
|  sn= 8 | S(rot)=       0.01599195 Eh     10.04 kcal/mol|
|  sn= 9 | S(rot)=       0.01588074 Eh      9.97 kcal/mol|
|  sn=10 | S(rot)=       0.01578126 Eh      9.90 kcal/mol|
|  sn=11 | S(rot)=       0.01569127 Eh      9.85 kcal/mol|
|  sn=12 | S(rot)=       0.01560912 Eh      9.79 kcal/mol|
 linear molecules ---------------------------------------
|  Dinfh | S(rot)=       0.01121351 Eh      7.04 kcal/mol|
|  Cinfv | S(rot)=       0.01186796 Eh      7.45 kcal/mol|
 --------------------------------------------------------


-------------------
GIBBS FREE ENERGY
-------------------

The Gibbs free energy is G = H - T*S

Total enthalpy                    ...  -2031.91234886 Eh 
Total entropy correction          ...     -0.11027263 Eh    -69.20 kcal/mol
-----------------------------------------------------------------------
Final Gibbs free energy         ...  -2032.02262149 Eh

For completeness - the Gibbs free energy minus the electronic energy
G-E(el)                           ...      0.61329607 Eh    384.85 kcal/mol


Maximum memory used throughout the entire PROP-calculation: 1824.2 MB
--------------------------------------------------------------------------
WARNING: There was an error initializing an OpenFabrics device.

  Local host:   c04b01n02
  Local device: mlx5_0
--------------------------------------------------------------------------
--------------------------------------------------------------------------
WARNING: There is at least one non-excluded one OpenFabrics device found,
but there are no active ports detected (or Open MPI was unable to use
them).  This is most certainly not what you wanted.  Check your
cables, subnet manager configuration, etc.  The openib BTL will be
ignored for this job.

  Local host: c04b01n02
--------------------------------------------------------------------------
[c04b01n02:3450890] 58 more processes have sent help message help-mpi-btl-openib.txt / error in device init
[c04b01n02:3450890] Set MCA parameter "orte_base_help_aggregate" to 0 to see all help / error messages
[c04b01n02:3450890] 4 more processes have sent help message help-mpi-btl-openib.txt / no active ports found

--------------------------------
SUGGESTED CITATIONS FOR THIS RUN
--------------------------------

Below you find a list of papers that are relevant to this ORCA run
We neither can nor want to force you to cite these papers, but we appreciate if you do
You receive ORCA, which is the product of decades of hard work by many enthusiastic individuals, for free
The only thing we kindly ask in return is that you cite our papers,
We deeply appreciate it, if you show your appreciation for ORCA by not just citing the generic ORCA reference.

Please note that relegating all ORCA citations to the supporting information does *not* help us.
SI sections are not indexed - citations you put there will not count into any citation statistics
But we need these citations in order to attract the funding resources that allow us to do what we are doing

Therefore, if you are a happy ORCA user, please consider citing a few of the papers listed below in the main body of your paper

In addition to the list printed below, the program has created the file opt-conf-13.bibtex that contains the list in bibtex format
You can import this file easily into all common literature databanks and citation aid programs


List of essential papers. We consider these as the minimum necessary citations

  1. Neese, F.
     Software update: the ORCA program system, version 6.0
     WIRES Comput. Molec. Sci. 2025 15(1), e70019
     doi.org/10.1002/wcms.7019

List of papers to cite with high priority. The work reported in these papers was absolutely
necessary for this run to complete.
Our perspective: the developers of density functionals and basis sets usually get cited in chemistry papers
Good! But without the algorithms to do something with them, the functionals or basis sets would not do anything.
Hence, in our opinion, the algorithm design and method developments papers are equally worthy of getting cited

  1. Neese, F.
     An improvement of the resolution of the identity approximation for the formation of the Coulomb matrix
     J. Comp. Chem. 2003 24(14), 1740-1747
     doi.org/10.1002/jcc.10318
  2. Neese, F.; Wennmohs, F.; Hansen, A.; Becker, U.
     Efficient, approximate and parallel Hartree-Fock and hybrid DFT calculations. A 'chain-of-spheres' algorithm for the Hartree-Fock exchange
     Chem. Phys. 2009 356(1-3), 98-109
     doi.org/10.1016/j.chemphys.2008.10.036
  3. Bykov, D.; Petrenko, T.; Izsak, R.; Kossmann, S.; Becker, U.; Valeev, E.; Neese, F.
     Efficient implementation of the analytic second derivatives of Hartree-Fock and hybrid DFT energies: a detailed analysis of different approximations
     Molec. Phys. 2015 113 , 1961-1977
     doi.org/10.1080/00268976.2015.1025114
  4. Caldeweyher, E.; Bannwarth, C.; Grimme, S.
     Extension of the D3 dispersion coefficient model
     J. Chem. Phys. 2017 147 , 034112
     doi.org/10.1063/1.4993215
  5. Caldeweyher, E.; Ehlert, S.; Hansen, A.; Neugebauer, H.; Spicher, S.; Bannwarth, C.; Grimme, S.
     A generally applicable atomic-charge dependent London dispersion correction
     J. Chem. Phys. 2019 150 , 154122
     doi.org/10.1063/1.5090222
  6. Garcia-Rates, M.; Neese, F.
     Efficient implementation of the analytical second derivatives of hartree-fock and hybrid DFT energies within the framework of the conductor-like polarizable continuum model
     J. Comput. Chem. 2019 40 , 1816-1828
     doi.org/10.1002/jcc.25833
  7. Caldeweyher, E.; Mewes, J.; Ehlert, S.; Grimme, S.
     Extension and evaluation of the D4 London-dispersion model for periodic systems
     Phys. Chem. Chem. Phys. 2020 22(16), 8499-8512
     doi.org/10.1039/D0CP00502A
  8. Garcia-Rates, M.; Neese, F.
     Effect of the Solute Cavity on the Solvation Energy and its Derivatives within the Framework of the Gaussian Charge Scheme
     J. Comput. Chem. 2020 41 , 922-939
     doi.org/10.1002/jcc.26139
  9. Helmich-Paris, B.; de Souza, B.; Neese, F.; Izsák, R.
     An improved chain of spheres for exchange algorithm
     J. Chem. Phys. 2021 155(10), 104109
     doi.org/10.1063/5.0058766
 10. Neese, F.
     The SHARK Integral Generation and Digestion System
     J. Comp. Chem. 2022 44(3), 381
     doi.org/10.1002/jcc.26942
 11. Wittmann, L.; Gordiy, I.; Friede, M.; Helmich-Paris, B.; Grimme, S.; Hansen, A.; Bursch, M.
     Extension of the D3 and D4 London Dispersion Corrections to the full Actinides Series
     Phys. Chem. Chem. Phys. 2024 26(32), 21379-21394
     doi.org/10.1039/D4CP01514B

List of suggested additional citations. These are papers that are important in the 'surrounding' of 
of this run, or papers that preceded the highly important papers. If you like your results we are grateful for a citation.

  1. Izsak, R.; Neese, F.
     An overlap fitted chain of spheres exchange method
     J. Chem. Phys. 2011 135 , 144105
     doi.org/10.1063/1.3646921
  2. Izsak, R.; Hansen, A.; Neese, F.
     The resolution of identity and chain of spheres approximations for the LPNO-CCSD singles Fock term
     Molec. Phys. 2012 110 , 2413-2417
     doi.org/10.1080/00268976.2012.687466
  3. Neese, F.
     The ORCA program system
     WIRES Comput. Molec. Sci. 2012 2(1), 73-78
     doi.org/10.1002/wcms.81
  4. Izsak, R.; Neese, F.; Klopper, W.
     Robust fitting techniques in the chain of spheres approximation to the Fock exchange: The role of the complementary space
     J. Chem. Phys. 2013 139 , 
     doi.org/10.1063/1.4819264
  5. Neese, F.
     Software update: the ORCA program system, version 4.0
     WIRES Comput. Molec. Sci. 2018 8(1), 1-6
     doi.org/10.1002/wcms.1327
  6. Neese, F.; Wennmohs, F.; Becker, U.; Riplinger, C.
     The ORCA quantum chemistry program package
     J. Chem. Phys. 2020 152(22), 224108
     doi.org/10.1063/5.0004608
  7. Neese, F.
     Software update: The ORCA program system—Version 5.0
     WIRES Comput. Molec. Sci. 2022 12(1), e1606
     doi.org/10.1002/wcms.1606

List of optional additional citations

  1. Neese, F.
     Approximate second-order SCF convergence for spin unrestricted wavefunctions
     Chem. Phys. Lett. 2000 325(1-3), 93-98
     doi.org/10.1016/s0009-2614(00)00662-x

Timings for individual modules:

Sum of individual times          ...     8871.184 sec (= 147.853 min)
Startup calculation              ...      510.308 sec (=   8.505 min)   5.8 %
SCF iterations                   ...     3307.840 sec (=  55.131 min)  37.3 %
Property integrals               ...     1114.164 sec (=  18.569 min)  12.6 %
SCF Response                     ...     2421.843 sec (=  40.364 min)  27.3 %
Property calculations            ...      605.574 sec (=  10.093 min)   6.8 %
SCF Gradient evaluation          ...      901.815 sec (=  15.030 min)  10.2 %
Geometry relaxation              ...        9.640 sec (=   0.161 min)   0.1 %
                             ****ORCA TERMINATED NORMALLY****
TOTAL RUN TIME: 0 days 2 hours 31 minutes 46 seconds 149 msec
