
                                 *****************
                                 * O   R   C   A *
                                 *****************

                                            #,                                       
                                            ###                                      
                                            ####                                     
                                            #####                                    
                                            ######                                   
                                           ########,                                 
                                     ,,################,,,,,                         
                               ,,#################################,,                 
                          ,,##########################################,,             
                       ,#########################################, ''#####,          
                    ,#############################################,,   '####,        
                  ,##################################################,,,,####,       
                ,###########''''           ''''###############################       
              ,#####''   ,,,,##########,,,,          '''####'''          '####       
            ,##' ,,,,###########################,,,                        '##       
           ' ,,###''''                  '''############,,,                           
         ,,##''                                '''############,,,,        ,,,,,,###''
      ,#''                                            '''#######################'''  
     '                                                          ''''####''''         
             ,#######,   #######,   ,#######,      ##                                
            ,#'     '#,  ##    ##  ,#'     '#,    #''#        ,####,    ,#,          
            ##       ##  ##   ,#'  ##            #'  '#       #'       ,# #          
            ##       ##  #######   ##           ,######,      #####,      #          
            '#,     ,#'  ##    ##  '#,     ,#' ,#      #,     #,   #      #          
             '#######'   ##     ##  '#######'  #'      '#     '####' #    #          



                #########################################################
                #                        -***-                          #
                #          Department of theory and spectroscopy        #
                #                                                       #
                #                      Frank Neese                      #
                #                                                       #
                #     Directorship, Architecture, Infrastructure        #
                #                    SHARK, DRIVERS                     #
                #        Core code/Algorithms in most modules           #
                #                                                       #
                #        Max Planck Institute fuer Kohlenforschung      #
                #                Kaiser Wilhelm Platz 1                 #
                #                 D-45470 Muelheim/Ruhr                 #
                #                      Germany                          #
                #                                                       #
                #                  All rights reserved                  #
                #                        -***-                          #
                #########################################################


                         Program Version 6.1.0-f.0  -   RELEASE   -


 With contributions from (in alphabetic order):
[Max-Planck-Institut fuer Kohlenforschung]                               
  Daniel Aravena         : Magnetic Suceptibility                        
  Michael Atanasov       : Ab Initio Ligand Field Theory (pilot matlab implementation)
  Alexander A. Auer      : GIAO ZORA, VPT2 properties, NMR spectrum      
  Ute Becker             : All parallelization in ORCA, NUMFREQ, NUMCALC 
  Giovanni Bistoni       : ED, misc. LED, open-shell LED, HFLD           
  Dmytro Bykov           : pre 5.0 version of the SCF Hessian            
  Marcos Casanova-Páez   : Triplet and SCS-CIS(D). UHF-(DLPNO)-IP/EA/STEOM-CCSD. UHF-CVS-IP/STEOM-CCSD   
  Vijay G. Chilkuri      : MRCI spin determinant printing, contributions to CSF-ICE 
  Pauline Colinet        : FMM embedding                                 
  Dipayan Datta          : RHF DLPNO-CCSD density                        
  Achintya Kumar Dutta   : EOM-CC, STEOM-CC                              
  Nicolas Foglia         : Exact transition moments, OPA infrastructure, MCD improvements    
  Dmitry Ganyushin       : Spin-Orbit,Spin-Spin,Magnetic field MRCI      
  Miquel Garcia-Rates    : C-PCM and meta-GGA Hessian, CCSD/C-PCM, Gaussian charge scheme 
  Tiago L. C. Gouveia    : GS-ROHF, GS-ROCIS                             
  Yang Guo               : DLPNO-NEVPT2, F12-NEVPT2, CIM, IAO-localization        
  Andreas Hansen         : Spin unrestricted coupled pair/coupled cluster methods 
  Ingolf Harden          : AUTO-CI MPn and infrastructure                
  Benjamin Helmich-Paris : MC-RPA, TRAH-(SCF,CASSCF), AVAS, COSX integrals, SCF dyn. polar., MC-PDFT, srDFT 
  Lee Huntington         : MR-EOM, pCC                                   
  Robert Izsak           : Overlap fitted RIJCOSX, COSX-SCS-MP3, EOM     
  Riya Kayal             : Wick's Theorem for AUTO-CI, AUTO-CI UHF-CCSDT 
  Emily Kempfer          : AUTO-CI RHF CISDT and CCSDT, approximate NEVPT4
  Christian Kollmar      : KDIIS, OOCD, Brueckner-CCSD(T), CCSD density, CASPT2, CASPT2-K, improved NEVPT2 
  Axel Koslowski         : Symmetry handling                             
  Simone Kossmann        : meta-GGA functionals, TD-DFT gradient, OOMP2, (MP2 Hessian; deprecated post 5.0) 
  Lucas Lang             : DCDCAS, Hyperfine gauge corrections, ICE-SOC+SSC
  Marvin Lechner         : AUTO-CI (C++ implementation), FIC-MRCC        
  Spencer Leger          : CASSCF response                               
  Dagmar Lenk            : GEPOL surface, SMD, ORCA-2-JSON               
  Dimitrios Liakos       : Extrapolation schemes; Compound Job, Property file
  Dimitrios Manganas     : Further ROCIS development; embedding schemes. LFT, Crystal Embedding 
  Dimitrios Pantazis     : SARC Basis sets                               
  Anastasios Papadopoulos: AUTO-CI, single reference methods and gradients 
  Taras Petrenko         : pre 6.0 DFT Hessian and TD-DFT gradient,  ECA, NRVS 
  Petra Pikulova         : Analytic Raman intensities                    
  Peter Pinski           : DLPNO-MP2, DLPNO-MP2 Gradient                 
  Shashank Vittal Rao    : ES-AILFT, MagRelax                            
  Christoph Reimann      : Effective Core Potentials                     
  Marius Retegan         : Local ZFS, SOC                                
  Christoph Riplinger    : Optimizer, TS searches, QM/MM, DLPNO-CCSD(T), (RO)-DLPNO pert. Triples 
  Michael Roemelt        : Original ROCIS implementation, recursive CI coupling coefficients
  Masaaki Saitow         : Open-shell DLPNO-CCSD energy and density      
  Barbara Sandhoefer     : DKH picture change effects                    
  Yorick L. A. Schmerwitz: GMF and freeze-and-release deltaSCF, NEB S-IDPP initial path                    
  Kantharuban Sivalingam : CASSCF convergence/infrastructure, NEVPT2, NEVPT3, NEVPT4(SD), FIC-MRCI and CEPA variants
  Bernardo de Souza      : ESD, SOC TD-DFT                               
  Georgi L. Stoychev     : AutoAux, RI-MP2 NMR, DLPNO-MP2 response, X2C  
  Van Anh Tran           : RI-MP2 g-tensors                              
  Willem Van den Heuvel  : Paramagnetic NMR                              
  Zikuan Wang            : NOTCH, Electric field optimization            
  Frank Wennmohs         : Technical directorship and infrastructure     
  Hang Xu                : AUTO-CI-Response properties                   
                                                                         
[FACCTs GmbH]                                                            
  Markus Bursch, Nicolas Foglia, Miquel Garcia-Rates, Ingolf Harden, Hagen Neugebauer, Anastasios Papadopoulos, 
  Christoph Riplinger, Bernardo de Souza, Georgi L. Stoychev                                                    
                                                                 
  APM, various basis sets, CI-OPT, improved COSX, DLPNO-Multilevel,           
  DOCKER, DRACO, updates on ESD, Fragmentator, GOAT, IRC, LR-CPCM, L-BFGS, MBIS, meta-GGA TD-DFT gradient, ML-optimized integration grids, 
  MM, NACMEs, nearIR, NEB, NEB-TS, NL-DFT gradient (VV10), 2- and 3-layer-ONIOM, interface openCOSMO-RS, QMMM,   
  Crystal-QMMM, RESP, rigid body optimization, SF, symmetry and pop. for TD-DFT, various functionals, SOLVATOR                                   
                                                                         
[Other institutions]                                                     
  V. Asgeirsson          : NEB                                           
  Christoph Bannwarth    : sTDA-DFT, sTD-DFT, PBEh-3c, B97-3c, D3        
  Giovanni Bistoni       : ETS/NOCV, ADLD/ADEX, COVALED                  
  Martin Brehm           : Molecular dynamics                            
  Ronald Cardenas        : ETS/NOCV                                      
  Martina Colucci        : COVALED                                       
  Sebastian Ehlert       : rSCAN, r2SCAN, r2SCAN-3c, D4, dhf basis sets  
  Marvin Friede          : D4 for Fr, Ra, Ac-Lr                          
  Lars Goerigk           : TD-DFT with DH, B97 family of functionals     
  Stefan Grimme          : VdW corrections, initial TS optimization, DFT functionals, gCP, sTDA/sTD-DF 
  Waldemar Hujo          : DFT-NL                                        
  H. Jonsson             : NEB                                           
  Holger Kruse           : gCP                                           
  Marcel Mueller         : wB97X-3c, vDZP basis set                      
  Hagen Neugebauer       : wr2SCAN, Native XTB                           
  Gianluca Regni         : ADLD/ADEX                                     
  Tobias Risthaus        : pre 6.0 range-separated hybrid DFT and stability analysis
  Lukas Wittmann         : regularized MP2, r2SCAN double-hybrids, wr2SCAN        
                                                                         
We gratefully acknowledge several colleagues who have allowed us to      
interface, adapt or use parts of their codes:                            
  Ed Valeev, F. Pavosevic, A. Kumar             : LibInt (2-el integral package), F12 methods 
  Garnet Chan, S. Sharma, J. Yang, R. Olivares  : DMRG                   
  Ulf Ekstrom                                   : XCFun DFT Library      
  Mihaly Kallay                                 : mrcc  (arbitrary order and MRCC methods)
  Frank Weinhold                                : gennbo (NPA and NBO analysis)           
  Simon Mueller                                 : openCOSMO-RS                            
  Christopher J. Cramer and Donald G. Truhlar   : smd solvation model                     
  S Lehtola, MJT Oliveira, MAL Marques          : LibXC Library                           
  Liviu Ungur et al                             : ANISO software                          


 Your calculation uses the libint2 library for the computation of 2-el integrals
 For citations please refer to: http://libint.valeyev.net

 Your ORCA version has been built with support for libXC version: 7.0.0
 For citations please refer to: https://libxc.gitlab.io

 This ORCA versions uses:
   CBLAS   interface :  Fast vector & matrix operations
   LAPACKE interface :  Fast linear algebra routines
   SCALAPACK package :  Parallel linear algebra routines
   Shared memory     :  Shared parallel matrices
   BLAS/LAPACK       :  OpenBLAS 0.3.29  USE64BITINT DYNAMIC_ARCH NO_AFFINITY Cooperlake SINGLE_THREADED
        Core in use  :  Cooperlake
   Copyright (c) 2011-2014, The OpenBLAS Project


  ***********************************
  * Starting time: Sat Feb 28 18:11:55 2026
  * Host name:     c03b01n04
  * Process ID:    982807
  * Working dir.:  /lustre1/jiangy/jiangy_liuxy/NMR/B9D7C2-SSSR
  ***********************************

NOTE: MaxCore=6000 MB was set to SCF,MP2,MDCI,CIPSI,MRCI,RASCI and CIS
      => If you want to overwrite this, your respective input block should be placed after the MaxCore statement


***************************************
The coordinates will be read from file: conf-3.xyz
***************************************


Your calculation utilizes the atom-pairwise dispersion correction
based on EEQ partial charges (D4)


Warning: RI is on but no J-basis has been assigned. Assigning Def2/J (nothing to worry about!)
================================================================================

----- Orbital basis set information -----
Your calculation utilizes the basis: def2-TZVP
   F. Weigend and R. Ahlrichs, Phys. Chem. Chem. Phys. 7, 3297 (2005).

----- AuxJ basis set information -----
Your calculation utilizes the auxiliary basis: def2/J
   H-Rn: F. Weigend, Phys. Chem. Chem. Phys. 8, 1057 (2006).
   Fr-Lr: K. Eichkorn, F. Weigend, O. Treutler, R. Ahlrichs; Theor. Chem. Acc. 97, 119 (1997).

================================================================================
                                        WARNINGS
                       Please study these warnings very carefully!
================================================================================


WARNING: Geometry Optimization
  ===> : Switching off AutoStart
         For restart on a previous wavefunction, please use MOREAD

================================================================================
                                       INPUT FILE
================================================================================
NAME = opt-conf-3.inp
|  1> ! B3LYP OPT FREQ DEF2-TZVP D4 CPCM(Methanol) 
|  2> ! TightOpt
|  3> %pal nprocs 64 end
|  4> %maxcore 6000
|  5> 
|  6> %cpcm
|  7> end
|  8> 
|  9> %freq
| 10>    Temp 298.15
| 11> end
| 12> 
| 13> * xyzfile 0 1 conf-3.xyz
| 14> 
| 15> 
| 16>                          ****END OF INPUT****
================================================================================

                       *****************************
                       * Geometry Optimization Run *
                       *****************************

Geometry optimization settings:
Update method            Update   .... BFGS
Choice of coordinates    CoordSys .... (2022) Redundant Internals
Initial Hessian          InHess   .... Almloef's Model
Max. no of cycles        MaxIter  .... 246

Convergence Tolerances:
Energy Change            TolE     ....  1.0000e-06 Eh
Max. Gradient            TolMAXG  ....  1.0000e-04 Eh/bohr
RMS Gradient             TolRMSG  ....  3.0000e-05 Eh/bohr
Max. Displacement        TolMAXD  ....  1.0000e-03 bohr
RMS Displacement         TolRMSD  ....  6.0000e-04 bohr
Strict Convergence                .... False

------------------------------------------------------------------------------
                        ORCA OPTIMIZATION COORDINATE SETUP
------------------------------------------------------------------------------

The optimization will be done in redundant internal coordinates (2022)
Making redundant internal coordinates   ...  (2022 redundants) done
Evaluating the initial hessian          ...  (Almloef) done
Evaluating the coordinates              ...  done
Calculating the B-matrix                .... done
Calculating the G-matrix                .... done
The number of degrees of freedom        ....  406

    -----------------------------------------------------------------
                    Redundant Internal Coordinates


    -----------------------------------------------------------------
         Definition                    Initial Value    Approx d2E/dq
    -----------------------------------------------------------------
      1. B(C   1,C   0)                  1.4054         0.590483   
      2. B(C   2,C   1)                  1.3999         0.602452   
      3. B(C   3,C   2)                  1.3902         0.624360   
      4. B(C   4,C   3)                  1.3857         0.634705   
      5. B(C   5,C   4)                  1.3875         0.630612   
      6. B(C   5,C   0)                  1.3867         0.632530   
      7. B(C   6,C   4)                  1.5035         0.411711   
      8. B(C   7,C   6)                  1.5418         0.357774   
      9. B(C   8,C   7)                  1.5457         0.352639   
     10. B(C   9,C   8)                  1.5535         0.342664   
     11. B(C  10,C   9)                  1.5037         0.411397   
     12. B(C  11,C  10)                  1.3930         0.618032   
     13. B(C  12,C  11)                  1.3797         0.648927   
     14. B(C  13,C  12)                  1.4034         0.594717   
     15. B(C  14,C  13)                  1.3833         0.640459   
     16. B(C  15,C  10)                  1.3852         0.635997   
     17. B(C  15,C  14)                  1.3867         0.632486   
     18. B(C  16,C   7)                  1.5355         0.366153   
     19. B(C  17,C   8)                  1.5481         0.349580   
     20. B(O  18,C   2)                  1.3720         0.597760   
     21. B(O  19,C   0)                  1.3613         0.621769   
     22. B(O  20,C   1)                  1.3734         0.594714   
     23. B(O  21,C  13)                  1.3627         0.618679   
     24. B(O  22,C  12)                  1.3834         0.573433   
     25. B(C  23,O  20)                  1.4200         0.501238   
     26. B(C  24,C  23)                  1.5544         0.341526   
     27. B(C  25,C  24)                  1.5078         0.405253   
     28. B(C  26,C  23)                  1.5358         0.365751   
     29. B(O  27,C  26)                  1.4013         0.536746   
     30. B(C  28,C  25)                  1.3897         0.625536   
     31. B(C  29,C  28)                  1.3829         0.641235   
     32. B(C  30,C  29)                  1.4026         0.596516   
     33. B(C  31,C  30)                  1.3830         0.641094   
     34. B(C  32,C  31)                  1.3834         0.640228   
     35. B(C  32,C  25)                  1.3861         0.633742   
     36. B(C  33,O  19)                  1.4083         0.523253   
     37. B(C  34,O  18)                  1.4069         0.525971   
     38. B(C  35,O  22)                  1.4106         0.518815   
     39. B(O  36,C  24)                  1.4097         0.520529   
     40. B(O  37,C  16)                  1.4129         0.514454   
     41. B(O  38,C  17)                  1.4004         0.538648   
     42. B(O  39,C  29)                  1.3741         0.593294   
     43. B(O  40,C  30)                  1.3678         0.607170   
     44. B(C  41,O  39)                  1.4087         0.522494   
     45. B(H  42,C   3)                  1.0783         0.375969   
     46. B(H  43,C   5)                  1.0781         0.376220   
     47. B(H  44,C   6)                  1.0894         0.360829   
     48. B(H  45,C   6)                  1.0922         0.357227   
     49. B(H  46,C   7)                  1.0943         0.354427   
     50. B(H  47,C   8)                  1.0971         0.350787   
     51. B(H  48,C   9)                  1.0917         0.357913   
     52. B(H  49,C   9)                  1.0927         0.356585   
     53. B(H  50,C  11)                  1.0777         0.376776   
     54. B(H  51,C  14)                  1.0785         0.375684   
     55. B(H  52,C  15)                  1.0804         0.373006   
     56. B(H  53,C  16)                  1.0927         0.356494   
     57. B(H  54,C  16)                  1.0971         0.350772   
     58. B(H  55,C  17)                  1.0983         0.349262   
     59. B(H  56,C  17)                  1.0946         0.354048   
     60. B(H  57,O  21)                  0.9669         0.506989   
     61. B(H  57,O  22)                  2.1210         0.010000   
     62. B(H  58,C  23)                  1.0947         0.353906   
     63. B(H  59,C  24)                  1.0945         0.354139   
     64. B(H  60,C  26)                  1.0918         0.357665   
     65. B(H  61,C  26)                  1.0998         0.347340   
     66. B(H  62,O  20)                  2.1875         0.010000   
     67. B(H  62,O  27)                  0.9668         0.507152   
     68. B(H  63,C  28)                  1.0774         0.377208   
     69. B(H  64,C  31)                  1.0778         0.376674   
     70. B(H  65,C  32)                  1.0806         0.372790   
     71. B(H  66,H  51)                  2.7461         0.010000   
     72. B(H  66,C  33)                  1.0940         0.354869   
     73. B(H  67,C  33)                  1.0932         0.355955   
     74. B(H  68,C  33)                  1.0893         0.361043   
     75. B(H  69,C  34)                  1.0940         0.354841   
     76. B(H  70,C  34)                  1.0892         0.361109   
     77. B(H  71,H  64)                  4.2587         0.010000   
     78. B(H  71,C  34)                  1.0951         0.353477   
     79. B(H  72,C  35)                  1.0891         0.361357   
     80. B(H  73,C  35)                  1.0931         0.356072   
     81. B(H  74,C  35)                  1.0932         0.355891   
     82. B(H  75,O  36)                  0.9642         0.511942   
     83. B(H  76,O  40)                  1.9409         0.014156   
     84. B(H  76,O  37)                  0.9724         0.496888   
     85. B(H  77,O  37)                  1.8067         0.023181   
     86. B(H  77,O  38)                  0.9761         0.490030   
     87. B(H  78,O  39)                  2.1241         0.010000   
     88. B(H  78,O  22)                  2.3500         0.010000   
     89. B(H  78,O  40)                  0.9699         0.501348   
     90. B(H  79,C  41)                  1.0884         0.362262   
     91. B(H  80,C  41)                  1.0941         0.354729   
     92. B(H  81,H  67)                  2.5759         0.010000   
     93. B(H  81,C  41)                  1.0927         0.356558   
     94. A(C   1,C   0,O  19)          114.9534         0.427687   
     95. A(C   5,C   0,O  19)          124.6649         0.433002   
     96. A(C   1,C   0,C   5)          120.3790         0.431826   
     97. A(C   0,C   1,O  20)          116.1039         0.424294   
     98. A(C   0,C   1,C   2)          119.0737         0.428067   
     99. A(C   2,C   1,O  20)          124.5339         0.425821   
    100. A(C   3,C   2,O  18)          123.3955         0.428947   
    101. A(C   1,C   2,C   3)          119.5373         0.432375   
    102. A(C   1,C   2,O  18)          117.0667         0.426210   
    103. A(C   4,C   3,H  42)          118.7862         0.356915   
    104. A(C   2,C   3,H  42)          119.9505         0.355921   
    105. A(C   2,C   3,C   4)          121.2422         0.436452   
    106. A(C   5,C   4,C   6)          119.7954         0.404739   
    107. A(C   3,C   4,C   6)          120.8318         0.405201   
    108. A(C   3,C   4,C   5)          119.3677         0.437237   
    109. A(C   4,C   5,H  43)          118.8958         0.356564   
    110. A(C   0,C   5,H  43)          120.7224         0.356748   
    111. A(C   0,C   5,C   4)          120.3808         0.436966   
    112. A(C   4,C   6,H  44)          108.4022         0.329664   
    113. A(C   7,C   6,H  45)          108.7500         0.321606   
    114. A(C   4,C   6,C   7)          113.0305         0.366724   
    115. A(H  44,C   6,H  45)          108.2702         0.290566   
    116. A(C   4,C   6,H  45)          109.9075         0.329118   
    117. A(C   7,C   6,H  44)          108.3642         0.322135   
    118. A(C   6,C   7,C  16)          109.4928         0.359450   
    119. A(C   8,C   7,C  16)          114.4680         0.358566   
    120. A(C  16,C   7,H  46)          106.6440         0.322412   
    121. A(C   8,C   7,H  46)          108.9252         0.320434   
    122. A(C   6,C   7,H  46)          107.8789         0.321192   
    123. A(C   6,C   7,C   8)          109.2160         0.357158   
    124. A(C   7,C   8,C  17)          114.7128         0.355755   
    125. A(C  17,C   8,H  47)          104.0049         0.319439   
    126. A(C   7,C   8,C   9)          111.6331         0.354551   
    127. A(C   9,C   8,H  47)          106.5772         0.318399   
    128. A(C   7,C   8,H  47)          107.3152         0.319894   
    129. A(C   9,C   8,C  17)          111.8634         0.354028   
    130. A(H  48,C   9,H  49)          107.0030         0.290114   
    131. A(C  10,C   9,H  48)          108.3726         0.329180   
    132. A(C  10,C   9,H  49)          108.5474         0.328978   
    133. A(C   8,C   9,C  10)          115.7275         0.363978   
    134. A(C   8,C   9,H  48)          108.9015         0.319445   
    135. A(C   8,C   9,H  49)          107.9581         0.319252   
    136. A(C   9,C  10,C  11)          119.8681         0.403248   
    137. A(C  11,C  10,C  15)          118.9478         0.435812   
    138. A(C   9,C  10,C  15)          121.1818         0.405292   
    139. A(C  10,C  11,C  12)          120.6514         0.437395   
    140. A(C  10,C  11,H  50)          118.4781         0.355435   
    141. A(C  12,C  11,H  50)          120.8481         0.358393   
    142. A(C  11,C  12,C  13)          120.0274         0.434376   
    143. A(C  13,C  12,O  22)          115.0196         0.422078   
    144. A(C  11,C  12,O  22)          124.9444         0.428720   
    145. A(C  12,C  13,O  21)          120.3466         0.427853   
    146. A(C  12,C  13,C  14)          119.2536         0.433351   
    147. A(C  14,C  13,O  21)          120.3998         0.433584   
    148. A(C  13,C  14,H  51)          118.5772         0.357417   
    149. A(C  13,C  14,C  15)          120.2265         0.438183   
    150. A(C  15,C  14,H  51)          121.1951         0.356657   
    151. A(C  14,C  15,H  52)          119.0509         0.356224   
    152. A(C  10,C  15,H  52)          120.1350         0.356559   
    153. A(C  10,C  15,C  14)          120.8123         0.437631   
    154. A(O  37,C  16,H  54)          109.1692         0.338426   
    155. A(C   7,C  16,H  54)          108.2850         0.321865   
    156. A(O  37,C  16,H  53)          106.2174         0.339342   
    157. A(C   7,C  16,H  53)          111.4730         0.322719   
    158. A(C   7,C  16,O  37)          113.3063         0.380206   
    159. A(H  53,C  16,H  54)          108.2642         0.289187   
    160. A(O  38,C  17,H  56)          106.2628         0.341565   
    161. A(C   8,C  17,O  38)          116.2975         0.380182   
    162. A(H  55,C  17,H  56)          107.3362         0.288681   
    163. A(C   8,C  17,H  56)          108.2793         0.319922   
    164. A(O  38,C  17,H  55)          109.6612         0.340788   
    165. A(C   8,C  17,H  55)          108.6374         0.319212   
    166. A(C   2,O  18,C  34)          118.6810         0.413315   
    167. A(C   0,O  19,C  33)          118.1073         0.415835   
    168. A(C   1,O  20,C  23)          120.4768         0.409428   
    169. A(C  13,O  21,H  57)          107.0374         0.368379   
    170. A(C  12,O  22,C  35)          117.5655         0.409285   
    171. A(C  26,C  23,H  58)          109.5935         0.322276   
    172. A(C  24,C  23,H  58)          109.0898         0.318686   
    173. A(O  20,C  23,H  58)          111.1496         0.337461   
    174. A(C  24,C  23,C  26)          109.4910         0.356553   
    175. A(O  20,C  23,C  26)          105.0522         0.378424   
    176. A(O  20,C  23,C  24)          112.3757         0.373969   
    177. A(C  23,C  24,O  36)          109.7304         0.376415   
    178. A(O  36,C  24,H  59)          105.2287         0.339631   
    179. A(C  25,C  24,H  59)          109.9696         0.327790   
    180. A(C  23,C  24,H  59)          107.9525         0.318720   
    181. A(C  25,C  24,O  36)          112.9712         0.387763   
    182. A(C  23,C  24,C  25)          110.7384         0.362837   
    183. A(C  28,C  25,C  32)          119.4314         0.436481   
    184. A(C  24,C  25,C  32)          120.7909         0.403964   
    185. A(C  24,C  25,C  28)          119.7638         0.403036   
    186. A(O  27,C  26,H  61)          110.5636         0.340273   
    187. A(H  60,C  26,H  61)          109.4476         0.288891   
    188. A(C  23,C  26,H  61)          108.7731         0.321290   
    189. A(O  27,C  26,H  60)          107.2084         0.341944   
    190. A(C  23,C  26,H  60)          109.6919         0.322835   
    191. A(C  23,C  26,O  27)          111.1342         0.382942   
    192. A(C  26,O  27,H  62)          106.5548         0.359558   
    193. A(C  29,C  28,H  63)          120.6726         0.357737   
    194. A(C  25,C  28,H  63)          118.7897         0.356233   
    195. A(C  25,C  28,C  29)          120.5238         0.437406   
    196. A(C  30,C  29,O  39)          115.0073         0.424885   
    197. A(C  28,C  29,O  39)          125.4285         0.430426   
    198. A(C  28,C  29,C  30)          119.5640         0.433681   
    199. A(C  31,C  30,O  40)          120.1610         0.432200   
    200. A(C  29,C  30,O  40)          120.0800         0.426647   
    201. A(C  29,C  30,C  31)          119.7577         0.433663   
    202. A(C  32,C  31,H  64)          120.4049         0.357555   
    203. A(C  30,C  31,H  64)          119.4891         0.357637   
    204. A(C  30,C  31,C  32)          120.1047         0.439225   
    205. A(C  31,C  32,H  65)          118.8500         0.356926   
    206. A(C  25,C  32,H  65)          120.6242         0.356309   
    207. A(C  25,C  32,C  31)          120.5155         0.438311   
    208. A(H  67,C  33,H  68)          109.5181         0.290430   
    209. A(H  66,C  33,H  68)          109.1129         0.290291   
    210. A(O  19,C  33,H  68)          105.6812         0.341027   
    211. A(H  66,C  33,H  67)          109.1330         0.289646   
    212. A(O  19,C  33,H  67)          111.9733         0.340218   
    213. A(O  19,C  33,H  66)          111.3345         0.340045   
    214. A(H  69,C  34,H  71)          109.5220         0.289325   
    215. A(O  18,C  34,H  71)          111.6765         0.340116   
    216. A(H  69,C  34,H  70)          109.2089         0.290296   
    217. A(O  18,C  34,H  70)          105.4624         0.341333   
    218. A(O  18,C  34,H  69)          111.5836         0.340335   
    219. A(H  70,C  34,H  71)          109.2742         0.290120   
    220. A(H  73,C  35,H  74)          109.1618         0.289791   
    221. A(H  72,C  35,H  74)          109.5432         0.290462   
    222. A(O  22,C  35,H  74)          111.7688         0.339724   
    223. A(H  72,C  35,H  73)          109.5793         0.290485   
    224. A(O  22,C  35,H  73)          111.1179         0.339753   
    225. A(O  22,C  35,H  72)          105.6008         0.340591   
    226. A(C  24,O  36,H  75)          108.7957         0.358258   
    227. A(C  16,O  37,H  76)          108.0176         0.355736   
    228. A(C  17,O  38,H  77)          105.9247         0.357678   
    229. A(C  29,O  39,C  41)          117.6131         0.412280   
    230. A(C  30,O  40,H  78)          107.8197         0.366490   
    231. A(H  80,C  41,H  81)          109.6133         0.289705   
    232. A(H  79,C  41,H  81)          109.1446         0.290661   
    233. A(O  39,C  41,H  81)          111.4857         0.340232   
    234. A(H  79,C  41,H  80)          109.5784         0.290427   
    235. A(O  39,C  41,H  80)          111.0325         0.339940   
    236. A(O  39,C  41,H  79)          105.8995         0.341136   
    237. D(O  20,C   1,C   0,O  19)     -3.5976         0.023996   
    238. D(C   2,C   1,C   0,O  19)   -177.7089         0.023996   
    239. D(C   2,C   1,C   0,C   5)      1.7147         0.023996   
    240. D(O  20,C   1,C   0,C   5)    175.8260         0.023996   
    241. D(O  18,C   2,C   1,C   0)    178.4935         0.025032   
    242. D(C   3,C   2,C   1,C   0)     -1.2575         0.025032   
    243. D(C   3,C   2,C   1,O  20)   -174.8362         0.025032   
    244. D(O  18,C   2,C   1,O  20)      4.9148         0.025032   
    245. D(C   4,C   3,C   2,C   1)      0.3570         0.026998   
    246. D(H  42,C   3,C   2,O  18)     -1.0690         0.026998   
    247. D(C   4,C   3,C   2,O  18)   -179.3775         0.026998   
    248. D(H  42,C   3,C   2,C   1)    178.6655         0.026998   
    249. D(C   6,C   4,C   3,H  42)      0.9684         0.027959   
    250. D(C   5,C   4,C   3,H  42)   -178.2113         0.027959   
    251. D(C   5,C   4,C   3,C   2)      0.1164         0.027959   
    252. D(C   6,C   4,C   3,C   2)    179.2961         0.027959   
    253. D(H  43,C   5,C   4,C   6)      0.7966         0.027576   
    254. D(H  43,C   5,C   4,C   3)    179.9849         0.027576   
    255. D(C   0,C   5,C   4,C   3)      0.3354         0.027576   
    256. D(C   4,C   5,C   0,O  19)    178.1043         0.027755   
    257. D(H  43,C   5,C   0,C   1)    179.0966         0.027755   
    258. D(H  43,C   5,C   0,O  19)     -1.5388         0.027755   
    259. D(C   0,C   5,C   4,C   6)   -178.8529         0.027576   
    260. D(C   4,C   5,C   0,C   1)     -1.2603         0.027755   
    261. D(H  45,C   6,C   4,C   3)    -19.3431         0.012550   
    262. D(H  44,C   6,C   4,C   5)     41.6770         0.012550   
    263. D(H  44,C   6,C   4,C   3)   -137.4992         0.012550   
    264. D(C   7,C   6,C   4,C   5)    -78.4702         0.012550   
    265. D(C   7,C   6,C   4,C   3)    102.3536         0.012550   
    266. D(C   8,C   7,C   6,H  44)     46.3581         0.010278   
    267. D(C   8,C   7,C   6,C   4)    166.5270         0.010278   
    268. D(C  16,C   7,C   6,H  45)     54.9357         0.010278   
    269. D(C  16,C   7,C   6,H  44)    172.4208         0.010278   
    270. D(C   8,C   7,C   6,H  45)    -71.1270         0.010278   
    271. D(C  16,C   7,C   6,C   4)    -67.4103         0.010278   
    272. D(C  17,C   8,C   7,H  46)    -83.4511         0.010007   
    273. D(C  17,C   8,C   7,C  16)     35.8035         0.010007   
    274. D(C  17,C   8,C   7,C   6)    158.9548         0.010007   
    275. D(C   9,C   8,C   7,C  16)    164.3773         0.010007   
    276. D(C   9,C   8,C   7,H  46)     45.1227         0.010007   
    277. D(C   9,C   8,C   7,C   6)    -72.4715         0.010007   
    278. D(H  48,C   9,C   8,C  17)   -140.6956         0.010000   
    279. D(H  48,C   9,C   8,C   7)     89.2332         0.010000   
    280. D(C  10,C   9,C   8,H  47)   -149.9780         0.010000   
    281. D(C  10,C   9,C   8,C  17)     96.9733         0.010000   
    282. D(H  48,C   9,C   8,H  47)    -27.6468         0.010000   
    283. D(C  10,C   9,C   8,C   7)    -33.0980         0.010000   
    284. D(C  15,C  10,C   9,H  48)     -0.8270         0.012532   
    285. D(C  15,C  10,C   9,C   8)    121.7844         0.012532   
    286. D(C  11,C  10,C   9,H  49)     63.8601         0.012532   
    287. D(C  11,C  10,C   9,H  48)    179.7372         0.012532   
    288. D(C  11,C  10,C   9,C   8)    -57.6514         0.012532   
    289. D(H  50,C  11,C  10,C  15)    178.8321         0.026421   
    290. D(H  50,C  11,C  10,C   9)     -1.7195         0.026421   
    291. D(C  12,C  11,C  10,C  15)     -2.8747         0.026421   
    292. D(C  12,C  11,C  10,C   9)    176.5737         0.026421   
    293. D(O  22,C  12,C  11,H  50)      2.0725         0.029314   
    294. D(C  13,C  12,C  11,H  50)   -179.0508         0.029314   
    295. D(O  22,C  12,C  11,C  10)   -176.1800         0.029314   
    296. D(C  13,C  12,C  11,C  10)      2.6966         0.029314   
    297. D(O  21,C  13,C  12,C  11)    179.7123         0.024360   
    298. D(C  14,C  13,C  12,O  22)    178.6504         0.024360   
    299. D(C  14,C  13,C  12,C  11)     -0.3334         0.024360   
    300. D(O  21,C  13,C  12,O  22)     -1.3038         0.024360   
    301. D(H  51,C  14,C  13,O  21)     -1.4612         0.028502   
    302. D(H  51,C  14,C  13,C  12)    178.5845         0.028502   
    303. D(C  15,C  14,C  13,O  21)    178.1436         0.028502   
    304. D(C  15,C  14,C  13,C  12)     -1.8106         0.028502   
    305. D(H  52,C  15,C  14,H  51)      0.7411         0.027751   
    306. D(H  52,C  15,C  14,C  13)   -178.8532         0.027751   
    307. D(C  10,C  15,C  14,H  51)   -178.7778         0.027751   
    308. D(C  10,C  15,C  14,C  13)      1.6279         0.027751   
    309. D(H  52,C  15,C  10,C  11)   -178.8022         0.028080   
    310. D(H  52,C  15,C  10,C   9)      1.7569         0.028080   
    311. D(C  14,C  15,C  10,C  11)      0.7115         0.028080   
    312. D(C  14,C  15,C  10,C   9)   -178.7294         0.028080   
    313. D(H  53,C  16,C   7,H  46)    157.7204         0.010732   
    314. D(H  53,C  16,C   7,C   8)     37.1928         0.010732   
    315. D(H  53,C  16,C   7,C   6)    -85.8092         0.010732   
    316. D(O  37,C  16,C   7,H  46)     37.9689         0.010732   
    317. D(O  37,C  16,C   7,C   8)    -82.5588         0.010732   
    318. D(O  37,C  16,C   7,C   6)    154.4392         0.010732   
    319. D(H  55,C  17,C   8,H  47)     45.5133         0.010000   
    320. D(H  55,C  17,C   8,C   9)    160.1534         0.010000   
    321. D(H  55,C  17,C   8,C   7)    -71.3882         0.010000   
    322. D(O  38,C  17,C   8,H  47)    169.7586         0.010000   
    323. D(O  38,C  17,C   8,C   9)    -75.6013         0.010000   
    324. D(O  38,C  17,C   8,C   7)     52.8570         0.010000   
    325. D(C  34,O  18,C   2,C   3)      2.6253         0.026084   
    326. D(C  34,O  18,C   2,C   1)   -177.1153         0.026084   
    327. D(C  33,O  19,C   0,C   5)     -7.1743         0.028375   
    328. D(C  33,O  19,C   0,C   1)    172.2211         0.028375   
    329. D(C  23,O  20,C   1,C   2)    -52.4877         0.028464   
    330. D(C  23,O  20,C   1,C   0)    133.7612         0.028464   
    331. D(H  57,O  21,C  13,C  14)    177.7152         0.028074   
    332. D(H  57,O  21,C  13,C  12)     -2.3311         0.028074   
    333. D(C  35,O  22,C  12,C  13)    168.8403         0.028617   
    334. D(C  35,O  22,C  12,C  11)    -12.2329         0.028617   
    335. D(H  58,C  23,O  20,C   1)     41.7233         0.021552   
    336. D(C  26,C  23,O  20,C   1)    160.1724         0.021552   
    337. D(C  24,C  23,O  20,C   1)    -80.8573         0.021552   
    338. D(O  36,C  24,C  23,H  58)     47.4830         0.010000   
    339. D(O  36,C  24,C  23,C  26)    -72.4459         0.010000   
    340. D(O  36,C  24,C  23,O  20)    171.2186         0.010000   
    341. D(C  25,C  24,C  23,H  58)    -77.9065         0.010000   
    342. D(C  25,C  24,C  23,C  26)    162.1646         0.010000   
    343. D(C  25,C  24,C  23,O  20)     45.8291         0.010000   
    344. D(C  32,C  25,C  24,O  36)    -57.2671         0.012175   
    345. D(C  32,C  25,C  24,C  23)     66.2764         0.012175   
    346. D(C  28,C  25,C  24,H  59)      6.8651         0.012175   
    347. D(C  28,C  25,C  24,O  36)    124.0958         0.012175   
    348. D(C  28,C  25,C  24,C  23)   -112.3607         0.012175   
    349. D(H  60,C  26,C  23,H  58)    -68.6960         0.010709   
    350. D(H  60,C  26,C  23,C  24)     50.9239         0.010709   
    351. D(H  60,C  26,C  23,O  20)    171.8112         0.010709   
    352. D(O  27,C  26,C  23,H  58)    172.9298         0.010709   
    353. D(O  27,C  26,C  23,C  24)    -67.4504         0.010709   
    354. D(O  27,C  26,C  23,O  20)     53.4370         0.010709   
    355. D(H  62,O  27,C  26,H  61)     75.1454         0.022905   
    356. D(H  62,O  27,C  26,H  60)   -165.6154         0.022905   
    357. D(H  62,O  27,C  26,C  23)    -45.7535         0.022905   
    358. D(H  63,C  28,C  25,C  32)    178.9496         0.027106   
    359. D(H  63,C  28,C  25,C  24)     -2.3947         0.027106   
    360. D(C  29,C  28,C  25,C  32)     -2.4004         0.027106   
    361. D(C  29,C  28,C  25,C  24)    176.2554         0.027106   
    362. D(C  30,C  29,C  28,H  63)    178.3944         0.028576   
    363. D(C  30,C  29,C  28,C  25)     -0.2300         0.028576   
    364. D(O  39,C  29,C  28,H  63)     -1.7856         0.028576   
    365. D(O  39,C  29,C  28,C  25)    179.5899         0.028576   
    366. D(O  40,C  30,C  29,O  39)      2.5251         0.024515   
    367. D(O  40,C  30,C  29,C  28)   -177.6368         0.024515   
    368. D(C  31,C  30,C  29,O  39)   -177.0501         0.024515   
    369. D(C  31,C  30,C  29,C  28)      2.7880         0.024515   
    370. D(H  64,C  31,C  30,O  40)     -2.6849         0.028562   
    371. D(H  64,C  31,C  30,C  29)    176.8899         0.028562   
    372. D(C  32,C  31,C  30,O  40)    177.7219         0.028562   
    373. D(C  32,C  31,C  30,C  29)     -2.7033         0.028562   
    374. D(H  65,C  32,C  31,H  64)      1.6221         0.028480   
    375. D(H  65,C  32,C  31,C  30)   -178.7884         0.028480   
    376. D(C  25,C  32,C  31,H  64)   -179.5361         0.028480   
    377. D(C  25,C  32,C  31,C  30)      0.0534         0.028480   
    378. D(H  65,C  32,C  25,C  28)   -178.6779         0.027868   
    379. D(H  65,C  32,C  25,C  24)      2.6806         0.027868   
    380. D(C  31,C  32,C  25,C  28)      2.5010         0.027868   
    381. D(C  31,C  32,C  25,C  24)   -176.1406         0.027868   
    382. D(H  68,C  33,O  19,C   0)   -174.2546         0.021718   
    383. D(H  67,C  33,O  19,C   0)     66.5706         0.021718   
    384. D(H  66,C  33,O  19,C   0)    -55.9111         0.021718   
    385. D(H  71,C  34,O  18,C   2)    -63.1184         0.021954   
    386. D(H  70,C  34,O  18,C   2)    178.2944         0.021954   
    387. D(H  69,C  34,O  18,C   2)     59.8348         0.021954   
    388. D(H  74,C  35,O  22,C  12)     65.7810         0.024871   
    389. D(H  73,C  35,O  22,C  12)    -56.4356         0.024871   
    390. D(H  72,C  35,O  22,C  12)   -175.1747         0.024871   
    391. D(H  75,O  36,C  24,H  59)    173.6988         0.021483   
    392. D(H  75,O  36,C  24,C  25)     53.7100         0.021483   
    393. D(H  75,O  36,C  24,C  23)    -70.3882         0.021483   
    394. D(H  76,O  37,C  16,H  54)     62.0387         0.022753   
    395. D(H  76,O  37,C  16,H  53)    178.5681         0.022753   
    396. D(H  76,O  37,C  16,C   7)    -58.7207         0.022753   
    397. D(H  77,O  38,C  17,H  56)    166.6858         0.023076   
    398. D(H  77,O  38,C  17,H  55)     50.9742         0.023076   
    399. D(H  77,O  38,C  17,C   8)    -72.7436         0.023076   
    400. D(C  41,O  39,C  29,C  30)    170.6339         0.028318   
    401. D(C  41,O  39,C  29,C  28)     -9.1933         0.028318   
    402. D(H  78,O  40,C  30,C  31)    178.0745         0.029757   
    403. D(H  78,O  40,C  30,C  29)     -1.4989         0.029757   
    404. D(H  81,C  41,O  39,C  29)     66.4651         0.023503   
    405. D(H  80,C  41,O  39,C  29)    -56.0717         0.023503   
    406. D(H  79,C  41,O  39,C  29)   -174.9417         0.023503   
    -----------------------------------------------------------------

Number of atoms                         .... 82
Number of degrees of freedom            .... 406


         *************************************************************
         *                GEOMETRY OPTIMIZATION CYCLE   1            *
         *************************************************************
---------------------------------
CARTESIAN COORDINATES (ANGSTROEM)
---------------------------------
  C     28.909235  -28.960295    0.096308
  C     30.022547  -28.169481   -0.235704
  C     30.486741  -27.226035    0.688520
  C     29.824781  -27.071332    1.901164
  C     28.715736  -27.839474    2.217692
  C     28.258976  -28.782343    1.308042
  C     28.016239  -27.675431    3.538460
  C     26.710755  -26.862068    3.432674
  C     25.899352  -27.030375    4.737466
  C     25.270612  -28.447101    4.842190
  C     24.858361  -29.076187    3.540054
  C     23.946696  -28.424473    2.712719
  C     23.610566  -28.952262    1.483091
  C     24.144794  -30.185294    1.078305
  C     25.012679  -30.855474    1.921539
  C     25.378323  -30.294801    3.135954
  C     27.041680  -25.406511    3.072834
  C     24.857004  -25.916248    4.999677
  O     31.595112  -26.498685    0.335006
  O     28.559528  -29.882534   -0.841977
  O     30.653007  -28.478667   -1.416060
  O     23.812640  -30.715389   -0.132301
  O     22.776691  -28.345045    0.561353
  C     31.011594  -27.453679   -2.331024
  C     29.812969  -26.999546   -3.210381
  C     28.580247  -26.792658   -2.367062
  C     32.094838  -28.076903   -3.223626
  O     31.654927  -29.283474   -3.784379
  C     27.492380  -27.644680   -2.514746
  C     26.384597  -27.517662   -1.696712
  C     26.364726  -26.522836   -0.708159
  C     27.425933  -25.642789   -0.598526
  C     28.527804  -25.778253   -1.423881
  C     27.562437  -30.820404   -0.511132
  C     32.127256  -25.584903    1.262965
  C     22.022831  -27.234539    0.995241
  O     30.172197  -25.854411   -3.949891
  O     25.986579  -24.740930    2.409480
  O     23.952820  -25.656007    3.962466
  O     25.254583  -28.296921   -1.759393
  O     25.295338  -26.418719    0.138257
  C     25.126996  -29.175218   -2.853322
  H     30.189292  -26.361928    2.626782
  H     27.395678  -29.375948    1.562215
  H     27.773824  -28.664934    3.924489
  H     28.680043  -27.182639    4.252167
  H     26.129434  -27.266771    2.598513
  H     26.603200  -26.937668    5.573949
  H     25.980150  -29.113215    5.336726
  H     24.392370  -28.378969    5.488702
  H     23.532417  -27.486109    3.043224
  H     25.398604  -31.812989    1.609581
  H     26.071959  -30.826119    3.771460
  H     27.263344  -24.814572    3.964211
  H     27.930098  -25.404525    2.429069
  H     25.389313  -24.993241    5.266155
  H     24.254344  -26.206919    5.865985
  H     23.175227  -30.113378   -0.539896
  H     31.422185  -26.583719   -1.808528
  H     29.628532  -27.778015   -3.957372
  H     32.324157  -27.401250   -4.050085
  H     33.000392  -28.238573   -2.620765
  H     31.241604  -29.785277   -3.068812
  H     27.537421  -28.418817   -3.262676
  H     27.383789  -24.848891    0.129139
  H     29.354012  -25.091622   -1.307466
  H     27.822426  -31.374598    0.395551
  H     26.585919  -30.348353   -0.374893
  H     27.518270  -31.512004   -1.351541
  H     32.432879  -26.082663    2.187992
  H     33.004625  -25.157506    0.779233
  H     31.416880  -24.784636    1.495515
  H     21.381525  -26.969866    0.155773
  H     21.406264  -27.490966    1.860617
  H     22.662059  -26.384852    1.249222
  H     30.250569  -25.106675   -3.346165
  H     25.782844  -25.235028    1.597181
  H     24.464649  -25.196192    3.270047
  H     24.649622  -27.096891   -0.114488
  H     24.138805  -29.622298   -2.763061
  H     25.199494  -28.634403   -3.801634
  H     25.881698  -29.964815   -2.822760

----------------------------
CARTESIAN COORDINATES (A.U.)
----------------------------
  NO LB      ZA    FRAG     MASS         X           Y           Z
   0 C     6.0000    0    12.011   54.630537  -54.727026    0.181995
   1 C     6.0000    0    12.011   56.734392  -53.232605   -0.445417
   2 C     6.0000    0    12.011   57.611591  -51.449750    1.301115
   3 C     6.0000    0    12.011   56.360667  -51.157404    3.592679
   4 C     6.0000    0    12.011   54.264876  -52.608981    4.190830
   5 C     6.0000    0    12.011   53.401726  -54.390746    2.471840
   6 C     6.0000    0    12.011   52.943018  -52.298985    6.686719
   7 C     6.0000    0    12.011   50.476012  -50.761952    6.486814
   8 C     6.0000    0    12.011   48.942682  -51.080007    8.952513
   9 C     6.0000    0    12.011   47.754535  -53.757231    9.150414
  10 C     6.0000    0    12.011   46.975495  -54.946030    6.689732
  11 C     6.0000    0    12.011   45.252698  -53.714470    5.126296
  12 C     6.0000    0    12.011   44.617504  -54.711846    2.802636
  13 C     6.0000    0    12.011   45.627048  -57.041939    2.037701
  14 C     6.0000    0    12.011   47.267113  -58.308395    3.631182
  15 C     6.0000    0    12.011   47.958080  -57.248877    5.926095
  16 C     6.0000    0    12.011   51.101369  -48.011347    5.806815
  17 C     6.0000    0    12.011   46.972931  -48.974611    9.448019
  18 O     8.0000    0    15.999   59.706110  -50.075257    0.633070
  19 O     8.0000    0    15.999   53.969687  -56.469806   -1.591106
  20 O     8.0000    0    15.999   57.925789  -53.816882   -2.675966
  21 O     8.0000    0    15.999   44.999367  -58.043674   -0.250012
  22 O     8.0000    0    15.999   43.041708  -53.564373    1.060804
  23 C     6.0000    0    12.011   58.603420  -51.879936   -4.404998
  24 C     6.0000    0    12.011   56.338346  -51.021748   -6.066740
  25 C     6.0000    0    12.011   54.008840  -50.630786   -4.473098
  26 C     6.0000    0    12.011   60.650455  -53.057658   -6.091770
  27 O     8.0000    0    15.999   59.819144  -55.337746   -7.151440
  28 C     6.0000    0    12.011   51.953070  -52.240874   -4.752181
  29 C     6.0000    0    12.011   49.859662  -52.000845   -3.206321
  30 C     6.0000    0    12.011   49.822111  -50.120896   -1.338226
  31 C     6.0000    0    12.011   51.827502  -48.457849   -1.131050
  32 C     6.0000    0    12.011   53.909736  -48.713839   -2.690745
  33 C     6.0000    0    12.011   52.085457  -58.242123   -0.965899
  34 C     6.0000    0    12.011   60.711715  -48.348460    2.386657
  35 C     6.0000    0    12.011   41.617119  -51.465821    1.880734
  36 O     8.0000    0    15.999   57.017190  -48.857756   -7.464212
  37 O     8.0000    0    15.999   49.107517  -46.753581    4.553257
  38 O     8.0000    0    15.999   45.264270  -48.482826    7.487975
  39 O     8.0000    0    15.999   47.724246  -53.473431   -3.324771
  40 O     8.0000    0    15.999   47.801262  -49.924145    0.261268
  41 C     6.0000    0    12.011   47.483142  -55.133172   -5.391997
  42 H     1.0000    0     1.008   57.049495  -49.816823    4.963900
  43 H     1.0000    0     1.008   51.770329  -55.512497    2.952158
  44 H     1.0000    0     1.008   52.484920  -54.168875    7.416209
  45 H     1.0000    0     1.008   54.197426  -51.367744    8.035431
  46 H     1.0000    0     1.008   49.377475  -51.526729    4.910478
  47 H     1.0000    0     1.008   50.272762  -50.904815   10.533237
  48 H     1.0000    0     1.008   49.095369  -55.016003   10.084950
  49 H     1.0000    0     1.008   46.094898  -53.628479   10.372144
  50 H     1.0000    0     1.008   44.469823  -51.941218    5.750860
  51 H     1.0000    0     1.008   47.996406  -60.117837    3.041667
  52 H     1.0000    0     1.008   49.268862  -58.252922    7.127026
  53 H     1.0000    0     1.008   51.520254  -46.892744    7.491273
  54 H     1.0000    0     1.008   52.780237  -48.007596    4.590274
  55 H     1.0000    0     1.008   47.978847  -47.230382    9.951591
  56 H     1.0000    0     1.008   45.834068  -49.523899   11.085106
  57 H     1.0000    0     1.008   43.794831  -56.906037   -1.020255
  58 H     1.0000    0     1.008   59.379323  -50.235948   -3.417622
  59 H     1.0000    0     1.008   55.989811  -52.492841   -7.478349
  60 H     1.0000    0     1.008   61.083805  -51.780857   -7.653552
  61 H     1.0000    0     1.008   62.361703  -53.363170   -4.952527
  62 H     1.0000    0     1.008   59.038076  -56.286016   -5.799214
  63 H     1.0000    0     1.008   52.038183  -53.703781   -6.165563
  64 H     1.0000    0     1.008   51.747862  -46.957598    0.244038
  65 H     1.0000    0     1.008   55.471044  -47.416293   -2.470752
  66 H     1.0000    0     1.008   52.576765  -59.289398    0.747483
  67 H     1.0000    0     1.008   50.240106  -57.350075   -0.708446
  68 H     1.0000    0     1.008   52.001994  -59.549057   -2.554043
  69 H     1.0000    0     1.008   61.289258  -49.289090    4.134707
  70 H     1.0000    0     1.008   62.369702  -47.540797    1.472538
  71 H     1.0000    0     1.008   59.369298  -46.836174    2.826113
  72 H     1.0000    0     1.008   40.405227  -50.965661    0.294368
  73 H     1.0000    0     1.008   40.451976  -51.950397    3.516056
  74 H     1.0000    0     1.008   42.825084  -49.860144    2.360687
  75 H     1.0000    0     1.008   57.165291  -47.444740   -6.323335
  76 H     1.0000    0     1.008   48.722515  -47.687291    3.018234
  77 H     1.0000    0     1.008   46.231486  -47.613902    6.179494
  78 H     1.0000    0     1.008   46.581036  -51.205702   -0.216352
  79 H     1.0000    0     1.008   45.615731  -55.978031   -5.221428
  80 H     1.0000    0     1.008   47.620142  -54.111179   -7.184047
  81 H     1.0000    0     1.008   48.909322  -56.625294   -5.334243

--------------------------------
INTERNAL COORDINATES (ANGSTROEM)
--------------------------------
 C      0   0   0     0.000000000000     0.00000000     0.00000000
 C      1   0   0     1.405376041619     0.00000000     0.00000000
 C      2   1   0     1.399913294658   119.07367689     0.00000000
 C      3   2   1     1.390190424140   119.53731662   358.74246388
 C      4   3   2     1.385716869050   121.24218963     0.35700789
 C      1   2   3     1.386651232076   120.37895898     1.71474537
 C      5   4   3     1.503540144638   120.83183087   179.29610792
 C      7   5   4     1.541764210101   113.03045701   102.35361840
 C      8   7   5     1.545698943740   109.21597426   166.52703477
 C      9   8   7     1.553510289300   111.63306666   287.52854983
 C     10   9   8     1.503747983756   115.72745462   326.90204725
 C     11  10   9     1.392963163017   119.86808854   302.34863160
 C     12  11  10     1.379684678788   120.65142012   176.57370726
 C     13  12  11     1.403431064659   120.02735131     2.69661833
 C     14  13  12     1.383260435711   119.25360186   359.66656140
 C     11  10   9     1.385163275963   121.18178369   121.78442854
 C      8   7   5     1.535462048678   109.49276310   292.58971851
 C      9   8   7     1.548070819967   114.71278000   158.95476128
 O      3   2   1     1.372041722187   117.06669421   178.49351651
 O      1   2   3     1.361322268904   114.95340440   182.29114726
 O      2   1   3     1.373432274004   116.10387907   174.11130212
 O     14  13  12     1.362678582885   120.34661642   179.71231975
 O     13  12  11     1.383351309202   124.94438700   183.81996862
 C     21   2   1     1.419980345738   120.47684879   133.76122292
 C     24  21   2     1.554415462827   112.37572750   279.14273582
 C     25  24  21     1.507843631435   110.73839793    45.82914616
 C     24  21   2     1.535761457085   105.05220027   160.17237203
 O     27  24  21     1.401348884680   111.13422751    53.43700186
 C     26  25  24     1.389678165203   119.76379964   247.63930236
 C     29  26  25     1.382930733483   120.52375623   176.25536673
 C     30  29  26     1.402608735124   119.56397127   359.76998611
 C     31  30  29     1.382990671129   119.75769003     2.78801868
 C     32  31  30     1.383358647200   120.10471503   357.29668030
 C     20   1   2     1.408279376480   118.10732758   172.22112523
 C     19   3   2     1.406868992823   118.68102438   182.88468768
 C     23  13  12     1.410598317339   117.56547352   347.76705432
 O     25  24  21     1.409700468833   109.73036085   171.21861715
 O     17   8   7     1.412895778344   113.30629114   154.43924660
 O     18   9   8     1.400386037996   116.29752157    52.85702721
 O     30  29  26     1.374082995683   125.42848482   179.58994173
 O     31  30  29     1.367789840674   120.07997191   182.36316965
 C     40  30  29     1.408674812406   117.61308931   350.80672743
 H      4   3   2     1.078260727682   119.95047476   178.66550119
 H      6   1   2     1.078079070020   120.72244163   179.09661293
 H      7   5   4     1.089449173969   108.40222883   222.50078673
 H      7   5   4     1.092180342186   109.90747341   340.65687116
 H      8   7   5     1.094322861585   107.87888991    48.27607151
 H      9   8   7     1.097132439960   107.31518892    43.96057659
 H     10   9   8     1.091658032141   108.90149875    89.23319463
 H     10   9   8     1.092670439457   107.95805257   205.07551082
 H     12  11  10     1.077677474865   118.47812320   358.28046919
 H     15  14  13     1.078467192448   118.57723865   178.58454878
 H     16  11  10     1.080414706143   120.13502736     1.75692268
 H     17   8   7     1.092739722519   111.47300421   274.19080588
 H     17   8   7     1.097144305859   108.28504908    33.18119137
 H     18   9   8     1.098318478538   108.63739812   288.61176616
 H     18   9   8     1.094613957562   108.27931900   172.34284271
 H     22  14  13     0.966874810720   107.03735102   357.66890073
 H     24  21   2     1.094723051753   111.14962300    41.72333907
 H     25  24  21     1.094544022122   107.95253865   285.39467039
 H     27  24  21     1.091846983966   109.69189777   171.81122828
 H     27  24  21     1.099820903667   108.77311905   291.49053499
 H     28  27  24     0.966787469677   106.55484825   314.24649927
 H     29  26  25     1.077365387037   118.78970708   357.60534910
 H     32  31  30     1.077750776904   119.48912982   176.88994019
 H     33  32  31     1.080572072287   118.85000870   181.21157252
 H     34  20   1     1.093982912507   111.33447900   304.08893483
 H     34  20   1     1.093151533672   111.97332200    66.57061441
 H     34  20   1     1.089288000290   105.68124381   185.74538508
 H     35  19   3     1.094004994371   111.58358407    59.83480508
 H     35  19   3     1.089238394226   105.46240972   178.29438133
 H     35  19   3     1.095053470414   111.67652649   296.88161449
 H     36  23  13     1.089051272994   105.60084105   184.82531986
 H     36  23  13     1.093061675388   111.11790531   303.56435977
 H     36  23  13     1.093200651576   111.76878447    65.78102634
 H     37  25  24     0.964228524959   108.79568319   289.61183543
 H     38  17   8     0.972353024999   108.01763976   301.27931215
 H     39  18   9     0.976135899621   105.92466094   287.25641314
 H     41  31  30     0.969920255602   107.81969108   358.50109091
 H     42  40  30     1.088370322066   105.89949230   185.05826761
 H     42  40  30     1.094090304738   111.03252409   303.92831227
 H     42  40  30     1.092690426413   111.48571678    66.46513261

---------------------------
INTERNAL COORDINATES (A.U.)
---------------------------
 C      0   0   0     0.000000000000     0.00000000     0.00000000
 C      1   0   0     2.655775833834     0.00000000     0.00000000
 C      2   1   0     2.645452738138   119.07367689     0.00000000
 C      3   2   1     2.627079175624   119.53731662   358.74246388
 C      4   3   2     2.618625381660   121.24218963     0.35700789
 C      1   2   3     2.620391071888   120.37895898     1.71474537
 C      5   4   3     2.841279104723   120.83183087   179.29610792
 C      7   5   4     2.913512120173   113.03045701   102.35361840
 C      8   7   5     2.920947689160   109.21597426   166.52703477
 C      9   8   7     2.935708993005   111.63306666   287.52854983
 C     10   9   8     2.841671863734   115.72745462   326.90204725
 C     11  10   9     2.632318892742   119.86808854   302.34863160
 C     12  11  10     2.607226194077   120.65142012   176.57370726
 C     13  12  11     2.652100360044   120.02735131     2.69661833
 C     14  13  12     2.613983395383   119.25360186   359.66656140
 C     11  10   9     2.617579242335   121.18178369   121.78442854
 C      8   7   5     2.901602761030   109.49276310   292.58971851
 C      9   8   7     2.925429885652   114.71278000   158.95476128
 O      3   2   1     2.592783099248   117.06669421   178.49351651
 O      1   2   3     2.572526268236   114.95340440   182.29114726
 O      2   1   3     2.595410861355   116.10387907   174.11130212
 O     14  13  12     2.575089330213   120.34661642   179.71231975
 O     13  12  11     2.614155121394   124.94438700   183.81996862
 C     21   2   1     2.683373968996   120.47684879   133.76122292
 C     24  21   2     2.937419523075   112.37572750   279.14273582
 C     25  24  21     2.849411516189   110.73839793    45.82914616
 C     24  21   2     2.902168560922   105.05220027   160.17237203
 O     27  24  21     2.648165610122   111.13422751    53.43700186
 C     26  25  24     2.626111146523   119.76379964   247.63930236
 C     29  26  25     2.613360348466   120.52375623   176.25536673
 C     30  29  26     2.650546382431   119.56397127   359.76998611
 C     31  30  29     2.613473614202   119.75769003     2.78801868
 C     32  31  30     2.614168988200   120.10471503   357.29668030
 C     20   1   2     2.661262341596   118.10732758   172.22112523
 C     19   3   2     2.658597102742   118.68102438   182.88468768
 C     23  13  12     2.665644504742   117.56547352   347.76705432
 O     25  24  21     2.663947816954   109.73036085   171.21861715
 O     17   8   7     2.669986076843   113.30629114   154.43924660
 O     18   9   8     2.646346093580   116.29752157    52.85702721
 O     30  29  26     2.596640547119   125.42848482   179.58994173
 O     31  30  29     2.584748207633   120.07997191   182.36316965
 C     40  30  29     2.662009607199   117.61308931   350.80672743
 H      4   3   2     2.037617476282   119.95047476   178.66550119
 H      6   1   2     2.037274193051   120.72244163   179.09661293
 H      7   5   4     2.058760575627   108.40222883   222.50078673
 H      7   5   4     2.063921735585   109.90747341   340.65687116
 H      8   7   5     2.067970510485   107.87888991    48.27607151
 H      9   8   7     2.073279844165   107.31518892    43.96057659
 H     10   9   8     2.062934712642   108.90149875    89.23319463
 H     10   9   8     2.064847885206   107.95805257   205.07551082
 H     12  11  10     2.036515288190   118.47812320   358.28046919
 H     15  14  13     2.038007638146   118.57723865   178.58454878
 H     16  11  10     2.041687905671   120.13502736     1.75692268
 H     17   8   7     2.064978811218   111.47300421   274.19080588
 H     17   8   7     2.073302267464   108.28504908    33.18119137
 H     18   9   8     2.075521132263   108.63739812   288.61176616
 H     18   9   8     2.068520602161   108.27931900   172.34284271
 H     22  14  13     1.827128598047   107.03735102   357.66890073
 H     24  21   2     2.068726760304   111.14962300    41.72333907
 H     25  24  21     2.068388443332   107.95253865   285.39467039
 H     27  24  21     2.063291779844   109.69189777   171.81122828
 H     27  24  21     2.078360304293   108.77311905   291.49053499
 H     28  27  24     1.826963547395   106.55484825   314.24649927
 H     29  26  25     2.035925527667   118.78970708   357.60534910
 H     32  31  30     2.036653808969   119.48912982   176.88994019
 H     33  32  31     2.041985284585   118.85000870   181.21157252
 H     34  20   1     2.067328099827   111.33447900   304.08893483
 H     34  20   1     2.065757021517   111.97332200    66.57061441
 H     34  20   1     2.058456001515   105.68124381   185.74538508
 H     35  19   3     2.067369828504   111.58358407    59.83480508
 H     35  19   3     2.058362259640   105.46240972   178.29438133
 H     35  19   3     2.069351161082   111.67652649   296.88161449
 H     36  23  13     2.058008651757   105.60084105   184.82531986
 H     36  23  13     2.065587213969   111.11790531   303.56435977
 H     36  23  13     2.065849840902   111.76878447    65.78102634
 H     37  25  24     1.822127842687   108.79568319   289.61183543
 H     38  17   8     1.837480922738   108.01763976   301.27931215
 H     39  18   9     1.844629519773   105.92466094   287.25641314
 H     41  31  30     1.832883654830   107.81969108   358.50109091
 H     42  40  30     2.056721840992   105.89949230   185.05826761
 H     42  40  30     2.067531041733   111.03252409   303.92831227
 H     42  40  30     2.064885655078   111.48571678    66.46513261

---------------------
BASIS SET INFORMATION
---------------------
There are 3 groups of distinct atoms

 Group   1 Type C   : 11s6p2d1f contracted to 5s3p2d1f pattern {62111/411/11/1}
 Group   2 Type O   : 11s6p2d1f contracted to 5s3p2d1f pattern {62111/411/11/1}
 Group   3 Type H   : 5s1p contracted to 3s1p pattern {311/1}

Atom   0C    basis set group =>   1
Atom   1C    basis set group =>   1
Atom   2C    basis set group =>   1
Atom   3C    basis set group =>   1
Atom   4C    basis set group =>   1
Atom   5C    basis set group =>   1
Atom   6C    basis set group =>   1
Atom   7C    basis set group =>   1
Atom   8C    basis set group =>   1
Atom   9C    basis set group =>   1
Atom  10C    basis set group =>   1
Atom  11C    basis set group =>   1
Atom  12C    basis set group =>   1
Atom  13C    basis set group =>   1
Atom  14C    basis set group =>   1
Atom  15C    basis set group =>   1
Atom  16C    basis set group =>   1
Atom  17C    basis set group =>   1
Atom  18O    basis set group =>   2
Atom  19O    basis set group =>   2
Atom  20O    basis set group =>   2
Atom  21O    basis set group =>   2
Atom  22O    basis set group =>   2
Atom  23C    basis set group =>   1
Atom  24C    basis set group =>   1
Atom  25C    basis set group =>   1
Atom  26C    basis set group =>   1
Atom  27O    basis set group =>   2
Atom  28C    basis set group =>   1
Atom  29C    basis set group =>   1
Atom  30C    basis set group =>   1
Atom  31C    basis set group =>   1
Atom  32C    basis set group =>   1
Atom  33C    basis set group =>   1
Atom  34C    basis set group =>   1
Atom  35C    basis set group =>   1
Atom  36O    basis set group =>   2
Atom  37O    basis set group =>   2
Atom  38O    basis set group =>   2
Atom  39O    basis set group =>   2
Atom  40O    basis set group =>   2
Atom  41C    basis set group =>   1
Atom  42H    basis set group =>   3
Atom  43H    basis set group =>   3
Atom  44H    basis set group =>   3
Atom  45H    basis set group =>   3
Atom  46H    basis set group =>   3
Atom  47H    basis set group =>   3
Atom  48H    basis set group =>   3
Atom  49H    basis set group =>   3
Atom  50H    basis set group =>   3
Atom  51H    basis set group =>   3
Atom  52H    basis set group =>   3
Atom  53H    basis set group =>   3
Atom  54H    basis set group =>   3
Atom  55H    basis set group =>   3
Atom  56H    basis set group =>   3
Atom  57H    basis set group =>   3
Atom  58H    basis set group =>   3
Atom  59H    basis set group =>   3
Atom  60H    basis set group =>   3
Atom  61H    basis set group =>   3
Atom  62H    basis set group =>   3
Atom  63H    basis set group =>   3
Atom  64H    basis set group =>   3
Atom  65H    basis set group =>   3
Atom  66H    basis set group =>   3
Atom  67H    basis set group =>   3
Atom  68H    basis set group =>   3
Atom  69H    basis set group =>   3
Atom  70H    basis set group =>   3
Atom  71H    basis set group =>   3
Atom  72H    basis set group =>   3
Atom  73H    basis set group =>   3
Atom  74H    basis set group =>   3
Atom  75H    basis set group =>   3
Atom  76H    basis set group =>   3
Atom  77H    basis set group =>   3
Atom  78H    basis set group =>   3
Atom  79H    basis set group =>   3
Atom  80H    basis set group =>   3
Atom  81H    basis set group =>   3
---------------------------------
AUXILIARY/J BASIS SET INFORMATION
---------------------------------
There are 3 groups of distinct atoms

 Group   1 Type C   : 12s5p4d2f1g contracted to 6s4p3d1f1g pattern {711111/2111/211/2/1}
 Group   2 Type O   : 12s5p4d2f1g contracted to 6s4p3d1f1g pattern {711111/2111/211/2/1}
 Group   3 Type H   : 5s2p1d contracted to 3s1p1d pattern {311/2/1}

Atom   0C    basis set group =>   1
Atom   1C    basis set group =>   1
Atom   2C    basis set group =>   1
Atom   3C    basis set group =>   1
Atom   4C    basis set group =>   1
Atom   5C    basis set group =>   1
Atom   6C    basis set group =>   1
Atom   7C    basis set group =>   1
Atom   8C    basis set group =>   1
Atom   9C    basis set group =>   1
Atom  10C    basis set group =>   1
Atom  11C    basis set group =>   1
Atom  12C    basis set group =>   1
Atom  13C    basis set group =>   1
Atom  14C    basis set group =>   1
Atom  15C    basis set group =>   1
Atom  16C    basis set group =>   1
Atom  17C    basis set group =>   1
Atom  18O    basis set group =>   2
Atom  19O    basis set group =>   2
Atom  20O    basis set group =>   2
Atom  21O    basis set group =>   2
Atom  22O    basis set group =>   2
Atom  23C    basis set group =>   1
Atom  24C    basis set group =>   1
Atom  25C    basis set group =>   1
Atom  26C    basis set group =>   1
Atom  27O    basis set group =>   2
Atom  28C    basis set group =>   1
Atom  29C    basis set group =>   1
Atom  30C    basis set group =>   1
Atom  31C    basis set group =>   1
Atom  32C    basis set group =>   1
Atom  33C    basis set group =>   1
Atom  34C    basis set group =>   1
Atom  35C    basis set group =>   1
Atom  36O    basis set group =>   2
Atom  37O    basis set group =>   2
Atom  38O    basis set group =>   2
Atom  39O    basis set group =>   2
Atom  40O    basis set group =>   2
Atom  41C    basis set group =>   1
Atom  42H    basis set group =>   3
Atom  43H    basis set group =>   3
Atom  44H    basis set group =>   3
Atom  45H    basis set group =>   3
Atom  46H    basis set group =>   3
Atom  47H    basis set group =>   3
Atom  48H    basis set group =>   3
Atom  49H    basis set group =>   3
Atom  50H    basis set group =>   3
Atom  51H    basis set group =>   3
Atom  52H    basis set group =>   3
Atom  53H    basis set group =>   3
Atom  54H    basis set group =>   3
Atom  55H    basis set group =>   3
Atom  56H    basis set group =>   3
Atom  57H    basis set group =>   3
Atom  58H    basis set group =>   3
Atom  59H    basis set group =>   3
Atom  60H    basis set group =>   3
Atom  61H    basis set group =>   3
Atom  62H    basis set group =>   3
Atom  63H    basis set group =>   3
Atom  64H    basis set group =>   3
Atom  65H    basis set group =>   3
Atom  66H    basis set group =>   3
Atom  67H    basis set group =>   3
Atom  68H    basis set group =>   3
Atom  69H    basis set group =>   3
Atom  70H    basis set group =>   3
Atom  71H    basis set group =>   3
Atom  72H    basis set group =>   3
Atom  73H    basis set group =>   3
Atom  74H    basis set group =>   3
Atom  75H    basis set group =>   3
Atom  76H    basis set group =>   3
Atom  77H    basis set group =>   3
Atom  78H    basis set group =>   3
Atom  79H    basis set group =>   3
Atom  80H    basis set group =>   3
Atom  81H    basis set group =>   3
--------------------------------------------------------------------------
WARNING: There was an error initializing an OpenFabrics device.

  Local host:   c03b01n04
  Local device: mlx5_0
--------------------------------------------------------------------------


           ************************************************************
           *        Program running with 64 parallel MPI-processes    *
           *              working on a common directory               *
           ************************************************************
------------------------------------------------------------------------------
                             ORCA STARTUP CALCULATIONS
                           -- RI-GTO INTEGRALS CHOSEN --
------------------------------------------------------------------------------
------------------------------------------------------------------------------
                   ___                                                        
                  /   \      - P O W E R E D   B Y -                         
                 /     \                                                     
                 |  |  |   _    _      __       _____    __    __             
                 |  |  |  | |  | |    /  \     |  _  \  |  |  /  |          
                  \  \/   | |  | |   /    \    | | | |  |  | /  /          
                 / \  \   | |__| |  /  /\  \   | |_| |  |  |/  /          
                |  |  |   |  __  | /  /__\  \  |    /   |      \           
                |  |  |   | |  | | |   __   |  |    \   |  |\   \          
                \     /   | |  | | |  |  |  |  | |\  \  |  | \   \       
                 \___/    |_|  |_| |__|  |__|  |_| \__\ |__|  \__/        
                                                                              
                      - O R C A' S   B I G   F R I E N D -                    
                                      &                                       
                       - I N T E G R A L  F E E D E R -                       
                                                                              
 v1 FN, 2020, v2 2021, v3 2022-2024                                           
------------------------------------------------------------------------------


----------------------
SHARK INTEGRAL PACKAGE
----------------------

Number of atoms                             ...     82
Number of basis functions                   ...   1542
Number of shells                            ...    622
Maximum angular momentum                    ...      3
Integral batch strategy                     ... SHARK/LIBINT Hybrid
RI-J (if used) integral strategy            ... SPLIT-RIJ (Revised 2003 algorithm where possible)
Printlevel                                  ...      1
Contraction scheme used                     ... SEGMENTED contraction
Prescreening option                         ... SCHWARTZ
   Thresh                                   ... 2.500e-11
   Tcut                                     ... 2.500e-12
   Tpresel                                  ... 2.500e-12 
Coulomb Range Separation                    ... NOT USED
Exchange Range Separation                   ... NOT USED
Multipole approximations                    ... NOT USED
Finite Nucleus Model                        ... NOT USED
CABS basis                                  ... NOT available
Auxiliary Coulomb fitting basis             ... AVAILABLE
   # of basis functions in Aux-J            ...   2498
   # of shells in Aux-J                     ...    830
   Maximum angular momentum in Aux-J        ...      4
Auxiliary J/K fitting basis                 ... NOT available
Auxiliary Correlation fitting basis         ... NOT available
Auxiliary 'external' fitting basis          ... NOT available

Checking pre-screening integrals            ... done (  0.3 sec) Dimension = 622
   => SHARK Basis and OBASIS are compatible. Storing Pre-screening
Shell pair information
Shell pair cut-off parameter TPreSel        ...   2.5e-12
Total number of shell pairs                 ...    193753
Shell pairs after pre-screening             ...    118376
Total number of primitive shell pairs       ...    584784
Primitive shell pairs kept                  ...    223343
          la=0 lb=0:  32827 shell pairs
          la=1 lb=0:  35233 shell pairs
          la=1 lb=1:   9581 shell pairs
          la=2 lb=0:  16069 shell pairs
          la=2 lb=1:   8881 shell pairs
          la=2 lb=2:   2043 shell pairs
          la=3 lb=0:   7369 shell pairs
          la=3 lb=1:   4130 shell pairs
          la=3 lb=2:   1810 shell pairs
          la=3 lb=3:    433 shell pairs

Checking whether 4 symmetric matrices of dimension 1542 fit in memory
:Max Core in MB      =   6000.00
 MB in use           =    141.79
 MB left             =   5858.21
 MB needed           =     36.31
 Data fit in memory  = YES
[c03b01n04:982816] 63 more processes have sent help message help-mpi-btl-openib.txt / error in device init
[c03b01n04:982816] Set MCA parameter "orte_base_help_aggregate" to 0 to see all help / error messages
Calculating RI/J V-Matrix + Cholesky decomp.... done (  2.5 sec)
Calculating Nuclear repulsion               ... done (  0.1 sec) ENN=   5848.435423526216 Eh

Diagonalization of the overlap matrix:
Smallest eigenvalue                        ... 2.694e-06
Time for diagonalization                   ...   19.527 sec
Threshold for overlap eigenvalues          ... 1.000e-07
Number of eigenvalues below threshold      ... 0
Time for construction of square roots      ...    2.088 sec
Total time needed                          ...   21.977 sec

-------------------
DFT GRID GENERATION
-------------------

General Integration Accuracy     IntAcc      ... 4.388
Radial Grid Type                 RadialGrid  ... OptM3 with GC (2021)
Angular Grid (max. ang.)         AngularGrid ... 4 (Lebedev-302)
Angular grid pruning method      GridPruning ... 4 (adaptive)
Weight generation scheme         WeightScheme... mBecke (2022)
Basis function cutoff            BFCut       ... 1.0000e-11
Integration weight cutoff        WCut        ... 1.0000e-14
Partially contracted basis set               ... off
Rotationally invariant grid construction     ... off
Angular grids for H and He will be reduced by one unit

Total number of grid points                  ...   373405
Total number of batches                      ...     5876
Average number of points per batch           ...       63
Average number of grid points per atom       ...     4554

--------------------
COSX GRID GENERATION
--------------------

GRIDX 1
-------
General Integration Accuracy     IntAcc      ... 3.816
Radial Grid Type                 RadialGrid  ... OptM3 with GC (2021)
Angular Grid (max. ang.)         AngularGrid ... 1 (Lebedev-50)
Angular grid pruning method      GridPruning ... 4 (adaptive)
Weight generation scheme         WeightScheme... mBecke (2022)
Basis function cutoff            BFCut       ... 1.0000e-11
Integration weight cutoff        WCut        ... 1.0000e-14
Partially contracted basis set               ... on
Rotationally invariant grid construction     ... off
Angular grids for H and He will be reduced by one unit

Total number of grid points                  ...    47215
Total number of batches                      ...      415
Average number of points per batch           ...      113
Average number of grid points per atom       ...      576
UseSFitting                                  ... on

GRIDX 2
-------
General Integration Accuracy     IntAcc      ... 4.020
Radial Grid Type                 RadialGrid  ... OptM3 with GC (2021)
Angular Grid (max. ang.)         AngularGrid ... 2 (Lebedev-110)
Angular grid pruning method      GridPruning ... 4 (adaptive)
Weight generation scheme         WeightScheme... mBecke (2022)
Basis function cutoff            BFCut       ... 1.0000e-11
Integration weight cutoff        WCut        ... 1.0000e-14
Partially contracted basis set               ... on
Rotationally invariant grid construction     ... off
Angular grids for H and He will be reduced by one unit

Total number of grid points                  ...   100174
Total number of batches                      ...      827
Average number of points per batch           ...      121
Average number of grid points per atom       ...     1222
UseSFitting                                  ... on

GRIDX 3
-------
General Integration Accuracy     IntAcc      ... 4.338
Radial Grid Type                 RadialGrid  ... OptM3 with GC (2021)
[...]
freq.     660.91  E(vib)   ...       0.08 
freq.     666.60  E(vib)   ...       0.08 
freq.     680.45  E(vib)   ...       0.08 
freq.     690.46  E(vib)   ...       0.07 
freq.     726.30  E(vib)   ...       0.06 
freq.     730.82  E(vib)   ...       0.06 
freq.     750.37  E(vib)   ...       0.06 
freq.     756.62  E(vib)   ...       0.06 
freq.     757.97  E(vib)   ...       0.06 
freq.     782.37  E(vib)   ...       0.05 
freq.     792.64  E(vib)   ...       0.05 
freq.     802.76  E(vib)   ...       0.05 
freq.     813.13  E(vib)   ...       0.05 
freq.     834.24  E(vib)   ...       0.04 
freq.     837.30  E(vib)   ...       0.04 
freq.     842.87  E(vib)   ...       0.04 
freq.     845.63  E(vib)   ...       0.04 
freq.     856.82  E(vib)   ...       0.04 
freq.     873.64  E(vib)   ...       0.04 
freq.     885.19  E(vib)   ...       0.04 
freq.     899.61  E(vib)   ...       0.03 
freq.     909.81  E(vib)   ...       0.03 
freq.     913.18  E(vib)   ...       0.03 
freq.     917.52  E(vib)   ...       0.03 
freq.     933.10  E(vib)   ...       0.03 
freq.     934.09  E(vib)   ...       0.03 
freq.     946.75  E(vib)   ...       0.03 
freq.     954.61  E(vib)   ...       0.03 
freq.     955.58  E(vib)   ...       0.03 
freq.     963.58  E(vib)   ...       0.03 
freq.     968.03  E(vib)   ...       0.03 
freq.     992.92  E(vib)   ...       0.02 
freq.    1005.63  E(vib)   ...       0.02 
freq.    1006.95  E(vib)   ...       0.02 
freq.    1022.31  E(vib)   ...       0.02 
freq.    1035.80  E(vib)   ...       0.02 
freq.    1049.17  E(vib)   ...       0.02 
freq.    1050.67  E(vib)   ...       0.02 
freq.    1054.63  E(vib)   ...       0.02 
freq.    1061.45  E(vib)   ...       0.02 
freq.    1070.07  E(vib)   ...       0.02 
freq.    1085.05  E(vib)   ...       0.02 
freq.    1102.99  E(vib)   ...       0.02 
freq.    1115.80  E(vib)   ...       0.01 
freq.    1129.22  E(vib)   ...       0.01 
freq.    1143.35  E(vib)   ...       0.01 
freq.    1148.23  E(vib)   ...       0.01 
freq.    1152.69  E(vib)   ...       0.01 
freq.    1165.90  E(vib)   ...       0.01 
freq.    1170.07  E(vib)   ...       0.01 
freq.    1170.87  E(vib)   ...       0.01 
freq.    1172.30  E(vib)   ...       0.01 
freq.    1174.18  E(vib)   ...       0.01 
freq.    1182.35  E(vib)   ...       0.01 
freq.    1184.46  E(vib)   ...       0.01 
freq.    1194.48  E(vib)   ...       0.01 
freq.    1200.36  E(vib)   ...       0.01 
freq.    1207.40  E(vib)   ...       0.01 
freq.    1208.57  E(vib)   ...       0.01 
freq.    1213.13  E(vib)   ...       0.01 
freq.    1216.21  E(vib)   ...       0.01 
freq.    1217.94  E(vib)   ...       0.01 
freq.    1224.03  E(vib)   ...       0.01 
freq.    1228.52  E(vib)   ...       0.01 
freq.    1236.74  E(vib)   ...       0.01 
freq.    1244.72  E(vib)   ...       0.01 
freq.    1247.21  E(vib)   ...       0.01 
freq.    1248.59  E(vib)   ...       0.01 
freq.    1252.66  E(vib)   ...       0.01 
freq.    1259.67  E(vib)   ...       0.01 
freq.    1274.81  E(vib)   ...       0.01 
freq.    1276.80  E(vib)   ...       0.01 
freq.    1292.36  E(vib)   ...       0.01 
freq.    1298.11  E(vib)   ...       0.01 
freq.    1306.25  E(vib)   ...       0.01 
freq.    1312.28  E(vib)   ...       0.01 
freq.    1324.84  E(vib)   ...       0.01 
freq.    1335.60  E(vib)   ...       0.01 
freq.    1341.00  E(vib)   ...       0.01 
freq.    1345.51  E(vib)   ...       0.01 
freq.    1352.33  E(vib)   ...       0.01 
freq.    1359.14  E(vib)   ...       0.01 
freq.    1364.37  E(vib)   ...       0.01 
freq.    1365.61  E(vib)   ...       0.01 
freq.    1369.67  E(vib)   ...       0.01 
freq.    1393.15  E(vib)   ...       0.00 
freq.    1397.69  E(vib)   ...       0.00 
freq.    1399.26  E(vib)   ...       0.00 
freq.    1404.11  E(vib)   ...       0.00 
freq.    1409.83  E(vib)   ...       0.00 
freq.    1410.93  E(vib)   ...       0.00 
freq.    1411.40  E(vib)   ...       0.00 
freq.    1416.77  E(vib)   ...       0.00 
freq.    1421.70  E(vib)   ...       0.00 
freq.    1452.12  E(vib)   ...       0.00 
freq.    1455.57  E(vib)   ...       0.00 
freq.    1461.30  E(vib)   ...       0.00 
freq.    1469.40  E(vib)   ...       0.00 
freq.    1474.77  E(vib)   ...       0.00 
freq.    1479.26  E(vib)   ...       0.00 
freq.    1480.11  E(vib)   ...       0.00 
freq.    1480.44  E(vib)   ...       0.00 
freq.    1481.68  E(vib)   ...       0.00 
freq.    1482.10  E(vib)   ...       0.00 
freq.    1483.02  E(vib)   ...       0.00 
freq.    1485.44  E(vib)   ...       0.00 
freq.    1486.88  E(vib)   ...       0.00 
freq.    1487.51  E(vib)   ...       0.00 
freq.    1489.60  E(vib)   ...       0.00 
freq.    1491.76  E(vib)   ...       0.00 
freq.    1494.04  E(vib)   ...       0.00 
freq.    1494.63  E(vib)   ...       0.00 
freq.    1496.79  E(vib)   ...       0.00 
freq.    1497.20  E(vib)   ...       0.00 
freq.    1512.26  E(vib)   ...       0.00 
freq.    1534.82  E(vib)   ...       0.00 
freq.    1542.95  E(vib)   ...       0.00 
freq.    1549.51  E(vib)   ...       0.00 
freq.    1625.30  E(vib)   ...       0.00 
freq.    1632.97  E(vib)   ...       0.00 
freq.    1641.61  E(vib)   ...       0.00 
freq.    1645.43  E(vib)   ...       0.00 
freq.    1650.65  E(vib)   ...       0.00 
freq.    1652.43  E(vib)   ...       0.00 
freq.    2988.26  E(vib)   ...       0.00 
freq.    3005.85  E(vib)   ...       0.00 
freq.    3017.72  E(vib)   ...       0.00 
freq.    3019.72  E(vib)   ...       0.00 
freq.    3022.54  E(vib)   ...       0.00 
freq.    3025.46  E(vib)   ...       0.00 
freq.    3027.05  E(vib)   ...       0.00 
freq.    3028.59  E(vib)   ...       0.00 
freq.    3029.82  E(vib)   ...       0.00 
freq.    3041.75  E(vib)   ...       0.00 
freq.    3058.91  E(vib)   ...       0.00 
freq.    3060.12  E(vib)   ...       0.00 
freq.    3068.86  E(vib)   ...       0.00 
freq.    3071.85  E(vib)   ...       0.00 
freq.    3078.30  E(vib)   ...       0.00 
freq.    3081.19  E(vib)   ...       0.00 
freq.    3088.14  E(vib)   ...       0.00 
freq.    3091.76  E(vib)   ...       0.00 
freq.    3092.62  E(vib)   ...       0.00 
freq.    3093.37  E(vib)   ...       0.00 
freq.    3096.06  E(vib)   ...       0.00 
freq.    3118.26  E(vib)   ...       0.00 
freq.    3137.60  E(vib)   ...       0.00 
freq.    3137.91  E(vib)   ...       0.00 
freq.    3143.47  E(vib)   ...       0.00 
freq.    3149.82  E(vib)   ...       0.00 
freq.    3168.20  E(vib)   ...       0.00 
freq.    3178.88  E(vib)   ...       0.00 
freq.    3187.49  E(vib)   ...       0.00 
freq.    3197.48  E(vib)   ...       0.00 
freq.    3207.84  E(vib)   ...       0.00 
freq.    3207.89  E(vib)   ...       0.00 
freq.    3209.26  E(vib)   ...       0.00 
freq.    3212.16  E(vib)   ...       0.00 
freq.    3536.05  E(vib)   ...       0.00 
freq.    3615.55  E(vib)   ...       0.00 
freq.    3635.57  E(vib)   ...       0.00 
freq.    3727.06  E(vib)   ...       0.00 
freq.    3760.18  E(vib)   ...       0.00 
freq.    3764.47  E(vib)   ...       0.00 

------------
INNER ENERGY
------------

The inner energy is: U= E(el) + E(ZPE) + E(vib) + E(rot) + E(trans)
    E(el)   - is the total energy from the electronic structure calculation
              = E(kin-el) + E(nuc-el) + E(el-el) + E(nuc-nuc)
    E(ZPE)  - the the zero temperature vibrational energy from the frequency calculation
    E(vib)  - the the finite temperature correction to E(ZPE) due to population
              of excited vibrational states
    E(rot)  - is the rotational thermal energy
    E(trans)- is the translational thermal energy

Summary of contributions to the inner energy U:
Electronic energy                ...  -2032.63353296 Eh
Zero point energy                ...      0.68045996 Eh     426.99 kcal/mol
Thermal vibrational correction   ...      0.03960500 Eh      24.85 kcal/mol
Thermal rotational correction    ...      0.00141627 Eh       0.89 kcal/mol
Thermal translational correction ...      0.00141627 Eh       0.89 kcal/mol
-----------------------------------------------------------------------
Total thermal energy                  -2031.91063546 Eh


Summary of corrections to the electronic energy:
(perhaps to be used in another calculation)
Total thermal correction                  0.04243754 Eh      26.63 kcal/mol
Non-thermal (ZPE) correction              0.68045996 Eh     426.99 kcal/mol
-----------------------------------------------------------------------
Total correction                          0.72289750 Eh     453.62 kcal/mol


--------
ENTHALPY
--------

The enthalpy is H = U + kB*T
                kB is Boltzmann's constant
Total thermal energy              ...  -2031.91063546 Eh 
Thermal Enthalpy correction       ...      0.00094421 Eh       0.59 kcal/mol
-----------------------------------------------------------------------
Total Enthalpy                    ...  -2031.90969125 Eh


Note: Only C1 symmetry has been detected, increase convergence thresholds 
      if your molecule has a higher symmetry. Symmetry factor of 1.0 is   
      used for the rotational entropy correction. 
 

Note: Rotational entropy computed according to Herzberg 
Infrared and Raman Spectra, Chapter V,1, Van Nostrand Reinhold, 1945 
Point Group:  C1, Symmetry Number:   1  
Rotational constants in cm-1:     0.004309     0.002253     0.001905 

Vibrational entropy computed according to the QRRHO of S. Grimme
Chem.Eur.J. 2012 18 9955 using a reference frequency of 100.0 cm-1


-------
ENTROPY
-------

The entropy contributions are T*S = T*(S(el)+S(vib)+S(rot)+S(trans))
     S(el)   - electronic entropy
     S(vib)  - vibrational entropy
     S(rot)  - rotational entropy
     S(trans)- translational entropy
The entropies will be listed as multiplied by the temperature to get
units of energy

Electronic entropy                ...      0.00000000 Eh      0.00 kcal/mol
Vibrational entropy               ...      0.07016173 Eh     44.03 kcal/mol
Rotational entropy                ...      0.01791682 Eh     11.24 kcal/mol
Translational entropy             ...      0.02138181 Eh     13.42 kcal/mol
-----------------------------------------------------------------------
Final entropy term                ...      0.10946037 Eh     68.69 kcal/mol

In case the symmetry of your molecule has not been determined correctly
or in case you have a reason to use a different symmetry number we print 
out the resulting rotational entropy values for sn=1,12:

 non-linear molecules -----------------------------------
|  sn= 1 | S(rot)=       0.01791682 Eh     11.24 kcal/mol|
|  sn= 2 | S(rot)=       0.01726237 Eh     10.83 kcal/mol|
|  sn= 3 | S(rot)=       0.01687953 Eh     10.59 kcal/mol|
|  sn= 4 | S(rot)=       0.01660791 Eh     10.42 kcal/mol|
|  sn= 5 | S(rot)=       0.01639722 Eh     10.29 kcal/mol|
|  sn= 6 | S(rot)=       0.01622508 Eh     10.18 kcal/mol|
|  sn= 7 | S(rot)=       0.01607953 Eh     10.09 kcal/mol|
|  sn= 8 | S(rot)=       0.01595345 Eh     10.01 kcal/mol|
|  sn= 9 | S(rot)=       0.01584224 Eh      9.94 kcal/mol|
|  sn=10 | S(rot)=       0.01574276 Eh      9.88 kcal/mol|
|  sn=11 | S(rot)=       0.01565277 Eh      9.82 kcal/mol|
|  sn=12 | S(rot)=       0.01557062 Eh      9.77 kcal/mol|
 linear molecules ---------------------------------------
|  Dinfh | S(rot)=       0.01123960 Eh      7.05 kcal/mol|
|  Cinfv | S(rot)=       0.01189405 Eh      7.46 kcal/mol|
 --------------------------------------------------------


-------------------
GIBBS FREE ENERGY
-------------------

The Gibbs free energy is G = H - T*S

Total enthalpy                    ...  -2031.90969125 Eh 
Total entropy correction          ...     -0.10946037 Eh    -68.69 kcal/mol
-----------------------------------------------------------------------
Final Gibbs free energy         ...  -2032.01915162 Eh

For completeness - the Gibbs free energy minus the electronic energy
G-E(el)                           ...      0.61438134 Eh    385.53 kcal/mol


Maximum memory used throughout the entire PROP-calculation: 1826.5 MB
--------------------------------------------------------------------------
WARNING: There was an error initializing an OpenFabrics device.

  Local host:   c03b01n04
  Local device: mlx5_0
--------------------------------------------------------------------------
--------------------------------------------------------------------------
WARNING: There is at least one non-excluded one OpenFabrics device found,
but there are no active ports detected (or Open MPI was unable to use
them).  This is most certainly not what you wanted.  Check your
cables, subnet manager configuration, etc.  The openib BTL will be
ignored for this job.

  Local host: c03b01n04
--------------------------------------------------------------------------
[c03b01n04:1066472] 59 more processes have sent help message help-mpi-btl-openib.txt / error in device init
[c03b01n04:1066472] Set MCA parameter "orte_base_help_aggregate" to 0 to see all help / error messages
[c03b01n04:1066472] 3 more processes have sent help message help-mpi-btl-openib.txt / no active ports found

--------------------------------
SUGGESTED CITATIONS FOR THIS RUN
--------------------------------

Below you find a list of papers that are relevant to this ORCA run
We neither can nor want to force you to cite these papers, but we appreciate if you do
You receive ORCA, which is the product of decades of hard work by many enthusiastic individuals, for free
The only thing we kindly ask in return is that you cite our papers,
We deeply appreciate it, if you show your appreciation for ORCA by not just citing the generic ORCA reference.

Please note that relegating all ORCA citations to the supporting information does *not* help us.
SI sections are not indexed - citations you put there will not count into any citation statistics
But we need these citations in order to attract the funding resources that allow us to do what we are doing

Therefore, if you are a happy ORCA user, please consider citing a few of the papers listed below in the main body of your paper

In addition to the list printed below, the program has created the file opt-conf-3.bibtex that contains the list in bibtex format
You can import this file easily into all common literature databanks and citation aid programs


List of essential papers. We consider these as the minimum necessary citations

  1. Neese, F.
     Software update: the ORCA program system, version 6.0
     WIRES Comput. Molec. Sci. 2025 15(1), e70019
     doi.org/10.1002/wcms.7019

List of papers to cite with high priority. The work reported in these papers was absolutely
necessary for this run to complete.
Our perspective: the developers of density functionals and basis sets usually get cited in chemistry papers
Good! But without the algorithms to do something with them, the functionals or basis sets would not do anything.
Hence, in our opinion, the algorithm design and method developments papers are equally worthy of getting cited

  1. Neese, F.
     An improvement of the resolution of the identity approximation for the formation of the Coulomb matrix
     J. Comp. Chem. 2003 24(14), 1740-1747
     doi.org/10.1002/jcc.10318
  2. Neese, F.; Wennmohs, F.; Hansen, A.; Becker, U.
     Efficient, approximate and parallel Hartree-Fock and hybrid DFT calculations. A 'chain-of-spheres' algorithm for the Hartree-Fock exchange
     Chem. Phys. 2009 356(1-3), 98-109
     doi.org/10.1016/j.chemphys.2008.10.036
  3. Bykov, D.; Petrenko, T.; Izsak, R.; Kossmann, S.; Becker, U.; Valeev, E.; Neese, F.
     Efficient implementation of the analytic second derivatives of Hartree-Fock and hybrid DFT energies: a detailed analysis of different approximations
     Molec. Phys. 2015 113 , 1961-1977
     doi.org/10.1080/00268976.2015.1025114
  4. Caldeweyher, E.; Bannwarth, C.; Grimme, S.
     Extension of the D3 dispersion coefficient model
     J. Chem. Phys. 2017 147 , 034112
     doi.org/10.1063/1.4993215
  5. Caldeweyher, E.; Ehlert, S.; Hansen, A.; Neugebauer, H.; Spicher, S.; Bannwarth, C.; Grimme, S.
     A generally applicable atomic-charge dependent London dispersion correction
     J. Chem. Phys. 2019 150 , 154122
     doi.org/10.1063/1.5090222
  6. Garcia-Rates, M.; Neese, F.
     Efficient implementation of the analytical second derivatives of hartree-fock and hybrid DFT energies within the framework of the conductor-like polarizable continuum model
     J. Comput. Chem. 2019 40 , 1816-1828
     doi.org/10.1002/jcc.25833
  7. Caldeweyher, E.; Mewes, J.; Ehlert, S.; Grimme, S.
     Extension and evaluation of the D4 London-dispersion model for periodic systems
     Phys. Chem. Chem. Phys. 2020 22(16), 8499-8512
     doi.org/10.1039/D0CP00502A
  8. Garcia-Rates, M.; Neese, F.
     Effect of the Solute Cavity on the Solvation Energy and its Derivatives within the Framework of the Gaussian Charge Scheme
     J. Comput. Chem. 2020 41 , 922-939
     doi.org/10.1002/jcc.26139
  9. Helmich-Paris, B.; de Souza, B.; Neese, F.; Izsák, R.
     An improved chain of spheres for exchange algorithm
     J. Chem. Phys. 2021 155(10), 104109
     doi.org/10.1063/5.0058766
 10. Neese, F.
     The SHARK Integral Generation and Digestion System
     J. Comp. Chem. 2022 44(3), 381
     doi.org/10.1002/jcc.26942
 11. Wittmann, L.; Gordiy, I.; Friede, M.; Helmich-Paris, B.; Grimme, S.; Hansen, A.; Bursch, M.
     Extension of the D3 and D4 London Dispersion Corrections to the full Actinides Series
     Phys. Chem. Chem. Phys. 2024 26(32), 21379-21394
     doi.org/10.1039/D4CP01514B

List of suggested additional citations. These are papers that are important in the 'surrounding' of 
of this run, or papers that preceded the highly important papers. If you like your results we are grateful for a citation.

  1. Izsak, R.; Neese, F.
     An overlap fitted chain of spheres exchange method
     J. Chem. Phys. 2011 135 , 144105
     doi.org/10.1063/1.3646921
  2. Izsak, R.; Hansen, A.; Neese, F.
     The resolution of identity and chain of spheres approximations for the LPNO-CCSD singles Fock term
     Molec. Phys. 2012 110 , 2413-2417
     doi.org/10.1080/00268976.2012.687466
  3. Neese, F.
     The ORCA program system
     WIRES Comput. Molec. Sci. 2012 2(1), 73-78
     doi.org/10.1002/wcms.81
  4. Izsak, R.; Neese, F.; Klopper, W.
     Robust fitting techniques in the chain of spheres approximation to the Fock exchange: The role of the complementary space
     J. Chem. Phys. 2013 139 , 
     doi.org/10.1063/1.4819264
  5. Neese, F.
     Software update: the ORCA program system, version 4.0
     WIRES Comput. Molec. Sci. 2018 8(1), 1-6
     doi.org/10.1002/wcms.1327
  6. Neese, F.; Wennmohs, F.; Becker, U.; Riplinger, C.
     The ORCA quantum chemistry program package
     J. Chem. Phys. 2020 152(22), 224108
     doi.org/10.1063/5.0004608
  7. Neese, F.
     Software update: The ORCA program system—Version 5.0
     WIRES Comput. Molec. Sci. 2022 12(1), e1606
     doi.org/10.1002/wcms.1606

List of optional additional citations

  1. Neese, F.
     Approximate second-order SCF convergence for spin unrestricted wavefunctions
     Chem. Phys. Lett. 2000 325(1-3), 93-98
     doi.org/10.1016/s0009-2614(00)00662-x

Timings for individual modules:

Sum of individual times          ...    20053.235 sec (= 334.221 min)
Startup calculation              ...     1722.186 sec (=  28.703 min)   8.6 %
SCF iterations                   ...    11429.662 sec (= 190.494 min)  57.0 %
Property integrals               ...     1629.985 sec (=  27.166 min)   8.1 %
SCF Response                     ...     3262.224 sec (=  54.370 min)  16.3 %
Property calculations            ...      790.001 sec (=  13.167 min)   3.9 %
SCF Gradient evaluation          ...     1199.370 sec (=  19.989 min)   6.0 %
Geometry relaxation              ...       19.808 sec (=   0.330 min)   0.1 %
                             ****ORCA TERMINATED NORMALLY****
TOTAL RUN TIME: 0 days 5 hours 39 minutes 39 seconds 983 msec
