
                                 *****************
                                 * O   R   C   A *
                                 *****************

                                            #,                                       
                                            ###                                      
                                            ####                                     
                                            #####                                    
                                            ######                                   
                                           ########,                                 
                                     ,,################,,,,,                         
                               ,,#################################,,                 
                          ,,##########################################,,             
                       ,#########################################, ''#####,          
                    ,#############################################,,   '####,        
                  ,##################################################,,,,####,       
                ,###########''''           ''''###############################       
              ,#####''   ,,,,##########,,,,          '''####'''          '####       
            ,##' ,,,,###########################,,,                        '##       
           ' ,,###''''                  '''############,,,                           
         ,,##''                                '''############,,,,        ,,,,,,###''
      ,#''                                            '''#######################'''  
     '                                                          ''''####''''         
             ,#######,   #######,   ,#######,      ##                                
            ,#'     '#,  ##    ##  ,#'     '#,    #''#        ,####,    ,#,          
            ##       ##  ##   ,#'  ##            #'  '#       #'       ,# #          
            ##       ##  #######   ##           ,######,      #####,      #          
            '#,     ,#'  ##    ##  '#,     ,#' ,#      #,     #,   #      #          
             '#######'   ##     ##  '#######'  #'      '#     '####' #    #          



                #########################################################
                #                        -***-                          #
                #          Department of theory and spectroscopy        #
                #                                                       #
                #                      Frank Neese                      #
                #                                                       #
                #     Directorship, Architecture, Infrastructure        #
                #                    SHARK, DRIVERS                     #
                #        Core code/Algorithms in most modules           #
                #                                                       #
                #        Max Planck Institute fuer Kohlenforschung      #
                #                Kaiser Wilhelm Platz 1                 #
                #                 D-45470 Muelheim/Ruhr                 #
                #                      Germany                          #
                #                                                       #
                #                  All rights reserved                  #
                #                        -***-                          #
                #########################################################


                         Program Version 6.1.0-f.0  -   RELEASE   -


 With contributions from (in alphabetic order):
[Max-Planck-Institut fuer Kohlenforschung]                               
  Daniel Aravena         : Magnetic Suceptibility                        
  Michael Atanasov       : Ab Initio Ligand Field Theory (pilot matlab implementation)
  Alexander A. Auer      : GIAO ZORA, VPT2 properties, NMR spectrum      
  Ute Becker             : All parallelization in ORCA, NUMFREQ, NUMCALC 
  Giovanni Bistoni       : ED, misc. LED, open-shell LED, HFLD           
  Dmytro Bykov           : pre 5.0 version of the SCF Hessian            
  Marcos Casanova-Páez   : Triplet and SCS-CIS(D). UHF-(DLPNO)-IP/EA/STEOM-CCSD. UHF-CVS-IP/STEOM-CCSD   
  Vijay G. Chilkuri      : MRCI spin determinant printing, contributions to CSF-ICE 
  Pauline Colinet        : FMM embedding                                 
  Dipayan Datta          : RHF DLPNO-CCSD density                        
  Achintya Kumar Dutta   : EOM-CC, STEOM-CC                              
  Nicolas Foglia         : Exact transition moments, OPA infrastructure, MCD improvements    
  Dmitry Ganyushin       : Spin-Orbit,Spin-Spin,Magnetic field MRCI      
  Miquel Garcia-Rates    : C-PCM and meta-GGA Hessian, CCSD/C-PCM, Gaussian charge scheme 
  Tiago L. C. Gouveia    : GS-ROHF, GS-ROCIS                             
  Yang Guo               : DLPNO-NEVPT2, F12-NEVPT2, CIM, IAO-localization        
  Andreas Hansen         : Spin unrestricted coupled pair/coupled cluster methods 
  Ingolf Harden          : AUTO-CI MPn and infrastructure                
  Benjamin Helmich-Paris : MC-RPA, TRAH-(SCF,CASSCF), AVAS, COSX integrals, SCF dyn. polar., MC-PDFT, srDFT 
  Lee Huntington         : MR-EOM, pCC                                   
  Robert Izsak           : Overlap fitted RIJCOSX, COSX-SCS-MP3, EOM     
  Riya Kayal             : Wick's Theorem for AUTO-CI, AUTO-CI UHF-CCSDT 
  Emily Kempfer          : AUTO-CI RHF CISDT and CCSDT, approximate NEVPT4
  Christian Kollmar      : KDIIS, OOCD, Brueckner-CCSD(T), CCSD density, CASPT2, CASPT2-K, improved NEVPT2 
  Axel Koslowski         : Symmetry handling                             
  Simone Kossmann        : meta-GGA functionals, TD-DFT gradient, OOMP2, (MP2 Hessian; deprecated post 5.0) 
  Lucas Lang             : DCDCAS, Hyperfine gauge corrections, ICE-SOC+SSC
  Marvin Lechner         : AUTO-CI (C++ implementation), FIC-MRCC        
  Spencer Leger          : CASSCF response                               
  Dagmar Lenk            : GEPOL surface, SMD, ORCA-2-JSON               
  Dimitrios Liakos       : Extrapolation schemes; Compound Job, Property file
  Dimitrios Manganas     : Further ROCIS development; embedding schemes. LFT, Crystal Embedding 
  Dimitrios Pantazis     : SARC Basis sets                               
  Anastasios Papadopoulos: AUTO-CI, single reference methods and gradients 
  Taras Petrenko         : pre 6.0 DFT Hessian and TD-DFT gradient,  ECA, NRVS 
  Petra Pikulova         : Analytic Raman intensities                    
  Peter Pinski           : DLPNO-MP2, DLPNO-MP2 Gradient                 
  Shashank Vittal Rao    : ES-AILFT, MagRelax                            
  Christoph Reimann      : Effective Core Potentials                     
  Marius Retegan         : Local ZFS, SOC                                
  Christoph Riplinger    : Optimizer, TS searches, QM/MM, DLPNO-CCSD(T), (RO)-DLPNO pert. Triples 
  Michael Roemelt        : Original ROCIS implementation, recursive CI coupling coefficients
  Masaaki Saitow         : Open-shell DLPNO-CCSD energy and density      
  Barbara Sandhoefer     : DKH picture change effects                    
  Yorick L. A. Schmerwitz: GMF and freeze-and-release deltaSCF, NEB S-IDPP initial path                    
  Kantharuban Sivalingam : CASSCF convergence/infrastructure, NEVPT2, NEVPT3, NEVPT4(SD), FIC-MRCI and CEPA variants
  Bernardo de Souza      : ESD, SOC TD-DFT                               
  Georgi L. Stoychev     : AutoAux, RI-MP2 NMR, DLPNO-MP2 response, X2C  
  Van Anh Tran           : RI-MP2 g-tensors                              
  Willem Van den Heuvel  : Paramagnetic NMR                              
  Zikuan Wang            : NOTCH, Electric field optimization            
  Frank Wennmohs         : Technical directorship and infrastructure     
  Hang Xu                : AUTO-CI-Response properties                   
                                                                         
[FACCTs GmbH]                                                            
  Markus Bursch, Nicolas Foglia, Miquel Garcia-Rates, Ingolf Harden, Hagen Neugebauer, Anastasios Papadopoulos, 
  Christoph Riplinger, Bernardo de Souza, Georgi L. Stoychev                                                    
                                                                 
  APM, various basis sets, CI-OPT, improved COSX, DLPNO-Multilevel,           
  DOCKER, DRACO, updates on ESD, Fragmentator, GOAT, IRC, LR-CPCM, L-BFGS, MBIS, meta-GGA TD-DFT gradient, ML-optimized integration grids, 
  MM, NACMEs, nearIR, NEB, NEB-TS, NL-DFT gradient (VV10), 2- and 3-layer-ONIOM, interface openCOSMO-RS, QMMM,   
  Crystal-QMMM, RESP, rigid body optimization, SF, symmetry and pop. for TD-DFT, various functionals, SOLVATOR                                   
                                                                         
[Other institutions]                                                     
  V. Asgeirsson          : NEB                                           
  Christoph Bannwarth    : sTDA-DFT, sTD-DFT, PBEh-3c, B97-3c, D3        
  Giovanni Bistoni       : ETS/NOCV, ADLD/ADEX, COVALED                  
  Martin Brehm           : Molecular dynamics                            
  Ronald Cardenas        : ETS/NOCV                                      
  Martina Colucci        : COVALED                                       
  Sebastian Ehlert       : rSCAN, r2SCAN, r2SCAN-3c, D4, dhf basis sets  
  Marvin Friede          : D4 for Fr, Ra, Ac-Lr                          
  Lars Goerigk           : TD-DFT with DH, B97 family of functionals     
  Stefan Grimme          : VdW corrections, initial TS optimization, DFT functionals, gCP, sTDA/sTD-DF 
  Waldemar Hujo          : DFT-NL                                        
  H. Jonsson             : NEB                                           
  Holger Kruse           : gCP                                           
  Marcel Mueller         : wB97X-3c, vDZP basis set                      
  Hagen Neugebauer       : wr2SCAN, Native XTB                           
  Gianluca Regni         : ADLD/ADEX                                     
  Tobias Risthaus        : pre 6.0 range-separated hybrid DFT and stability analysis
  Lukas Wittmann         : regularized MP2, r2SCAN double-hybrids, wr2SCAN        
                                                                         
We gratefully acknowledge several colleagues who have allowed us to      
interface, adapt or use parts of their codes:                            
  Ed Valeev, F. Pavosevic, A. Kumar             : LibInt (2-el integral package), F12 methods 
  Garnet Chan, S. Sharma, J. Yang, R. Olivares  : DMRG                   
  Ulf Ekstrom                                   : XCFun DFT Library      
  Mihaly Kallay                                 : mrcc  (arbitrary order and MRCC methods)
  Frank Weinhold                                : gennbo (NPA and NBO analysis)           
  Simon Mueller                                 : openCOSMO-RS                            
  Christopher J. Cramer and Donald G. Truhlar   : smd solvation model                     
  S Lehtola, MJT Oliveira, MAL Marques          : LibXC Library                           
  Liviu Ungur et al                             : ANISO software                          


 Your calculation uses the libint2 library for the computation of 2-el integrals
 For citations please refer to: http://libint.valeyev.net

 Your ORCA version has been built with support for libXC version: 7.0.0
 For citations please refer to: https://libxc.gitlab.io

 This ORCA versions uses:
   CBLAS   interface :  Fast vector & matrix operations
   LAPACKE interface :  Fast linear algebra routines
   SCALAPACK package :  Parallel linear algebra routines
   Shared memory     :  Shared parallel matrices
   BLAS/LAPACK       :  OpenBLAS 0.3.29  USE64BITINT DYNAMIC_ARCH NO_AFFINITY Cooperlake SINGLE_THREADED
        Core in use  :  Cooperlake
   Copyright (c) 2011-2014, The OpenBLAS Project


  ***********************************
  * Starting time: Sat Feb 28 20:00:26 2026
  * Host name:     c01b01n07
  * Process ID:    2056928
  * Working dir.:  /lustre1/jiangy/jiangy_liuxy/NMR/B9D7C2-SSSR
  ***********************************

NOTE: MaxCore=6000 MB was set to SCF,MP2,MDCI,CIPSI,MRCI,RASCI and CIS
      => If you want to overwrite this, your respective input block should be placed after the MaxCore statement


***************************************
The coordinates will be read from file: conf-14.xyz
***************************************


Your calculation utilizes the atom-pairwise dispersion correction
based on EEQ partial charges (D4)


Warning: RI is on but no J-basis has been assigned. Assigning Def2/J (nothing to worry about!)
================================================================================

----- Orbital basis set information -----
Your calculation utilizes the basis: def2-TZVP
   F. Weigend and R. Ahlrichs, Phys. Chem. Chem. Phys. 7, 3297 (2005).

----- AuxJ basis set information -----
Your calculation utilizes the auxiliary basis: def2/J
   H-Rn: F. Weigend, Phys. Chem. Chem. Phys. 8, 1057 (2006).
   Fr-Lr: K. Eichkorn, F. Weigend, O. Treutler, R. Ahlrichs; Theor. Chem. Acc. 97, 119 (1997).

================================================================================
                                        WARNINGS
                       Please study these warnings very carefully!
================================================================================


WARNING: Geometry Optimization
  ===> : Switching off AutoStart
         For restart on a previous wavefunction, please use MOREAD

================================================================================
                                       INPUT FILE
================================================================================
NAME = opt-conf-14.inp
|  1> ! B3LYP OPT FREQ DEF2-TZVP D4 CPCM(Methanol) 
|  2> ! TightOpt
|  3> %pal nprocs 64 end
|  4> %maxcore 6000
|  5> 
|  6> %cpcm
|  7> end
|  8> 
|  9> %freq
| 10>    Temp 298.15
| 11> end
| 12> 
| 13> * xyzfile 0 1 conf-14.xyz
| 14> 
| 15> 
| 16>                          ****END OF INPUT****
================================================================================

                       *****************************
                       * Geometry Optimization Run *
                       *****************************

Geometry optimization settings:
Update method            Update   .... BFGS
Choice of coordinates    CoordSys .... (2022) Redundant Internals
Initial Hessian          InHess   .... Almloef's Model
Max. no of cycles        MaxIter  .... 246

Convergence Tolerances:
Energy Change            TolE     ....  1.0000e-06 Eh
Max. Gradient            TolMAXG  ....  1.0000e-04 Eh/bohr
RMS Gradient             TolRMSG  ....  3.0000e-05 Eh/bohr
Max. Displacement        TolMAXD  ....  1.0000e-03 bohr
RMS Displacement         TolRMSD  ....  6.0000e-04 bohr
Strict Convergence                .... False

------------------------------------------------------------------------------
                        ORCA OPTIMIZATION COORDINATE SETUP
------------------------------------------------------------------------------

The optimization will be done in redundant internal coordinates (2022)
Making redundant internal coordinates   ...  (2022 redundants) done
Evaluating the initial hessian          ...  (Almloef) done
Evaluating the coordinates              ...  done
Calculating the B-matrix                .... done
Calculating the G-matrix                .... done
The number of degrees of freedom        ....  406

    -----------------------------------------------------------------
                    Redundant Internal Coordinates


    -----------------------------------------------------------------
         Definition                    Initial Value    Approx d2E/dq
    -----------------------------------------------------------------
      1. B(C   1,C   0)                  1.4092         0.582139   
      2. B(C   2,C   1)                  1.3966         0.609790   
      3. B(C   3,C   2)                  1.3921         0.620106   
      4. B(C   4,C   3)                  1.3841         0.638376   
      5. B(C   5,C   4)                  1.3883         0.628650   
      6. B(C   5,C   0)                  1.3828         0.641465   
      7. B(C   6,C   4)                  1.5028         0.412857   
      8. B(C   7,C   6)                  1.5438         0.355162   
      9. B(C   8,C   7)                  1.5465         0.351645   
     10. B(C   9,C   8)                  1.5534         0.342752   
     11. B(C  10,C   9)                  1.5045         0.410285   
     12. B(C  11,C  10)                  1.3933         0.617360   
     13. B(C  12,C  11)                  1.3802         0.647750   
     14. B(C  13,C  12)                  1.4036         0.594317   
     15. B(C  14,C  13)                  1.3832         0.640711   
     16. B(C  15,C  10)                  1.3852         0.635811   
     17. B(C  15,C  14)                  1.3870         0.631746   
     18. B(C  16,C   7)                  1.5355         0.366054   
     19. B(C  17,C   8)                  1.5479         0.349776   
     20. B(O  18,C   2)                  1.3801         0.580289   
     21. B(O  19,C   0)                  1.3638         0.616184   
     22. B(O  20,C   1)                  1.3696         0.603166   
     23. B(O  21,C  13)                  1.3639         0.615808   
     24. B(O  22,C  12)                  1.3817         0.576924   
     25. B(C  23,O  20)                  1.4150         0.510423   
     26. B(C  24,C  23)                  1.5669         0.326211   
     27. B(C  25,C  24)                  1.5133         0.397153   
     28. B(C  26,C  23)                  1.5370         0.364117   
     29. B(O  27,C  26)                  1.4000         0.539322   
     30. B(C  28,C  25)                  1.3929         0.618228   
     31. B(C  29,C  28)                  1.3818         0.643887   
     32. B(C  30,C  29)                  1.4037         0.594167   
     33. B(C  31,C  30)                  1.3813         0.645121   
     34. B(C  32,C  31)                  1.3848         0.636850   
     35. B(C  32,C  25)                  1.3833         0.640464   
     36. B(C  33,O  19)                  1.4098         0.520426   
     37. B(C  34,O  18)                  1.4089         0.522072   
     38. B(C  35,O  22)                  1.4104         0.519154   
     39. B(O  36,C  24)                  1.4016         0.536346   
     40. B(O  37,C  16)                  1.4124         0.515484   
     41. B(O  38,C  17)                  1.3999         0.539667   
     42. B(O  39,C  29)                  1.3719         0.598121   
     43. B(O  40,C  30)                  1.3697         0.602895   
     44. B(C  41,O  39)                  1.4097         0.520574   
     45. B(H  42,C   3)                  1.0777         0.376718   
     46. B(H  43,C   5)                  1.0778         0.376583   
     47. B(H  44,C   6)                  1.0896         0.360569   
     48. B(H  45,C   6)                  1.0921         0.357357   
     49. B(H  46,C   7)                  1.0944         0.354365   
     50. B(H  47,C   8)                  1.0973         0.350605   
     51. B(H  48,C   9)                  1.0919         0.357618   
     52. B(H  49,C   9)                  1.0929         0.356289   
     53. B(H  50,C  11)                  1.0777         0.376717   
     54. B(H  51,C  14)                  1.0787         0.375398   
     55. B(H  52,C  15)                  1.0805         0.372837   
     56. B(H  53,C  16)                  1.0928         0.356352   
     57. B(H  54,C  16)                  1.0968         0.351260   
     58. B(H  55,C  17)                  1.0984         0.349220   
     59. B(H  56,C  17)                  1.0947         0.353921   
     60. B(H  57,O  21)                  0.9672         0.506294   
     61. B(H  57,O  22)                  2.1188         0.010000   
     62. B(H  58,C  23)                  1.0968         0.351189   
     63. B(H  59,C  24)                  1.0967         0.351315   
     64. B(H  60,C  26)                  1.1002         0.346887   
     65. B(H  61,C  26)                  1.0913         0.358450   
     66. B(H  62,O  20)                  2.2593         0.010000   
     67. B(H  62,O  27)                  0.9663         0.508028   
     68. B(H  63,C  28)                  1.0773         0.377274   
     69. B(H  64,C  31)                  1.0784         0.375791   
     70. B(H  65,C  32)                  1.0786         0.375483   
     71. B(H  66,C  33)                  1.0894         0.360933   
     72. B(H  67,C  33)                  1.0940         0.354810   
     73. B(H  68,H  51)                  2.4378         0.010000   
     74. B(H  68,C  33)                  1.0929         0.356259   
     75. B(H  69,C  34)                  1.0947         0.353921   
     76. B(H  70,C  34)                  1.0937         0.355295   
     77. B(H  71,C  34)                  1.0899         0.360255   
     78. B(H  72,C  35)                  1.0929         0.356247   
     79. B(H  73,C  35)                  1.0931         0.356071   
     80. B(H  74,C  35)                  1.0890         0.361468   
     81. B(H  75,O  18)                  2.1734         0.010000   
     82. B(H  75,O  36)                  0.9670         0.506739   
     83. B(H  76,O  40)                  1.9173         0.015441   
     84. B(H  76,O  37)                  0.9725         0.496615   
     85. B(H  77,O  37)                  1.7953         0.024167   
     86. B(H  77,O  38)                  0.9766         0.489184   
     87. B(H  78,O  39)                  2.1091         0.010000   
     88. B(H  78,O  22)                  2.4221         0.010000   
     89. B(H  78,O  40)                  0.9694         0.502219   
     90. B(H  79,C  41)                  1.0947         0.353957   
     91. B(H  80,O  19)                  2.5112         0.010000   
     92. B(H  80,C  41)                  1.0918         0.357780   
     93. B(H  81,C  41)                  1.0889         0.361557   
     94. A(C   1,C   0,O  19)          114.5014         0.425909   
     95. A(C   5,C   0,O  19)          124.6907         0.433392   
     96. A(C   1,C   0,C   5)          120.8078         0.431810   
     97. A(C   0,C   1,O  20)          113.0444         0.424285   
     98. A(C   0,C   1,C   2)          118.7696         0.427904   
     99. A(C   2,C   1,O  20)          128.1493         0.427825   
    100. A(C   3,C   2,O  18)          122.5531         0.426151   
    101. A(C   1,C   2,C   3)          119.3716         0.432785   
    102. A(C   1,C   2,O  18)          118.0723         0.424873   
    103. A(C   4,C   3,H  42)          118.6475         0.357386   
    104. A(C   2,C   3,H  42)          119.7144         0.355628   
    105. A(C   2,C   3,C   4)          121.6355         0.436368   
    106. A(C   5,C   4,C   6)          119.4713         0.404715   
    107. A(C   3,C   4,C   6)          121.3892         0.405814   
    108. A(C   3,C   4,C   5)          119.1381         0.437446   
    109. A(C   4,C   5,H  43)          119.0462         0.356433   
    110. A(C   0,C   5,H  43)          120.7498         0.357658   
    111. A(C   0,C   5,C   4)          120.2024         0.437827   
    112. A(C   4,C   6,H  44)          108.5313         0.329776   
    113. A(C   7,C   6,H  45)          108.8287         0.321240   
    114. A(C   4,C   6,C   7)          112.4072         0.366439   
    115. A(H  44,C   6,H  45)          108.2814         0.290550   
    116. A(C   4,C   6,H  45)          110.2418         0.329289   
    117. A(C   7,C   6,H  44)          108.4510         0.321711   
    118. A(C   6,C   7,C  16)          109.2536         0.358985   
    119. A(C   8,C   7,C  16)          114.8343         0.358378   
    120. A(C  16,C   7,H  46)          106.6108         0.322388   
    121. A(C   8,C   7,H  46)          108.8676         0.320277   
    122. A(C   6,C   7,H  46)          107.8150         0.320798   
    123. A(C   6,C   7,C   8)          109.2211         0.356542   
    124. A(C   7,C   8,C  17)          115.2115         0.355618   
    125. A(C  17,C   8,H  47)          103.7175         0.319441   
    126. A(C   7,C   8,C   9)          111.6432         0.354397   
    127. A(C   9,C   8,H  47)          106.5112         0.318385   
    128. A(C   7,C   8,H  47)          107.1927         0.319719   
    129. A(C   9,C   8,C  17)          111.7610         0.354077   
    130. A(H  48,C   9,H  49)          106.9269         0.290039   
    131. A(C  10,C   9,H  48)          108.1291         0.328989   
    132. A(C  10,C   9,H  49)          108.3286         0.328786   
    133. A(C   8,C   9,C  10)          116.4049         0.363825   
    134. A(C   8,C   9,H  48)          108.8328         0.319416   
    135. A(C   8,C   9,H  49)          107.8367         0.319222   
    136. A(C   9,C  10,C  11)          120.2426         0.402978   
    137. A(C  11,C  10,C  15)          118.8680         0.435703   
    138. A(C   9,C  10,C  15)          120.8886         0.405078   
    139. A(C  10,C  11,C  12)          120.6752         0.437166   
    140. A(C  10,C  11,H  50)          118.4772         0.355360   
    141. A(C  12,C  11,H  50)          120.8393         0.358273   
    142. A(C  11,C  12,C  13)          120.0320         0.434181   
    143. A(C  13,C  12,O  22)          114.8638         0.422485   
    144. A(C  11,C  12,O  22)          125.1007         0.429047   
    145. A(C  12,C  13,O  21)          120.2935         0.427445   
    146. A(C  12,C  13,C  14)          119.2333         0.433329   
    147. A(C  14,C  13,O  21)          120.4733         0.433252   
    148. A(C  13,C  14,H  51)          118.7524         0.357395   
    149. A(C  13,C  14,C  15)          120.2064         0.438122   
    150. A(C  15,C  14,H  51)          121.0408         0.356540   
    151. A(C  14,C  15,H  52)          119.0348         0.356126   
    152. A(C  10,C  15,H  52)          120.0849         0.356514   
    153. A(C  10,C  15,C  14)          120.8759         0.437516   
    154. A(O  37,C  16,H  54)          108.9413         0.338618   
    155. A(C   7,C  16,H  54)          108.1771         0.321924   
    156. A(O  37,C  16,H  53)          106.2789         0.339432   
    157. A(C   7,C  16,H  53)          111.3767         0.322684   
    158. A(C   7,C  16,O  37)          113.5361         0.380320   
    159. A(H  53,C  16,H  54)          108.4033         0.289232   
    160. A(O  38,C  17,H  56)          106.2327         0.341653   
    161. A(C   8,C  17,O  38)          116.4414         0.380343   
    162. A(H  55,C  17,H  56)          107.3334         0.288659   
    163. A(C   8,C  17,H  56)          108.0940         0.319932   
    164. A(O  38,C  17,H  55)          109.7384         0.340889   
    165. A(C   8,C  17,H  55)          108.6197         0.319234   
    166. A(C   2,O  18,C  34)          118.4827         0.410603   
    167. A(C   0,O  19,C  33)          117.9606         0.414769   
    168. A(C   1,O  20,C  23)          123.2021         0.411777   
    169. A(C  13,O  21,H  57)          107.1537         0.367998   
    170. A(C  12,O  22,C  35)          117.6863         0.409773   
    171. A(C  26,C  23,H  58)          108.1803         0.321634   
    172. A(C  24,C  23,H  58)          107.8835         0.315917   
    173. A(O  20,C  23,H  58)          109.9477         0.338050   
    174. A(C  24,C  23,C  26)          111.0214         0.353521   
    175. A(O  20,C  23,C  26)          103.9494         0.379321   
    176. A(O  20,C  23,C  24)          115.6347         0.372187   
    177. A(C  23,C  24,O  36)          109.4830         0.375380   
    178. A(O  36,C  24,H  59)          105.0828         0.340878   
    179. A(C  25,C  24,H  59)          108.5819         0.326271   
    180. A(C  23,C  24,H  59)          108.3258         0.315936   
    181. A(C  25,C  24,O  36)          113.3898         0.388423   
    182. A(C  23,C  24,C  25)          111.6540         0.358772   
    183. A(C  28,C  25,C  32)          119.5429         0.436386   
    184. A(C  24,C  25,C  32)          121.7022         0.403277   
    185. A(C  24,C  25,C  28)          118.7262         0.400774   
    186. A(O  27,C  26,H  61)          106.9855         0.342344   
    187. A(H  60,C  26,H  61)          109.2744         0.288931   
    188. A(C  23,C  26,H  61)          109.7740         0.322714   
    189. A(O  27,C  26,H  60)          110.4733         0.340471   
    190. A(C  23,C  26,H  60)          108.7121         0.320986   
    191. A(C  23,C  26,O  27)          111.5907         0.382963   
    192. A(C  26,O  27,H  62)          106.8068         0.359958   
    193. A(C  29,C  28,H  63)          120.6687         0.357998   
    194. A(C  25,C  28,H  63)          118.9386         0.355534   
    195. A(C  25,C  28,C  29)          120.3366         0.436806   
    196. A(C  30,C  29,O  39)          114.6283         0.425201   
    197. A(C  28,C  29,O  39)          125.8567         0.431372   
    198. A(C  28,C  29,C  30)          119.5130         0.433695   
    199. A(C  31,C  30,O  40)          120.2407         0.432137   
    200. A(C  29,C  30,O  40)          119.8838         0.425806   
    201. A(C  29,C  30,C  31)          119.8746         0.433844   
    202. A(C  32,C  31,H  64)          120.4391         0.357091   
    203. A(C  30,C  31,H  64)          119.5220         0.357875   
    204. A(C  30,C  31,C  32)          120.0386         0.439302   
    205. A(C  31,C  32,H  65)          119.3426         0.357041   
    206. A(C  25,C  32,H  65)          120.2094         0.357385   
    207. A(C  25,C  32,C  31)          120.4449         0.438728   
    208. A(H  67,C  33,H  68)          109.4493         0.289677   
    209. A(H  66,C  33,H  68)          109.4125         0.290455   
    210. A(O  19,C  33,H  68)          111.6217         0.339959   
    211. A(H  66,C  33,H  67)          109.2486         0.290270   
    212. A(O  19,C  33,H  67)          111.3073         0.339727   
    213. A(O  19,C  33,H  66)          105.7087         0.340700   
    214. A(H  69,C  34,H  71)          109.3542         0.290070   
    215. A(O  18,C  34,H  71)          105.6498         0.340773   
    216. A(H  69,C  34,H  70)          109.5755         0.289440   
    217. A(O  18,C  34,H  70)          111.5055         0.339984   
    218. A(O  18,C  34,H  69)          111.6772         0.339764   
    219. A(H  70,C  34,H  71)          108.9636         0.290246   
    220. A(H  73,C  35,H  74)          109.5047         0.290499   
    221. A(H  72,C  35,H  74)          109.6000         0.290521   
    222. A(O  22,C  35,H  74)          105.5725         0.340645   
    223. A(H  72,C  35,H  73)          109.2710         0.289837   
    224. A(O  22,C  35,H  73)          111.6123         0.339790   
    225. A(O  22,C  35,H  72)          111.2064         0.339818   
    226. A(C  24,O  36,H  75)          106.9475         0.359463   
    227. A(C  16,O  37,H  76)          107.9141         0.355823   
    228. A(C  17,O  38,H  77)          105.8611         0.357688   
    229. A(C  29,O  39,C  41)          118.0244         0.412603   
    230. A(C  30,O  40,H  78)          107.6850         0.366156   
    231. A(H  80,C  41,H  81)          109.5002         0.290729   
    232. A(H  79,C  41,H  81)          109.8311         0.290239   
    233. A(O  39,C  41,H  81)          105.6479         0.340815   
    234. A(H  79,C  41,H  80)          109.5966         0.289761   
    235. A(O  39,C  41,H  80)          111.2618         0.340217   
    236. A(O  39,C  41,H  79)          110.9280         0.339607   
    237. D(O  20,C   1,C   0,O  19)      0.9790         0.023291   
    238. D(C   2,C   1,C   0,O  19)   -176.9959         0.023291   
    239. D(C   2,C   1,C   0,C   5)      3.1265         0.023291   
    240. D(O  20,C   1,C   0,C   5)   -178.8985         0.023291   
    241. D(O  18,C   2,C   1,C   0)    178.8545         0.025680   
    242. D(C   3,C   2,C   1,C   0)     -1.7471         0.025680   
    243. D(C   3,C   2,C   1,O  20)   -179.3773         0.025680   
    244. D(O  18,C   2,C   1,O  20)      1.2243         0.025680   
    245. D(C   4,C   3,C   2,C   1)     -0.6725         0.026609   
    246. D(H  42,C   3,C   2,O  18)     -1.8996         0.026609   
    247. D(C   4,C   3,C   2,O  18)    178.6978         0.026609   
    248. D(H  42,C   3,C   2,C   1)    178.7301         0.026609   
    249. D(C   6,C   4,C   3,H  42)      2.7940         0.028305   
    250. D(C   5,C   4,C   3,H  42)   -177.6465         0.028305   
    251. D(C   5,C   4,C   3,C   2)      1.7623         0.028305   
    252. D(C   6,C   4,C   3,C   2)   -177.7972         0.028305   
    253. D(H  43,C   5,C   4,C   6)     -0.3504         0.027394   
    254. D(H  43,C   5,C   4,C   3)   -179.9185         0.027394   
    255. D(C   0,C   5,C   4,C   3)     -0.3782         0.027394   
    256. D(C   4,C   5,C   0,O  19)    178.0658         0.028598   
    257. D(H  43,C   5,C   0,C   1)    177.4626         0.028598   
    258. D(H  43,C   5,C   0,O  19)     -2.4019         0.028598   
    259. D(C   0,C   5,C   4,C   6)    179.1899         0.027394   
    260. D(C   4,C   5,C   0,C   1)     -2.0697         0.028598   
    261. D(H  45,C   6,C   4,C   3)    -23.4631         0.012618   
    262. D(H  44,C   6,C   4,C   5)     38.5398         0.012618   
    263. D(H  44,C   6,C   4,C   3)   -141.9022         0.012618   
    264. D(C   7,C   6,C   4,C   5)    -81.4121         0.012618   
    265. D(C   7,C   6,C   4,C   3)     98.1459         0.012618   
    266. D(C   8,C   7,C   6,H  44)     42.2149         0.010140   
    267. D(C   8,C   7,C   6,C   4)    162.2133         0.010140   
    268. D(C  16,C   7,C   6,H  45)     50.9891         0.010140   
    269. D(C  16,C   7,C   6,H  44)    168.5795         0.010140   
    270. D(C   8,C   7,C   6,H  45)    -75.3755         0.010140   
    271. D(C  16,C   7,C   6,C   4)    -71.4221         0.010140   
    272. D(C  17,C   8,C   7,H  46)    -86.9319         0.010000   
    273. D(C  17,C   8,C   7,C  16)     32.4772         0.010000   
    274. D(C  17,C   8,C   7,C   6)    155.5807         0.010000   
    275. D(C   9,C   8,C   7,C  16)    161.3555         0.010000   
    276. D(C   9,C   8,C   7,H  46)     41.9464         0.010000   
    277. D(C   9,C   8,C   7,C   6)    -75.5410         0.010000   
    278. D(H  48,C   9,C   8,C  17)   -140.4108         0.010000   
    279. D(H  48,C   9,C   8,C   7)     88.9097         0.010000   
    280. D(C  10,C   9,C   8,H  47)   -150.2280         0.010000   
    281. D(C  10,C   9,C   8,C  17)     97.1507         0.010000   
    282. D(H  48,C   9,C   8,H  47)    -27.7894         0.010000   
    283. D(C  10,C   9,C   8,C   7)    -33.5289         0.010000   
    284. D(C  15,C  10,C   9,H  48)      2.7136         0.012467   
    285. D(C  15,C  10,C   9,C   8)    125.5196         0.012467   
    286. D(C  11,C  10,C   9,H  49)     66.8408         0.012467   
    287. D(C  11,C  10,C   9,H  48)   -177.6159         0.012467   
    288. D(C  11,C  10,C   9,C   8)    -54.8098         0.012467   
    289. D(H  50,C  11,C  10,C  15)    177.8430         0.026360   
    290. D(H  50,C  11,C  10,C   9)     -1.8342         0.026360   
    291. D(C  12,C  11,C  10,C  15)     -3.1981         0.026360   
    292. D(C  12,C  11,C  10,C   9)    177.1248         0.026360   
    293. D(O  22,C  12,C  11,H  50)      2.3534         0.029200   
    294. D(C  13,C  12,C  11,H  50)   -178.3603         0.029200   
    295. D(O  22,C  12,C  11,C  10)   -176.5808         0.029200   
    296. D(C  13,C  12,C  11,C  10)      2.7055         0.029200   
    297. D(O  21,C  13,C  12,C  11)   -179.7810         0.024325   
    298. D(C  14,C  13,C  12,O  22)    179.5571         0.024325   
    299. D(C  14,C  13,C  12,C  11)      0.2006         0.024325   
    300. D(O  21,C  13,C  12,O  22)     -0.4246         0.024325   
    301. D(H  51,C  14,C  13,O  21)     -2.3925         0.028526   
    302. D(H  51,C  14,C  13,C  12)    177.6258         0.028526   
    303. D(C  15,C  14,C  13,O  21)    177.4145         0.028526   
    304. D(C  15,C  14,C  13,C  12)     -2.5672         0.028526   
    305. D(H  52,C  15,C  14,H  51)      1.1110         0.027682   
    306. D(H  52,C  15,C  14,C  13)   -178.6915         0.027682   
    307. D(C  10,C  15,C  14,H  51)   -178.1237         0.027682   
    308. D(C  10,C  15,C  14,C  13)      2.0738         0.027682   
    309. D(H  52,C  15,C  10,C  11)   -178.4163         0.028063   
    310. D(H  52,C  15,C  10,C   9)      1.2587         0.028063   
    311. D(C  14,C  15,C  10,C  11)      0.8104         0.028063   
    312. D(C  14,C  15,C  10,C   9)   -179.5146         0.028063   
    313. D(H  53,C  16,C   7,H  46)    160.2232         0.010726   
    314. D(H  53,C  16,C   7,C   8)     39.5652         0.010726   
    315. D(H  53,C  16,C   7,C   6)    -83.5209         0.010726   
    316. D(O  37,C  16,C   7,H  46)     40.3007         0.010726   
    317. D(O  37,C  16,C   7,C   8)    -80.3573         0.010726   
    318. D(O  37,C  16,C   7,C   6)    156.5566         0.010726   
    319. D(H  55,C  17,C   8,H  47)     47.2658         0.010000   
    320. D(H  55,C  17,C   8,C   9)    161.6236         0.010000   
    321. D(H  55,C  17,C   8,C   7)    -69.5564         0.010000   
    322. D(O  38,C  17,C   8,H  47)    171.7076         0.010000   
    323. D(O  38,C  17,C   8,C   9)    -73.9346         0.010000   
    324. D(O  38,C  17,C   8,C   7)     54.8854         0.010000   
    325. D(C  34,O  18,C   2,C   3)      2.8230         0.027010   
    326. D(C  34,O  18,C   2,C   1)   -177.7990         0.027010   
    327. D(C  33,O  19,C   0,C   5)     -7.7025         0.030715   
    328. D(C  33,O  19,C   0,C   1)    172.4254         0.030715   
    329. D(C  23,O  20,C   1,C   2)    -20.8110         0.029337   
    330. D(C  23,O  20,C   1,C   0)    161.4463         0.029337   
    331. D(H  57,O  21,C  13,C  14)    176.3985         0.027795   
    332. D(H  57,O  21,C  13,C  12)     -3.6201         0.027795   
    333. D(C  35,O  22,C  12,C  13)    170.3789         0.028990   
    334. D(C  35,O  22,C  12,C  11)    -10.3021         0.028990   
    335. D(H  58,C  23,O  20,C   1)     58.4622         0.022382   
    336. D(C  26,C  23,O  20,C   1)    174.0669         0.022382   
    337. D(C  24,C  23,O  20,C   1)    -63.9841         0.022382   
    338. D(O  36,C  24,C  23,H  58)     11.1387         0.010000   
    339. D(O  36,C  24,C  23,C  26)   -107.2354         0.010000   
    340. D(O  36,C  24,C  23,O  20)    134.6747         0.010000   
    341. D(C  25,C  24,C  23,H  58)   -115.2691         0.010000   
    342. D(C  25,C  24,C  23,C  26)    126.3568         0.010000   
    343. D(C  25,C  24,C  23,O  20)      8.2669         0.010000   
    344. D(C  32,C  25,C  24,O  36)    -10.1492         0.011713   
    345. D(C  32,C  25,C  24,C  23)    114.0936         0.011713   
    346. D(C  28,C  25,C  24,H  59)     55.4159         0.011713   
    347. D(C  28,C  25,C  24,O  36)    171.8081         0.011713   
    348. D(C  28,C  25,C  24,C  23)    -63.9491         0.011713   
    349. D(H  60,C  26,C  23,H  58)   -178.8710         0.010620   
    350. D(H  60,C  26,C  23,C  24)    -60.6765         0.010620   
    351. D(H  60,C  26,C  23,O  20)     64.2843         0.010620   
    352. D(O  27,C  26,C  23,H  58)     59.0424         0.010620   
    353. D(O  27,C  26,C  23,C  24)    177.2369         0.010620   
    354. D(O  27,C  26,C  23,O  20)    -57.8023         0.010620   
    355. D(H  62,O  27,C  26,H  61)    170.9624         0.023137   
    356. D(H  62,O  27,C  26,H  60)    -70.1913         0.023137   
    357. D(H  62,O  27,C  26,C  23)     50.8753         0.023137   
    358. D(H  63,C  28,C  25,C  32)    177.5589         0.026438   
    359. D(H  63,C  28,C  25,C  24)     -4.3553         0.026438   
    360. D(C  29,C  28,C  25,C  32)     -5.1463         0.026438   
    361. D(C  29,C  28,C  25,C  24)    172.9396         0.026438   
    362. D(C  30,C  29,C  28,H  63)    179.2910         0.028829   
    363. D(C  30,C  29,C  28,C  25)      2.0434         0.028829   
    364. D(O  39,C  29,C  28,H  63)     -0.1685         0.028829   
    365. D(O  39,C  29,C  28,C  25)   -177.4162         0.028829   
    366. D(O  40,C  30,C  29,O  39)      1.6596         0.024312   
    367. D(O  40,C  30,C  29,C  28)   -177.8586         0.024312   
    368. D(C  31,C  30,C  29,O  39)   -177.9926         0.024312   
    369. D(C  31,C  30,C  29,C  28)      2.4893         0.024312   
    370. D(H  64,C  31,C  30,O  40)     -3.3640         0.028947   
    371. D(H  64,C  31,C  30,C  29)    176.2869         0.028947   
    372. D(C  32,C  31,C  30,O  40)    176.4441         0.028947   
    373. D(C  32,C  31,C  30,C  29)     -3.9051         0.028947   
    374. D(H  65,C  32,C  31,H  64)     -0.0493         0.028161   
    375. D(H  65,C  32,C  31,C  30)   -179.8556         0.028161   
    376. D(C  25,C  32,C  31,H  64)   -179.4102         0.028161   
    377. D(C  25,C  32,C  31,C  30)      0.7835         0.028161   
    378. D(H  65,C  32,C  25,C  28)   -175.6192         0.028503   
    379. D(H  65,C  32,C  25,C  24)      6.3538         0.028503   
    380. D(C  31,C  32,C  25,C  28)      3.7361         0.028503   
    381. D(C  31,C  32,C  25,C  24)   -174.2909         0.028503   
    382. D(H  68,C  33,O  19,C   0)     68.2995         0.023309   
    383. D(H  67,C  33,O  19,C   0)    -54.3194         0.023309   
    384. D(H  66,C  33,O  19,C   0)   -172.8274         0.023309   
    385. D(H  71,C  34,O  18,C   2)    177.5640         0.023464   
    386. D(H  70,C  34,O  18,C   2)     59.3275         0.023464   
    387. D(H  69,C  34,O  18,C   2)    -63.6388         0.023464   
    388. D(H  74,C  35,O  22,C  12)   -174.7011         0.024905   
    389. D(H  73,C  35,O  22,C  12)     66.4025         0.024905   
    390. D(H  72,C  35,O  22,C  12)    -55.9072         0.024905   
    391. D(H  75,O  36,C  24,H  59)   -173.8860         0.022870   
    392. D(H  75,O  36,C  24,C  25)     67.6803         0.022870   
    393. D(H  75,O  36,C  24,C  23)    -57.7336         0.022870   
    394. D(H  76,O  37,C  16,H  54)     60.1380         0.022848   
    395. D(H  76,O  37,C  16,H  53)    176.7492         0.022848   
    396. D(H  76,O  37,C  16,C   7)    -60.4737         0.022848   
    397. D(H  77,O  38,C  17,H  56)    166.7168         0.023168   
    398. D(H  77,O  38,C  17,H  55)     50.9864         0.023168   
    399. D(H  77,O  38,C  17,C   8)    -72.8819         0.023168   
    400. D(C  41,O  39,C  29,C  30)    177.1819         0.028814   
    401. D(C  41,O  39,C  29,C  28)     -3.3354         0.028814   
    402. D(H  78,O  40,C  30,C  31)    177.2723         0.029309   
    403. D(H  78,O  40,C  30,C  29)     -2.3785         0.029309   
    404. D(H  81,C  41,O  39,C  29)    173.9310         0.023323   
    405. D(H  80,C  41,O  39,C  29)     55.1821         0.023323   
    406. D(H  79,C  41,O  39,C  29)    -67.1019         0.023323   
    -----------------------------------------------------------------

Number of atoms                         .... 82
Number of degrees of freedom            .... 406


         *************************************************************
         *                GEOMETRY OPTIMIZATION CYCLE   1            *
         *************************************************************
---------------------------------
CARTESIAN COORDINATES (ANGSTROEM)
---------------------------------
  C     28.811342  -29.126879    0.131304
  C     29.799255  -28.253834   -0.366498
  C     30.246702  -27.210954    0.447587
  C     29.682655  -27.038935    1.708566
  C     28.676946  -27.868624    2.173355
  C     28.245660  -28.920207    1.376101
  C     28.038115  -27.648134    3.515605
  C     26.700667  -26.884085    3.412391
  C     25.898899  -27.082263    4.719852
  C     25.260566  -28.496669    4.791705
  C     24.817362  -29.097825    3.485697
  C     23.939084  -28.403992    2.656001
  C     23.572854  -28.920279    1.429535
  C     24.040676  -30.182025    1.030449
  C     24.864933  -30.896766    1.880660
  C     25.265814  -30.347099    3.089337
  C     26.981005  -25.420147    3.043385
  C     24.868877  -25.971038    5.036533
  O     31.231648  -26.379180   -0.045113
  O     28.485277  -30.150133   -0.709245
  O     30.231279  -28.592733   -1.621202
  O     23.685713  -30.695419   -0.182305
  O     22.764742  -28.282207    0.508170
  C     30.912055  -27.693305   -2.475547
  C     30.089533  -26.441685   -2.936082
  C     28.769283  -26.340603   -2.203333
  C     31.317331  -28.559836   -3.678537
  O     32.105826  -29.648449   -3.286969
  C     27.822595  -27.345518   -2.387814
  C     26.668586  -27.365219   -1.628033
  C     26.435698  -26.340345   -0.697591
  C     27.332944  -25.296188   -0.585175
  C     28.499941  -25.301706   -1.330664
  C     27.627507  -31.157509   -0.222592
  C     31.722774  -25.353354    0.786428
  C     22.094757  -27.112497    0.923121
  O     30.881803  -25.291764   -2.816337
  O     25.887914  -24.775522    2.423426
  O     23.923843  -25.695099    4.041340
  O     25.688773  -28.324047   -1.679619
  O     25.315986  -26.375584    0.090519
  C     25.820184  -29.354734   -2.632302
  H     30.038016  -26.248703    2.349449
  H     27.461526  -29.564553    1.738927
  H     27.846339  -28.619041    3.971554
  H     28.713139  -27.090489    4.168303
  H     26.133244  -27.313188    2.580797
  H     26.612831  -27.019752    5.550757
  H     25.972602  -29.181510    5.256683
  H     24.394130  -28.439590    5.455371
  H     23.566522  -27.448304    2.986664
  H     25.188506  -31.881778    1.583018
  H     25.927071  -30.913394    3.729347
  H     27.225550  -24.826275    3.927597
  H     27.840526  -25.397493    2.362499
  H     25.412488  -25.052793    5.296703
  H     24.301200  -26.275839    5.921537
  H     23.068406  -30.070380   -0.587061
  H     31.826986  -27.334507   -1.988535
  H     29.886929  -26.538137   -4.009604
  H     30.405344  -28.908008   -4.185925
  H     31.913735  -27.968475   -4.375260
  H     31.636365  -30.088516   -2.566057
  H     28.025545  -28.128637   -3.099256
  H     27.118585  -24.481519    0.088093
  H     29.193807  -24.481770   -1.232374
  H     27.606146  -31.925276   -0.995124
  H     28.010130  -31.590953    0.706184
  H     26.615297  -30.779640   -0.057913
  H     30.943963  -24.624353    1.032200
  H     32.152233  -25.755599    1.708301
  H     32.509543  -24.862241    0.214023
  H     21.485388  -27.299757    1.810868
  H     22.795278  -26.299653    1.131305
  H     21.450974  -26.833329    0.090378
  H     31.158178  -25.234936   -1.891408
  H     25.683063  -25.256279    1.603262
  H     24.408486  -25.224251    3.336228
  H     24.798983  -27.154189   -0.166992
  H     25.723602  -28.961701   -3.649420
  H     26.776868  -29.870368   -2.528300
  H     25.008094  -30.050302   -2.426390

----------------------------
CARTESIAN COORDINATES (A.U.)
----------------------------
  NO LB      ZA    FRAG     MASS         X           Y           Z
   0 C     6.0000    0    12.011   54.445547  -55.041824    0.248129
   1 C     6.0000    0    12.011   56.312430  -53.392009   -0.692581
   2 C     6.0000    0    12.011   57.157983  -51.421252    0.845817
   3 C     6.0000    0    12.011   56.092089  -51.096182    3.228721
   4 C     6.0000    0    12.011   54.191575  -52.664067    4.107046
   5 C     6.0000    0    12.011   53.376562  -54.651272    2.600454
   6 C     6.0000    0    12.011   52.984358  -52.247402    6.643531
   7 C     6.0000    0    12.011   50.456949  -50.803559    6.448484
   8 C     6.0000    0    12.011   48.941825  -51.178060    8.919227
   9 C     6.0000    0    12.011   47.735551  -53.850900    9.055010
  10 C     6.0000    0    12.011   46.898018  -54.986919    6.587013
  11 C     6.0000    0    12.011   45.238312  -53.675767    5.019114
  12 C     6.0000    0    12.011   44.546238  -54.651406    2.701430
  13 C     6.0000    0    12.011   45.430294  -57.035762    1.947267
  14 C     6.0000    0    12.011   46.987913  -58.386427    3.553933
  15 C     6.0000    0    12.011   47.745470  -57.347706    5.838000
  16 C     6.0000    0    12.011   50.986710  -48.037116    5.751164
  17 C     6.0000    0    12.011   46.995367  -49.078149    9.517668
  18 O     8.0000    0    15.999   59.019261  -49.849426   -0.085251
  19 O     8.0000    0    15.999   53.829372  -56.975494   -1.340279
  20 O     8.0000    0    15.999   57.128838  -54.032434   -3.063628
  21 O     8.0000    0    15.999   44.759512  -58.005935   -0.344506
  22 O     8.0000    0    15.999   43.019128  -53.445625    0.960302
  23 C     6.0000    0    12.011   58.415318  -52.332763   -4.678107
  24 C     6.0000    0    12.011   56.860977  -49.967543   -5.548391
  25 C     6.0000    0    12.011   54.366067  -49.776526   -4.163696
  26 C     6.0000    0    12.011   59.181179  -53.970268   -6.951428
  27 O     8.0000    0    15.999   60.671219  -56.027448   -6.211472
  28 C     6.0000    0    12.011   52.577085  -51.675540   -4.512314
  29 C     6.0000    0    12.011   50.396324  -51.712769   -3.076536
  30 C     6.0000    0    12.011   49.956229  -49.776038   -1.318256
  31 C     6.0000    0    12.011   51.651779  -47.802868   -1.105820
  32 C     6.0000    0    12.011   53.857084  -47.813295   -2.514591
  33 C     6.0000    0    12.011   52.208422  -58.879159   -0.420638
  34 C     6.0000    0    12.011   59.947355  -47.910896    1.486133
  35 C     6.0000    0    12.011   41.753039  -51.235194    1.744445
  36 O     8.0000    0    15.999   58.358149  -47.794508   -5.322105
  37 O     8.0000    0    15.999   48.921068  -46.818951    4.579612
  38 O     8.0000    0    15.999   45.209511  -48.556701    7.637026
  39 O     8.0000    0    15.999   48.544745  -53.524691   -3.174020
  40 O     8.0000    0    15.999   47.840280  -49.842630    0.171056
  41 C     6.0000    0    12.011   48.793076  -55.472407   -4.974329
  42 H     1.0000    0     1.008   56.763624  -49.602861    4.439815
  43 H     1.0000    0     1.008   51.894764  -55.868908    3.286095
  44 H     1.0000    0     1.008   52.621954  -54.082150    7.505150
  45 H     1.0000    0     1.008   54.259969  -51.193604    7.876952
  46 H     1.0000    0     1.008   49.384674  -51.614446    4.876999
  47 H     1.0000    0     1.008   50.290962  -51.059932   10.489410
  48 H     1.0000    0     1.008   49.081105  -55.145062    9.933692
  49 H     1.0000    0     1.008   46.098224  -53.743036   10.309157
  50 H     1.0000    0     1.008   44.534273  -51.869777    5.643976
  51 H     1.0000    0     1.008   47.599379  -60.247830    2.991471
  52 H     1.0000    0     1.008   48.995063  -58.417848    7.047444
  53 H     1.0000    0     1.008   51.448834  -46.914861    7.422082
  54 H     1.0000    0     1.008   52.610969  -47.994307    4.464476
  55 H     1.0000    0     1.008   48.022644  -47.342918   10.009319
  56 H     1.0000    0     1.008   45.922612  -49.654140   11.190083
  57 H     1.0000    0     1.008   43.592971  -56.824783   -1.109385
  58 H     1.0000    0     1.008   60.144286  -51.654732   -3.757786
  59 H     1.0000    0     1.008   56.478111  -50.149812   -7.577054
  60 H     1.0000    0     1.008   57.457773  -54.628217   -7.910253
  61 H     1.0000    0     1.008   60.308219  -52.852759   -8.268043
  62 H     1.0000    0     1.008   59.784065  -56.859055   -4.849144
  63 H     1.0000    0     1.008   52.960604  -53.155420   -5.856745
  64 H     1.0000    0     1.008   51.246698  -46.263367    0.166471
  65 H     1.0000    0     1.008   55.168301  -46.263840   -2.328849
  66 H     1.0000    0     1.008   52.168055  -60.330029   -1.880512
  67 H     1.0000    0     1.008   52.931475  -59.698249    1.334495
  68 H     1.0000    0     1.008   50.295623  -58.165090   -0.109439
  69 H     1.0000    0     1.008   58.475616  -46.533284    1.950576
  70 H     1.0000    0     1.008   60.758915  -48.671029    3.228221
  71 H     1.0000    0     1.008   61.434133  -46.982827    0.404444
  72 H     1.0000    0     1.008   40.601500  -51.589065    3.422045
  73 H     1.0000    0     1.008   43.076832  -49.699141    2.137856
  74 H     1.0000    0     1.008   40.536467  -50.707643    0.170789
  75 H     1.0000    0     1.008   58.880424  -47.687118   -3.574243
  76 H     1.0000    0     1.008   48.533955  -47.727450    3.029726
  77 H     1.0000    0     1.008   46.125354  -47.666927    6.304557
  78 H     1.0000    0     1.008   46.863287  -51.313981   -0.315570
  79 H     1.0000    0     1.008   48.610563  -54.729683   -6.896404
  80 H     1.0000    0     1.008   50.600947  -56.446816   -4.777795
  81 H     1.0000    0     1.008   47.258448  -56.786841   -4.585213

--------------------------------
INTERNAL COORDINATES (ANGSTROEM)
--------------------------------
 C      0   0   0     0.000000000000     0.00000000     0.00000000
 C      1   0   0     1.409249795619     0.00000000     0.00000000
 C      2   1   0     1.396617996446   118.76962769     0.00000000
 C      3   2   1     1.392051166596   119.37163659   358.25289031
 C      4   3   2     1.384146984808   121.63545758   359.32752981
 C      1   2   3     1.382833152887   120.80775450     3.12652849
 C      5   4   3     1.502783283221   121.38921989   182.20279313
 C      7   5   4     1.543758385263   112.40723505    98.14593887
 C      8   7   5     1.546467672776   109.22108975   162.21333244
 C      9   8   7     1.553440210677   111.64315680   284.45897935
 C     10   9   8     1.504484523429   116.40491349   326.47111938
 C     11  10   9     1.393259504873   120.24259235   305.19016661
 C     12  11  10     1.380179120406   120.67515422   177.12476192
 C     13  12  11     1.403614093940   120.03202108     2.70553596
 C     14  13  12     1.383153099800   119.23326720     0.20064063
 C     11  10   9     1.385242989102   120.88856790   125.51962750
 C      8   7   5     1.535535715593   109.25358178   288.57790161
 C      9   8   7     1.547918639292   115.21148391   155.58070638
 O      3   2   1     1.380116249173   118.07233603   178.85449108
 O      1   2   3     1.363778298913   114.50137711   183.00407925
 O      2   1   3     1.369590819533   113.04435937   177.97493233
 O     14  13  12     1.363944334217   120.29347426   180.21897589
 O     13  12  11     1.381699534054   125.10068765   183.41924410
 C     21   2   1     1.415037402673   123.20205481   161.44631791
 C     24  21   2     1.566904174708   115.63470051   296.01589507
 C     25  24  21     1.513339792481   111.65395716     8.26687199
 C     24  21   2     1.536980344442   103.94944707   174.06689497
 O     27  24  21     1.400045671083   111.59071566   302.19772701
 C     26  25  24     1.392877048284   118.72624298   296.05092480
 C     29  26  25     1.381807200652   120.33658975   172.93960878
 C     30  29  26     1.403682707080   119.51298199     2.04339051
 C     31  30  29     1.381286101655   119.87462784     2.48928223
 C     26  25  24     1.383258151319   121.70222973   114.09357983
 C     20   1   2     1.409754371622   117.96058306   172.42542125
 C     19   3   2     1.408894662616   118.48265122   182.20103354
 C     23  13  12     1.410420131963   117.68630550   349.69788693
 O     25  24  21     1.401551981602   109.48300322   134.67468850
 O     17   8   7     1.412351446898   113.53608080   156.55660276
 O     18   9   8     1.399871874089   116.44139955    54.88544714
 O     30  29  26     1.371877094973   125.85673183   182.58381234
 O     31  30  29     1.369713259602   119.88380157   182.14143067
 C     40  30  29     1.409676697869   118.02436956   356.66455969
 H      4   3   2     1.077719180790   119.71442730   178.73013697
 H      6   1   2     1.077816792994   120.74977125   177.46263129
 H      7   5   4     1.089645797879   108.53129645   218.09783839
 H      7   5   4     1.092081094603   110.24176802   336.53686743
 H      8   7   5     1.094370494745   107.81499667    44.06456354
 H      9   8   7     1.097273897727   107.19266398    40.74393250
 H     10   9   8     1.091882526715   108.83277047    88.90969259
 H     10   9   8     1.092896167743   107.83665031   204.56123797
 H     12  11  10     1.077720036005   118.47723740   358.16584821
 H     15  14  13     1.078674722884   118.75242287   177.62582775
 H     16  11  10     1.080538223144   120.08493360     1.25868872
 H     17   8   7     1.092848264940   111.37671769   276.47910271
 H     17   8   7     1.096765931165   108.17708751    35.51489207
 H     18   9   8     1.098351286800   108.61974664   290.44362153
 H     18   9   8     1.094711793885   108.09404171   174.28698766
 H     22  14  13     0.967247941175   107.15366489   356.37993986
 H     24  21   2     1.096820747488   109.94773258    58.46220867
 H     25  24  21     1.096723174899   108.32579504   248.75049199
 H     27  24  21     1.100175613302   108.71207860    64.28430969
 H     27  24  21     1.091250154761   109.77404049   183.76464875
 H     28  27  24     0.966317350444   106.80678073    50.87531911
 H     29  26  25     1.077317684085   118.93862896   355.64473200
 H     32  31  30     1.078389910974   119.52201384   176.28686158
 H     33  26  25     1.078613297739   120.20935299     6.35376148
 H     34  20   1     1.089370956433   105.70870996   187.17261037
 H     34  20   1     1.094028888117   111.30731355   305.68056592
 H     34  20   1     1.092918988395   111.62166801    68.29946218
 H     35  19   3     1.094711397337   111.67724749   296.36124656
 H     35  19   3     1.093657063223   111.50551146    59.32745399
 H     35  19   3     1.089882569965   105.64983591   177.56403658
 H     36  23  13     1.092927995047   111.20636684   304.09275633
 H     36  23  13     1.093062836739   111.61234718    66.40247254
 H     36  23  13     1.088968115621   105.57245603   185.29890553
 H     37  25  24     0.967008866017   106.94752488   302.26644996
 H     38  17   8     0.972502670578   107.91408779   299.52627352
 H     39  18   9     0.976606602085   105.86107173   287.11806564
 H     41  31  30     0.969448088963   107.68500921   357.62148153
 H     42  40  30     1.094683494119   110.92800343   292.89808909
 H     42  40  30     1.091759765301   111.26175899    55.18214534
 H     42  40  30     1.088900967001   105.64790520   173.93096705

---------------------------
INTERNAL COORDINATES (A.U.)
---------------------------
 C      0   0   0     0.000000000000     0.00000000     0.00000000
 C      1   0   0     2.663096168004     0.00000000     0.00000000
 C      2   1   0     2.639225526988   118.76962769     0.00000000
 C      3   2   1     2.630595469271   119.37163659   358.25289031
 C      4   3   2     2.615658730380   121.63545758   359.32752981
 C      1   2   3     2.613175947863   120.80775450     3.12652849
 C      5   4   3     2.839848843923   121.38921989   182.20279313
 C      7   5   4     2.917280565091   112.40723505    98.14593887
 C      8   7   5     2.922400376509   109.22108975   162.21333244
 C      9   8   7     2.935576563600   111.64315680   284.45897935
 C     10   9   8     2.843063722004   116.40491349   326.47111938
 C     11  10   9     2.632878897693   120.24259235   305.19016661
 C     12  11  10     2.608160553324   120.67515422   177.12476192
 C     13  12  11     2.652446235259   120.03202108     2.70553596
 C     14  13  12     2.613780559907   119.23326720     0.20064063
 C     11  10   9     2.617729878336   120.88856790   125.51962750
 C      8   7   5     2.901741971325   109.25358178   288.57790161
 C      9   8   7     2.925142305853   115.21148391   155.58070638
 O      3   2   1     2.608041743912   118.07233603   178.85449108
 O      1   2   3     2.577167492330   114.50137711   183.00407925
 O      2   1   3     2.588151564450   113.04435937   177.97493233
 O     14  13  12     2.577481253584   120.29347426   180.21897589
 O     13  12  11     2.611033718729   125.10068765   183.41924410
 C     21   2   1     2.674033160307   123.20205481   161.44631791
 C     24  21   2     2.961019768296   115.63470051   296.01589507
 C     25  24  21     2.859797755354   111.65395716     8.26687199
 C     24  21   2     2.904471924214   103.94944707   174.06689497
 O     27  24  21     2.645702893328   111.59071566   302.19772701
 C     26  25  24     2.632156159480   118.72624298   296.05092480
 C     29  26  25     2.611237179113   120.33658975   172.93960878
 C     30  29  26     2.652575895303   119.51298199     2.04339051
 C     31  30  29     2.610252444720   119.87462784     2.48928223
 C     26  25  24     2.613979078507   121.70222973   114.09357983
 C     20   1   2     2.664049678464   117.96058306   172.42542125
 C     19   3   2     2.662425063887   118.48265122   182.20103354
 C     23  13  12     2.665307783179   117.68630550   349.69788693
 O     25  24  21     2.648549407682   109.48300322   134.67468850
 O     17   8   7     2.668957439485   113.53608080   156.55660276
 O     18   9   8     2.645374464608   116.44139955    54.88544714
 O     30  29  26     2.592471998898   125.85673183   182.58381234
 O     31  30  29     2.588382942648   119.88380157   182.14143067
 C     40  30  29     2.663902896342   118.02436956   356.66455969
 H      4   3   2     2.036594100966   119.71442730   178.73013697
 H      6   1   2     2.036778561300   120.74977125   177.46263129
 H      7   5   4     2.059132140968   108.53129645   218.09783839
 H      7   5   4     2.063734184832   110.24176802   336.53686743
 H      8   7   5     2.068060524111   107.81499667    44.06456354
 H      9   8   7     2.073547160605   107.19266398    40.74393250
 H     10   9   8     2.063358945906   108.83277047    88.90969259
 H     10   9   8     2.065274449847   107.83665031   204.56123797
 H     12  11  10     2.036595717089   118.47723740   358.16584821
 H     15  14  13     2.038399813834   118.75242287   177.62582775
 H     16  11  10     2.041921318976   120.08493360     1.25868872
 H     17   8   7     2.065183926668   111.37671769   276.47910271
 H     17   8   7     2.072587242917   108.17708751    35.51489207
 H     18   9   8     2.075583130892   108.61974664   290.44362153
 H     18   9   8     2.068705486015   108.09404171   174.28698766
 H     22  14  13     1.827833712421   107.15366489   356.37993986
 H     24  21   2     2.072690830755   109.94773258    58.46220867
 H     25  24  21     2.072506445283   108.32579504   248.75049199
 H     27  24  21     2.079030608359   108.71207860    64.28430969
 H     27  24  21     2.062163936098   109.77404049   183.76464875
 H     28  27  24     1.826075150796   106.80678073    50.87531911
 H     29  26  25     2.035835382151   118.93862896   355.64473200
 H     32  31  30     2.037861597325   119.52201384   176.28686158
 H     33  26  25     2.038283737132   120.20935299     6.35376148
 H     34  20   1     2.058612765907   105.70870996   187.17261037
 H     34  20   1     2.067414981139   111.30731355   305.68056592
 H     34  20   1     2.065317574630   111.62166801    68.29946218
 H     35  19   3     2.068704736650   111.67724749   296.36124656
 H     35  19   3     2.066712333921   111.50551146    59.32745399
 H     35  19   3     2.059579575369   105.64983591   177.56403658
 H     36  23  13     2.065334594735   111.20636684   304.09275633
 H     36  23  13     2.065589408604   111.61234718    66.40247254
 H     36  23  13     2.057851507095   105.57245603   185.29890553
 H     37  25  24     1.827381925846   106.94752488   302.26644996
 H     38  17   8     1.837763711900   107.91408779   299.52627352
 H     39  18   9     1.845519018520   105.86107173   287.11806564
 H     41  31  30     1.831991389193   107.68500921   357.62148153
 H     42  40  30     2.068652007209   110.92800343   292.89808909
 H     42  40  30     2.063126960453   111.26175899    55.18214534
 H     42  40  30     2.057724614594   105.64790520   173.93096705

---------------------
BASIS SET INFORMATION
---------------------
There are 3 groups of distinct atoms

 Group   1 Type C   : 11s6p2d1f contracted to 5s3p2d1f pattern {62111/411/11/1}
 Group   2 Type O   : 11s6p2d1f contracted to 5s3p2d1f pattern {62111/411/11/1}
 Group   3 Type H   : 5s1p contracted to 3s1p pattern {311/1}

Atom   0C    basis set group =>   1
Atom   1C    basis set group =>   1
Atom   2C    basis set group =>   1
Atom   3C    basis set group =>   1
Atom   4C    basis set group =>   1
Atom   5C    basis set group =>   1
Atom   6C    basis set group =>   1
Atom   7C    basis set group =>   1
Atom   8C    basis set group =>   1
Atom   9C    basis set group =>   1
Atom  10C    basis set group =>   1
Atom  11C    basis set group =>   1
Atom  12C    basis set group =>   1
Atom  13C    basis set group =>   1
Atom  14C    basis set group =>   1
Atom  15C    basis set group =>   1
Atom  16C    basis set group =>   1
Atom  17C    basis set group =>   1
Atom  18O    basis set group =>   2
Atom  19O    basis set group =>   2
Atom  20O    basis set group =>   2
Atom  21O    basis set group =>   2
Atom  22O    basis set group =>   2
Atom  23C    basis set group =>   1
Atom  24C    basis set group =>   1
Atom  25C    basis set group =>   1
Atom  26C    basis set group =>   1
Atom  27O    basis set group =>   2
Atom  28C    basis set group =>   1
Atom  29C    basis set group =>   1
Atom  30C    basis set group =>   1
Atom  31C    basis set group =>   1
Atom  32C    basis set group =>   1
Atom  33C    basis set group =>   1
Atom  34C    basis set group =>   1
Atom  35C    basis set group =>   1
Atom  36O    basis set group =>   2
Atom  37O    basis set group =>   2
Atom  38O    basis set group =>   2
Atom  39O    basis set group =>   2
Atom  40O    basis set group =>   2
Atom  41C    basis set group =>   1
Atom  42H    basis set group =>   3
Atom  43H    basis set group =>   3
Atom  44H    basis set group =>   3
Atom  45H    basis set group =>   3
Atom  46H    basis set group =>   3
Atom  47H    basis set group =>   3
Atom  48H    basis set group =>   3
Atom  49H    basis set group =>   3
Atom  50H    basis set group =>   3
Atom  51H    basis set group =>   3
Atom  52H    basis set group =>   3
Atom  53H    basis set group =>   3
Atom  54H    basis set group =>   3
Atom  55H    basis set group =>   3
Atom  56H    basis set group =>   3
Atom  57H    basis set group =>   3
Atom  58H    basis set group =>   3
Atom  59H    basis set group =>   3
Atom  60H    basis set group =>   3
Atom  61H    basis set group =>   3
Atom  62H    basis set group =>   3
Atom  63H    basis set group =>   3
Atom  64H    basis set group =>   3
Atom  65H    basis set group =>   3
Atom  66H    basis set group =>   3
Atom  67H    basis set group =>   3
Atom  68H    basis set group =>   3
Atom  69H    basis set group =>   3
Atom  70H    basis set group =>   3
Atom  71H    basis set group =>   3
Atom  72H    basis set group =>   3
Atom  73H    basis set group =>   3
Atom  74H    basis set group =>   3
Atom  75H    basis set group =>   3
Atom  76H    basis set group =>   3
Atom  77H    basis set group =>   3
Atom  78H    basis set group =>   3
Atom  79H    basis set group =>   3
Atom  80H    basis set group =>   3
Atom  81H    basis set group =>   3
---------------------------------
AUXILIARY/J BASIS SET INFORMATION
---------------------------------
There are 3 groups of distinct atoms

 Group   1 Type C   : 12s5p4d2f1g contracted to 6s4p3d1f1g pattern {711111/2111/211/2/1}
 Group   2 Type O   : 12s5p4d2f1g contracted to 6s4p3d1f1g pattern {711111/2111/211/2/1}
 Group   3 Type H   : 5s2p1d contracted to 3s1p1d pattern {311/2/1}

Atom   0C    basis set group =>   1
Atom   1C    basis set group =>   1
Atom   2C    basis set group =>   1
Atom   3C    basis set group =>   1
Atom   4C    basis set group =>   1
Atom   5C    basis set group =>   1
Atom   6C    basis set group =>   1
Atom   7C    basis set group =>   1
Atom   8C    basis set group =>   1
Atom   9C    basis set group =>   1
Atom  10C    basis set group =>   1
Atom  11C    basis set group =>   1
Atom  12C    basis set group =>   1
Atom  13C    basis set group =>   1
Atom  14C    basis set group =>   1
Atom  15C    basis set group =>   1
Atom  16C    basis set group =>   1
Atom  17C    basis set group =>   1
Atom  18O    basis set group =>   2
Atom  19O    basis set group =>   2
Atom  20O    basis set group =>   2
Atom  21O    basis set group =>   2
Atom  22O    basis set group =>   2
Atom  23C    basis set group =>   1
Atom  24C    basis set group =>   1
Atom  25C    basis set group =>   1
Atom  26C    basis set group =>   1
Atom  27O    basis set group =>   2
Atom  28C    basis set group =>   1
Atom  29C    basis set group =>   1
Atom  30C    basis set group =>   1
Atom  31C    basis set group =>   1
Atom  32C    basis set group =>   1
Atom  33C    basis set group =>   1
Atom  34C    basis set group =>   1
Atom  35C    basis set group =>   1
Atom  36O    basis set group =>   2
Atom  37O    basis set group =>   2
Atom  38O    basis set group =>   2
Atom  39O    basis set group =>   2
Atom  40O    basis set group =>   2
Atom  41C    basis set group =>   1
Atom  42H    basis set group =>   3
Atom  43H    basis set group =>   3
Atom  44H    basis set group =>   3
Atom  45H    basis set group =>   3
Atom  46H    basis set group =>   3
Atom  47H    basis set group =>   3
Atom  48H    basis set group =>   3
Atom  49H    basis set group =>   3
Atom  50H    basis set group =>   3
Atom  51H    basis set group =>   3
Atom  52H    basis set group =>   3
Atom  53H    basis set group =>   3
Atom  54H    basis set group =>   3
Atom  55H    basis set group =>   3
Atom  56H    basis set group =>   3
Atom  57H    basis set group =>   3
Atom  58H    basis set group =>   3
Atom  59H    basis set group =>   3
Atom  60H    basis set group =>   3
Atom  61H    basis set group =>   3
Atom  62H    basis set group =>   3
Atom  63H    basis set group =>   3
Atom  64H    basis set group =>   3
Atom  65H    basis set group =>   3
Atom  66H    basis set group =>   3
Atom  67H    basis set group =>   3
Atom  68H    basis set group =>   3
Atom  69H    basis set group =>   3
Atom  70H    basis set group =>   3
Atom  71H    basis set group =>   3
Atom  72H    basis set group =>   3
Atom  73H    basis set group =>   3
Atom  74H    basis set group =>   3
Atom  75H    basis set group =>   3
Atom  76H    basis set group =>   3
Atom  77H    basis set group =>   3
Atom  78H    basis set group =>   3
Atom  79H    basis set group =>   3
Atom  80H    basis set group =>   3
Atom  81H    basis set group =>   3
--------------------------------------------------------------------------
WARNING: There is at least one non-excluded one OpenFabrics device found,
but there are no active ports detected (or Open MPI was unable to use
them).  This is most certainly not what you wanted.  Check your
cables, subnet manager configuration, etc.  The openib BTL will be
ignored for this job.

  Local host: c01b01n07
--------------------------------------------------------------------------
--------------------------------------------------------------------------
WARNING: There was an error initializing an OpenFabrics device.

  Local host:   c01b01n07
  Local device: mlx5_0
--------------------------------------------------------------------------
[c01b01n07:2056944] 62 more processes have sent help message help-mpi-btl-openib.txt / error in device init
[c01b01n07:2056944] Set MCA parameter "orte_base_help_aggregate" to 0 to see all help / error messages


           ************************************************************
           *        Program running with 64 parallel MPI-processes    *
           *              working on a common directory               *
           ************************************************************
------------------------------------------------------------------------------
                             ORCA STARTUP CALCULATIONS
                           -- RI-GTO INTEGRALS CHOSEN --
------------------------------------------------------------------------------
------------------------------------------------------------------------------
                   ___                                                        
                  /   \      - P O W E R E D   B Y -                         
                 /     \                                                     
                 |  |  |   _    _      __       _____    __    __             
                 |  |  |  | |  | |    /  \     |  _  \  |  |  /  |          
                  \  \/   | |  | |   /    \    | | | |  |  | /  /          
                 / \  \   | |__| |  /  /\  \   | |_| |  |  |/  /          
                |  |  |   |  __  | /  /__\  \  |    /   |      \           
                |  |  |   | |  | | |   __   |  |    \   |  |\   \          
                \     /   | |  | | |  |  |  |  | |\  \  |  | \   \       
                 \___/    |_|  |_| |__|  |__|  |_| \__\ |__|  \__/        
                                                                              
                      - O R C A' S   B I G   F R I E N D -                    
                                      &                                       
                       - I N T E G R A L  F E E D E R -                       
                                                                              
 v1 FN, 2020, v2 2021, v3 2022-2024                                           
------------------------------------------------------------------------------


----------------------
SHARK INTEGRAL PACKAGE
----------------------

Number of atoms                             ...     82
Number of basis functions                   ...   1542
Number of shells                            ...    622
Maximum angular momentum                    ...      3
Integral batch strategy                     ... SHARK/LIBINT Hybrid
RI-J (if used) integral strategy            ... SPLIT-RIJ (Revised 2003 algorithm where possible)
Printlevel                                  ...      1
Contraction scheme used                     ... SEGMENTED contraction
Prescreening option                         ... SCHWARTZ
   Thresh                                   ... 2.500e-11
   Tcut                                     ... 2.500e-12
   Tpresel                                  ... 2.500e-12 
Coulomb Range Separation                    ... NOT USED
Exchange Range Separation                   ... NOT USED
Multipole approximations                    ... NOT USED
Finite Nucleus Model                        ... NOT USED
CABS basis                                  ... NOT available
Auxiliary Coulomb fitting basis             ... AVAILABLE
   # of basis functions in Aux-J            ...   2498
   # of shells in Aux-J                     ...    830
   Maximum angular momentum in Aux-J        ...      4
Auxiliary J/K fitting basis                 ... NOT available
Auxiliary Correlation fitting basis         ... NOT available
Auxiliary 'external' fitting basis          ... NOT available

Checking pre-screening integrals            ... done (  2.5 sec) Dimension = 622
   => SHARK Basis and OBASIS are compatible. Storing Pre-screening
Shell pair information
Shell pair cut-off parameter TPreSel        ...   2.5e-12
Total number of shell pairs                 ...    193753
Shell pairs after pre-screening             ...    119354
Total number of primitive shell pairs       ...    584784
Primitive shell pairs kept                  ...    225275
          la=0 lb=0:  33093 shell pairs
          la=1 lb=0:  35481 shell pairs
          la=1 lb=1:   9659 shell pairs
          la=2 lb=0:  16217 shell pairs
          la=2 lb=1:   8974 shell pairs
          la=2 lb=2:   2067 shell pairs
          la=3 lb=0:   7411 shell pairs
          la=3 lb=1:   4175 shell pairs
          la=3 lb=2:   1846 shell pairs
          la=3 lb=3:    431 shell pairs

Checking whether 4 symmetric matrices of dimension 1542 fit in memory
:Max Core in MB      =   6000.00
 MB in use           =    143.01
 MB left             =   5856.99
 MB needed           =     36.31
 Data fit in memory  = YES
Calculating RI/J V-Matrix + Cholesky decomp.... done ( 24.1 sec)
Calculating Nuclear repulsion               ... done (  0.3 sec) ENN=   5880.541649594315 Eh

Diagonalization of the overlap matrix:
Smallest eigenvalue                        ... 2.435e-06
Time for diagonalization                   ...  392.222 sec
Threshold for overlap eigenvalues          ... 1.000e-07
Number of eigenvalues below threshold      ... 0
Time for construction of square roots      ...   11.216 sec
Total time needed                          ...  405.621 sec

-------------------
DFT GRID GENERATION
-------------------

General Integration Accuracy     IntAcc      ... 4.388
Radial Grid Type                 RadialGrid  ... OptM3 with GC (2021)
Angular Grid (max. ang.)         AngularGrid ... 4 (Lebedev-302)
Angular grid pruning method      GridPruning ... 4 (adaptive)
Weight generation scheme         WeightScheme... mBecke (2022)
Basis function cutoff            BFCut       ... 1.0000e-11
Integration weight cutoff        WCut        ... 1.0000e-14
Partially contracted basis set               ... off
Rotationally invariant grid construction     ... off
Angular grids for H and He will be reduced by one unit

Total number of grid points                  ...   373209
Total number of batches                      ...     5866
Average number of points per batch           ...       63
Average number of grid points per atom       ...     4551

--------------------
COSX GRID GENERATION
--------------------

GRIDX 1
-------
General Integration Accuracy     IntAcc      ... 3.816
Radial Grid Type                 RadialGrid  ... OptM3 with GC (2021)
Angular Grid (max. ang.)         AngularGrid ... 1 (Lebedev-50)
Angular grid pruning method      GridPruning ... 4 (adaptive)
Weight generation scheme         WeightScheme... mBecke (2022)
Basis function cutoff            BFCut       ... 1.0000e-11
Integration weight cutoff        WCut        ... 1.0000e-14
Partially contracted basis set               ... on
Rotationally invariant grid construction     ... off
Angular grids for H and He will be reduced by one unit

Total number of grid points                  ...    47171
Total number of batches                      ...      414
Average number of points per batch           ...      113
Average number of grid points per atom       ...      575
UseSFitting                                  ... on

GRIDX 2
-------
General Integration Accuracy     IntAcc      ... 4.020
Radial Grid Type                 RadialGrid  ... OptM3 with GC (2021)
Angular Grid (max. ang.)         AngularGrid ... 2 (Lebedev-110)
Angular grid pruning method      GridPruning ... 4 (adaptive)
Weight generation scheme         WeightScheme... mBecke (2022)
Basis function cutoff            BFCut       ... 1.0000e-11
Integration weight cutoff        WCut        ... 1.0000e-14
Partially contracted basis set               ... on
Rotationally invariant grid construction     ... off
[...]
      dxy     :     0.010160
      f0      :     0.000582  f :     0.004636
      f+1     :     0.001089
      f-1     :     0.000453
      f+2     :     0.000699
      f-2     :     0.001197
      f+3     :     0.000293
      f-3     :     0.000323

 39 O s       :     3.237923  s :     3.237923
      pz      :     1.532938  p :     4.420722
      px      :     1.522171
      py      :     1.365612
      dz2     :     0.020012  d :     0.113062
      dxz     :     0.014095
      dyz     :     0.024830
      dx2y2   :     0.024102
      dxy     :     0.030023
      f0      :     0.000868  f :     0.006742
      f+1     :     0.000508
      f-1     :     0.001004
      f+2     :     0.000654
      f-2     :     0.001402
      f+3     :     0.001185
      f-3     :     0.001121

 40 O s       :     3.316941  s :     3.316941
      pz      :     1.605777  p :     4.528934
      px      :     1.405003
      py      :     1.518154
      dz2     :     0.013436  d :     0.070004
      dxz     :     0.017850
      dyz     :     0.006766
      dx2y2   :     0.012441
      dxy     :     0.019511
      f0      :     0.000466  f :     0.004812
      f+1     :     0.000910
      f-1     :     0.000180
      f+2     :     0.000908
      f-2     :     0.001001
      f+3     :     0.000927
      f-3     :     0.000421

 41 C s       :     2.855836  s :     2.855836
      pz      :     0.976830  p :     3.025305
      px      :     1.113925
      py      :     0.934550
      dz2     :     0.131671  d :     0.387727
      dxz     :     0.029878
      dyz     :     0.085062
      dx2y2   :     0.039171
      dxy     :     0.101944
      f0      :     0.005576  f :     0.057542
      f+1     :     0.004374
      f-1     :     0.015530
      f+2     :     0.011079
      f-2     :     0.010539
      f+3     :     0.004115
      f-3     :     0.006328

 42 H s       :     0.779657  s :     0.779657
      pz      :     0.020205  p :     0.062882
      px      :     0.016239
      py      :     0.026438

 43 H s       :     0.776514  s :     0.776514
      pz      :     0.014826  p :     0.064254
      px      :     0.027539
      py      :     0.021889

 44 H s       :     0.788358  s :     0.788358
      pz      :     0.015796  p :     0.059425
      px      :     0.013872
      py      :     0.029757

 45 H s       :     0.792808  s :     0.792808
      pz      :     0.019230  p :     0.058407
      px      :     0.020449
      py      :     0.018728

 46 H s       :     0.773775  s :     0.773775
      pz      :     0.025170  p :     0.062209
      px      :     0.019884
      py      :     0.017155

 47 H s       :     0.779259  s :     0.779259
      pz      :     0.023404  p :     0.057003
      px      :     0.020899
      py      :     0.012700

 48 H s       :     0.796196  s :     0.796196
      pz      :     0.015752  p :     0.058554
      px      :     0.022055
      py      :     0.020747

 49 H s       :     0.791920  s :     0.791920
      pz      :     0.020066  p :     0.059184
      px      :     0.026379
      py      :     0.012739

 50 H s       :     0.769977  s :     0.769977
      pz      :     0.016442  p :     0.073707
      px      :     0.016158
      py      :     0.041107

 51 H s       :     0.787078  s :     0.787078
      pz      :     0.013359  p :     0.060514
      px      :     0.015518
      py      :     0.031638

 52 H s       :     0.790218  s :     0.790218
      pz      :     0.019899  p :     0.059765
      px      :     0.022058
      py      :     0.017809

 53 H s       :     0.810815  s :     0.810815
      pz      :     0.028162  p :     0.057980
      px      :     0.011359
      py      :     0.018459

 54 H s       :     0.809030  s :     0.809030
      pz      :     0.021490  p :     0.061329
      px      :     0.027672
      py      :     0.012167

 55 H s       :     0.822544  s :     0.822544
      pz      :     0.012491  p :     0.058203
      px      :     0.017487
      py      :     0.028225

 56 H s       :     0.816316  s :     0.816316
      pz      :     0.025487  p :     0.056732
      px      :     0.016815
      py      :     0.014430

 57 H s       :     0.646273  s :     0.646273
      pz      :     0.034466  p :     0.155568
      px      :     0.058699
      py      :     0.062404

 58 H s       :     0.792270  s :     0.792270
      pz      :     0.016996  p :     0.060914
      px      :     0.030129
      py      :     0.013789

 59 H s       :     0.783717  s :     0.783717
      pz      :     0.034318  p :     0.055582
      px      :     0.011739
      py      :     0.009526

 60 H s       :     0.820513  s :     0.820513
      pz      :     0.017540  p :     0.058087
      px      :     0.028790
      py      :     0.011757

 61 H s       :     0.807350  s :     0.807350
      pz      :     0.021855  p :     0.057531
      px      :     0.018300
      py      :     0.017376

 62 H s       :     0.661392  s :     0.661392
      pz      :     0.065817  p :     0.157408
      px      :     0.051364
      py      :     0.040227

 63 H s       :     0.777320  s :     0.777320
      pz      :     0.023687  p :     0.062569
      px      :     0.012704
      py      :     0.026178

 64 H s       :     0.787073  s :     0.787073
      pz      :     0.022781  p :     0.061476
      px      :     0.012731
      py      :     0.025964

 65 H s       :     0.789290  s :     0.789290
      pz      :     0.013301  p :     0.061708
      px      :     0.022725
      py      :     0.025682

 66 H s       :     0.822253  s :     0.822253
      pz      :     0.025340  p :     0.060178
      px      :     0.011645
      py      :     0.023194

 67 H s       :     0.823972  s :     0.823972
      pz      :     0.032079  p :     0.061376
      px      :     0.014167
      py      :     0.015130

 68 H s       :     0.823436  s :     0.823436
      pz      :     0.013846  p :     0.063608
      px      :     0.036506
      py      :     0.013256

 69 H s       :     0.825280  s :     0.825280
      pz      :     0.013134  p :     0.061464
      px      :     0.025272
      py      :     0.023058

 70 H s       :     0.823366  s :     0.823366
      pz      :     0.031182  p :     0.061491
      px      :     0.016922
      py      :     0.013386

 71 H s       :     0.819727  s :     0.819727
      pz      :     0.018392  p :     0.060387
      px      :     0.026187
      py      :     0.015808

 72 H s       :     0.823675  s :     0.823675
      pz      :     0.030733  p :     0.061538
      px      :     0.020778
      py      :     0.010026

 73 H s       :     0.828912  s :     0.828912
      pz      :     0.014098  p :     0.061944
      px      :     0.022232
      py      :     0.025613

 74 H s       :     0.820167  s :     0.820167
      pz      :     0.027768  p :     0.060518
      px      :     0.021301
      py      :     0.011449

 75 H s       :     0.662051  s :     0.662051
      pz      :     0.085513  p :     0.159990
      px      :     0.041463
      py      :     0.033014

 76 H s       :     0.665963  s :     0.665963
      pz      :     0.077192  p :     0.169014
      px      :     0.036015
      py      :     0.055807

 77 H s       :     0.662931  s :     0.662931
      pz      :     0.064598  p :     0.181425
      px      :     0.061089
      py      :     0.055738

 78 H s       :     0.646785  s :     0.646785
      pz      :     0.042066  p :     0.158148
      px      :     0.042402
      py      :     0.073680

 79 H s       :     0.826531  s :     0.826531
      pz      :     0.034273  p :     0.060948
      px      :     0.013652
      py      :     0.013023

 80 H s       :     0.824055  s :     0.824055
      pz      :     0.011302  p :     0.063654
      px      :     0.035158
      py      :     0.017195

 81 H s       :     0.824144  s :     0.824144
      pz      :     0.012072  p :     0.061486
      px      :     0.028061
      py      :     0.021354



                      *****************************
                      * MAYER POPULATION ANALYSIS *
                      *****************************

  NA   - Mulliken gross atomic population
  ZA   - Total nuclear charge
  QA   - Mulliken gross atomic charge
  VA   - Mayer's total valence
  BVA  - Mayer's bonded valence
  FA   - Mayer's free valence

  ATOM       NA         ZA         QA         VA         BVA        FA
  0 C      5.8275     6.0000     0.1725     3.8572     3.8572     0.0000
  1 C      5.8081     6.0000     0.1919     3.8826     3.8826    -0.0000
  2 C      5.6354     6.0000     0.3646     3.5407     3.5407    -0.0000
  3 C      6.4545     6.0000    -0.4545     3.9186     3.9186    -0.0000
  4 C      5.8704     6.0000     0.1296     3.7609     3.7609    -0.0000
  5 C      6.3795     6.0000    -0.3795     3.8561     3.8561     0.0000
  6 C      6.2320     6.0000    -0.2320     3.8692     3.8692    -0.0000
  7 C      6.1000     6.0000    -0.1000     3.7958     3.7958     0.0000
  8 C      5.9715     6.0000     0.0285     3.6100     3.6100     0.0000
  9 C      6.2302     6.0000    -0.2302     3.8841     3.8841     0.0000
 10 C      5.8868     6.0000     0.1132     3.6715     3.6715    -0.0000
 11 C      6.3202     6.0000    -0.3202     3.6925     3.6925     0.0000
 12 C      5.7372     6.0000     0.2628     3.5107     3.5107    -0.0000
 13 C      5.7924     6.0000     0.2076     3.9238     3.9238    -0.0000
 14 C      6.2828     6.0000    -0.2828     3.9275     3.9275    -0.0000
 15 C      6.2606     6.0000    -0.2606     3.8875     3.8875    -0.0000
 16 C      6.0947     6.0000    -0.0947     3.8577     3.8577    -0.0000
 17 C      6.0552     6.0000    -0.0552     3.9540     3.9540     0.0000
 18 O      8.3616     8.0000    -0.3616     2.0230     2.0230     0.0000
 19 O      8.3180     8.0000    -0.3180     2.0520     2.0520     0.0000
 20 O      8.3394     8.0000    -0.3394     2.0072     2.0072    -0.0000
 21 O      8.4446     8.0000    -0.4446     2.0541     2.0541     0.0000
 22 O      8.3801     8.0000    -0.3801     1.9838     1.9838    -0.0000
 23 C      5.8675     6.0000     0.1325     3.6341     3.6341    -0.0000
 24 C      5.9757     6.0000     0.0243     3.9797     3.9797    -0.0000
 25 C      5.8143     6.0000     0.1857     3.4566     3.4566    -0.0000
 26 C      6.0248     6.0000    -0.0248     3.9238     3.9238     0.0000
 27 O      8.5157     8.0000    -0.5157     1.8981     1.8981     0.0000
 28 C      6.2913     6.0000    -0.2913     3.8442     3.8442     0.0000
 29 C      5.6727     6.0000     0.3273     3.6499     3.6499    -0.0000
 30 C      5.7615     6.0000     0.2385     3.8254     3.8254    -0.0000
 31 C      6.2733     6.0000    -0.2733     3.8935     3.8935    -0.0000
 32 C      6.2904     6.0000    -0.2904     3.9748     3.9748    -0.0000
 33 C      6.2315     6.0000    -0.2315     3.8513     3.8513    -0.0000
 34 C      6.2301     6.0000    -0.2301     3.8387     3.8387     0.0000
 35 C      6.2112     6.0000    -0.2112     3.8346     3.8346     0.0000
 36 O      8.5040     8.0000    -0.5040     1.9382     1.9382    -0.0000
 37 O      8.5530     8.0000    -0.5530     1.8702     1.8702    -0.0000
 38 O      8.5342     8.0000    -0.5342     1.8592     1.8592     0.0000
 39 O      8.3664     8.0000    -0.3664     2.0012     2.0012     0.0000
 40 O      8.4830     8.0000    -0.4830     2.0148     2.0148     0.0000
 41 C      6.2298     6.0000    -0.2298     3.8140     3.8140    -0.0000
 42 H      0.8471     1.0000     0.1529     0.9774     0.9774    -0.0000
 43 H      0.7745     1.0000     0.2255     0.9244     0.9244     0.0000
 44 H      0.8781     1.0000     0.1219     0.9724     0.9724    -0.0000
 45 H      0.8913     1.0000     0.1087     0.9753     0.9753    -0.0000
 46 H      0.8282     1.0000     0.1718     0.9058     0.9058     0.0000
 47 H      0.9369     1.0000     0.0631     0.9769     0.9769     0.0000
 48 H      0.8756     1.0000     0.1244     0.9635     0.9635    -0.0000
 49 H      0.8931     1.0000     0.1069     0.9689     0.9689     0.0000
 50 H      0.8122     1.0000     0.1878     1.0236     1.0236    -0.0000
 51 H      0.8606     1.0000     0.1394     0.9768     0.9768     0.0000
 52 H      0.8814     1.0000     0.1186     0.9776     0.9776    -0.0000
 53 H      0.8814     1.0000     0.1186     0.9724     0.9724    -0.0000
 54 H      0.8626     1.0000     0.1374     0.9704     0.9704    -0.0000
 55 H      0.8986     1.0000     0.1014     0.9585     0.9585    -0.0000
 56 H      0.8944     1.0000     0.1056     0.9629     0.9629    -0.0000
 57 H      0.6482     1.0000     0.3518     0.9031     0.9031     0.0000
 58 H      0.9169     1.0000     0.0831     1.0180     1.0180    -0.0000
 59 H      0.8863     1.0000     0.1137     0.9733     0.9733     0.0000
 60 H      0.8971     1.0000     0.1029     0.9628     0.9628     0.0000
 61 H      0.8780     1.0000     0.1220     0.9591     0.9591     0.0000
 62 H      0.6655     1.0000     0.3345     0.9159     0.9159     0.0000
 63 H      0.8471     1.0000     0.1529     0.9857     0.9857     0.0000
 64 H      0.8603     1.0000     0.1397     0.9935     0.9935    -0.0000
 65 H      0.8860     1.0000     0.1140     1.0038     1.0038     0.0000
 66 H      0.8538     1.0000     0.1462     0.9617     0.9617     0.0000
 67 H      0.8590     1.0000     0.1410     0.9627     0.9627    -0.0000
 68 H      0.8551     1.0000     0.1449     0.9384     0.9384    -0.0000
 69 H      0.8563     1.0000     0.1437     0.9558     0.9558    -0.0000
 70 H      0.8584     1.0000     0.1416     0.9606     0.9606    -0.0000
 71 H      0.8478     1.0000     0.1522     0.9596     0.9596    -0.0000
 72 H      0.8616     1.0000     0.1384     0.9638     0.9638    -0.0000
 73 H      0.8600     1.0000     0.1400     0.9611     0.9611     0.0000
 74 H      0.8506     1.0000     0.1494     0.9613     0.9613     0.0000
 75 H      0.6620     1.0000     0.3380     0.9126     0.9126    -0.0000
 76 H      0.6388     1.0000     0.3612     0.9030     0.9030    -0.0000
 77 H      0.6601     1.0000     0.3399     0.9359     0.9359    -0.0000
 78 H      0.6500     1.0000     0.3500     0.9081     0.9081    -0.0000
 79 H      0.8589     1.0000     0.1411     0.9601     0.9601     0.0000
 80 H      0.8560     1.0000     0.1440     0.9630     0.9630    -0.0000
 81 H      0.8571     1.0000     0.1429     0.9806     0.9806    -0.0000

  Mayer bond orders larger than 0.100000
B(  0-C ,  1-C ) :   1.3207 B(  0-C ,  5-C ) :   1.3476 B(  0-C , 19-O ) :   1.1199 
B(  1-C ,  2-C ) :   1.3471 B(  1-C , 20-O ) :   1.0416 B(  2-C ,  3-C ) :   1.2669 
B(  2-C , 18-O ) :   0.9997 B(  3-C ,  4-C ) :   1.3722 B(  3-C , 42-H ) :   0.9805 
B(  4-C ,  5-C ) :   1.3865 B(  4-C ,  6-C ) :   0.8807 B(  5-C , 43-H ) :   0.9135 
B(  6-C ,  7-C ) :   0.9359 B(  6-C , 44-H ) :   0.9753 B(  6-C , 45-H ) :   0.9646 
B(  7-C ,  8-C ) :   0.9119 B(  7-C , 16-C ) :   0.9130 B(  7-C , 46-H ) :   0.9526 
B(  8-C ,  9-C ) :   0.9309 B(  8-C , 17-C ) :   0.9300 B(  8-C , 47-H ) :   0.9313 
B(  9-C , 10-C ) :   0.9322 B(  9-C , 48-H ) :   0.9762 B(  9-C , 49-H ) :   0.9629 
B( 10-C , 11-C ) :   1.2844 B( 10-C , 15-C ) :   1.3803 B( 11-C , 12-C ) :   1.3250 
B( 11-C , 50-H ) :   0.9241 B( 12-C , 13-C ) :   1.2448 B( 12-C , 22-O ) :   0.9387 
B( 13-C , 14-C ) :   1.4110 B( 13-C , 21-O ) :   1.1572 B( 14-C , 15-C ) :   1.3629 
B( 14-C , 51-H ) :   1.0075 B( 15-C , 52-H ) :   1.0044 B( 16-C , 37-O ) :   0.9011 
B( 16-C , 53-H ) :   0.9689 B( 16-C , 54-H ) :   0.9918 B( 17-C , 38-O ) :   1.0091 
B( 17-C , 55-H ) :   0.9735 B( 17-C , 56-H ) :   0.9746 B( 18-O , 34-C ) :   0.9175 
B( 19-O , 33-C ) :   0.9049 B( 20-O , 23-C ) :   0.8891 B( 21-O , 57-H ) :   0.8467 
B( 22-O , 35-C ) :   0.9128 B( 23-C , 24-C ) :   0.9165 B( 23-C , 26-C ) :   0.9408 
B( 23-C , 58-H ) :   0.9589 B( 24-C , 25-C ) :   0.9397 B( 24-C , 36-O ) :   1.0113 
B( 24-C , 59-H ) :   0.9468 B( 25-C , 28-C ) :   1.3151 B( 25-C , 32-C ) :   1.3270 
B( 25-C , 36-O ) :  -0.1229 B( 26-C , 27-O ) :   0.9915 B( 26-C , 60-H ) :   0.9688 
B( 26-C , 61-H ) :   0.9643 B( 27-O , 62-H ) :   0.8673 B( 28-C , 29-C ) :   1.3536 
B( 28-C , 63-H ) :   0.9623 B( 29-C , 30-C ) :   1.2968 B( 29-C , 39-O ) :   0.9561 
B( 30-C , 31-C ) :   1.3681 B( 30-C , 40-O ) :   1.0027 B( 31-C , 32-C ) :   1.3828 
B( 31-C , 64-H ) :   0.9861 B( 32-C , 36-O ) :   0.1016 B( 32-C , 65-H ) :   1.0035 
B( 33-C , 66-H ) :   0.9691 B( 33-C , 67-H ) :   0.9663 B( 33-C , 68-H ) :   0.9602 
B( 34-C , 69-H ) :   0.9654 B( 34-C , 70-H ) :   0.9629 B( 34-C , 71-H ) :   0.9652 
B( 35-C , 72-H ) :   0.9672 B( 35-C , 73-H ) :   0.9646 B( 35-C , 74-H ) :   0.9660 
B( 36-O , 75-H ) :   0.8652 B( 37-O , 76-H ) :   0.8303 B( 37-O , 77-H ) :   0.1015 
B( 38-O , 77-H ) :   0.8217 B( 39-O , 41-C ) :   0.9124 B( 40-O , 78-H ) :   0.8405 
B( 41-C , 79-H ) :   0.9662 B( 41-C , 80-H ) :   0.9624 B( 41-C , 81-H ) :   0.9648 


-------
TIMINGS
-------

Total SCF time: 0 days 1 hours 19 min 38 sec 

Total time                  ....    4778.723 sec
Sum of individual times     ....    4967.248 sec  (103.9%)

SCF preparation             ....     140.517 sec  (  2.9%)
Fock matrix formation       ....    1147.860 sec  ( 24.0%)
  Startup                   ....      11.510 sec  (  1.0% of F)
  Split-RI-J                ....      96.319 sec  (  8.4% of F)
  Chain of spheres X        ....     492.074 sec  ( 42.9% of F)
  XC integration            ....     366.117 sec  ( 31.9% of F)
    XC Preparation          ....       0.000 sec  (  0.0% of XC)
    Basis function eval.    ....       1.516 sec  (  0.4% of XC)
    Density eval.           ....       2.162 sec  (  0.6% of XC)
    XC-Functional eval.     ....       0.821 sec  (  0.2% of XC)
    XC-Potential eval.      ....       1.814 sec  (  0.5% of XC)
  CPCM terms                ....      95.752 sec  (  8.3% of F)
Diagonalization             ....       0.000 sec  (  0.0%)
Density matrix formation    ....      88.194 sec  (  1.8%)
Total Energy calculation    ....      57.433 sec  (  1.2%)
Population analysis         ....      40.222 sec  (  0.8%)
Orbital Transformation      ....     488.393 sec  ( 10.2%)
Orbital Orthonormalization  ....       0.000 sec  (  0.0%)
DIIS solution               ....    2352.369 sec  ( 49.2%)
SOSCF solution              ....     652.259 sec  ( 13.6%)
Finished LeanSCF after 4788.9 sec

Maximum memory used throughout the entire LEANSCF-calculation: 351.9 MB
--------------------------------------------------------------------------
mpirun has exited due to process rank 52 with PID 2058201 on
node c01b01n07 exiting improperly. There are three reasons this could occur:

1. this process did not call "init" before exiting, but others in
the job did. This can cause a job to hang indefinitely while it waits
for all processes to call "init". By rule, if one process calls "init",
then ALL processes must call "init" prior to termination.

2. this process called "init", but exited without calling "finalize".
By rule, all processes that call "init" MUST call "finalize" prior to
exiting or it will be considered an "abnormal termination"

3. this process called "MPI_Abort" or "orte_abort" and the mca parameter
orte_create_session_dirs is set to false. In this case, the run-time cannot
detect that the abort call was an abnormal termination. Hence, the only
error message you will receive is this one.

This may have caused other processes in the application to be
terminated by signals sent by mpirun (as reported here).

You can avoid this message by specifying -quiet on the mpirun command line.
--------------------------------------------------------------------------

ORCA finished by error termination in LEANSCF
Calling Command: mpirun -np 64  /home/jiangy/jiangy_liuxy/lustre1/orca-6.1.0-f.0_linux_x86-64/bin/orca_leanscf_mpi opt-conf-14.gbw opt-conf-14 
[file orca_tools/qcmsg.cpp, line 394]: 
  .... aborting the run

[file orca_tools/qcmsg.cpp, line 394]: 
  .... aborting the run

