 Entering Gaussian System, Link 0=/home/tupf/tupf_yangsy/lustre1/g16/Gaussian16_AVX2/g16/g16
 Input=58RS_9.gjf
 Output=58RS_9.log
 Initial command:
 /home/tupf/tupf_yangsy/lustre1/g16/Gaussian16_AVX2/g16/l1.exe "/home/tupf/tupf_yangsy/lustre1/g16/tmp/Gau-2567965.inp" -scrdir="/home/tupf/tupf_yangsy/lustre1/g16/tmp/"
 Entering Link 1 = /home/tupf/tupf_yangsy/lustre1/g16/Gaussian16_AVX2/g16/l1.exe PID=   2567966.
  
 Copyright (c) 1988-2021, Gaussian, Inc.  All Rights Reserved.
  
 This is part of the Gaussian(R) 16 program.  It is based on
 the Gaussian(R) 09 system (copyright 2009, Gaussian, Inc.),
 the Gaussian(R) 03 system (copyright 2003, Gaussian, Inc.),
 the Gaussian(R) 98 system (copyright 1998, Gaussian, Inc.),
 the Gaussian(R) 94 system (copyright 1995, Gaussian, Inc.),
 the Gaussian 92(TM) system (copyright 1992, Gaussian, Inc.),
 the Gaussian 90(TM) system (copyright 1990, Gaussian, Inc.),
 the Gaussian 88(TM) system (copyright 1988, Gaussian, Inc.),
 the Gaussian 86(TM) system (copyright 1986, Carnegie Mellon
 University), and the Gaussian 82(TM) system (copyright 1983,
 Carnegie Mellon University). Gaussian is a federally registered
 trademark of Gaussian, Inc.
  
 This software contains proprietary and confidential information,
 including trade secrets, belonging to Gaussian, Inc.
  
 This software is provided under written license and may be
 used, copied, transmitted, or stored only in accord with that
 written license.
  
 The following legend is applicable only to US Government
 contracts under FAR:
  
                    RESTRICTED RIGHTS LEGEND
  
 Use, reproduction and disclosure by the US Government is
 subject to restrictions as set forth in subparagraphs (a)
 and (c) of the Commercial Computer Software - Restricted
 Rights clause in FAR 52.227-19.
  
 Gaussian, Inc.
 340 Quinnipiac St., Bldg. 40, Wallingford CT 06492
  
  
 ---------------------------------------------------------------
 Warning -- This program may not be used in any manner that
 competes with the business of Gaussian, Inc. or will provide
 assistance to any competitor of Gaussian, Inc.  The licensee
 of this program is prohibited from giving any competitor of
 Gaussian, Inc. access to this program.  By using this program,
 the user acknowledges that Gaussian, Inc. is engaged in the
 business of creating and licensing software in the field of
 computational chemistry and represents and warrants to the
 licensee that it is not a competitor of Gaussian, Inc. and that
 it will not use this program in any manner prohibited above.
 ---------------------------------------------------------------
  

 Cite this work as:
 Gaussian 16, Revision C.02,
 M. J. Frisch, G. W. Trucks, H. B. Schlegel, G. E. Scuseria, 
 M. A. Robb, J. R. Cheeseman, G. Scalmani, V. Barone, 
 G. A. Petersson, H. Nakatsuji, X. Li, M. Caricato, A. V. Marenich, 
 J. Bloino, B. G. Janesko, R. Gomperts, B. Mennucci, H. P. Hratchian, 
 J. V. Ortiz, A. F. Izmaylov, J. L. Sonnenberg, D. Williams-Young, 
 F. Ding, F. Lipparini, F. Egidi, J. Goings, B. Peng, A. Petrone, 
 T. Henderson, D. Ranasinghe, V. G. Zakrzewski, J. Gao, N. Rega, 
 G. Zheng, W. Liang, M. Hada, M. Ehara, K. Toyota, R. Fukuda, 
 J. Hasegawa, M. Ishida, T. Nakajima, Y. Honda, O. Kitao, H. Nakai, 
 T. Vreven, K. Throssell, J. A. Montgomery, Jr., J. E. Peralta, 
 F. Ogliaro, M. J. Bearpark, J. J. Heyd, E. N. Brothers, K. N. Kudin, 
 V. N. Staroverov, T. A. Keith, R. Kobayashi, J. Normand, 
 K. Raghavachari, A. P. Rendell, J. C. Burant, S. S. Iyengar, 
 J. Tomasi, M. Cossi, J. M. Millam, M. Klene, C. Adamo, R. Cammi, 
 J. W. Ochterski, R. L. Martin, K. Morokuma, O. Farkas, 
 J. B. Foresman, and D. J. Fox, Gaussian, Inc., Wallingford CT, 2019.
 
 ******************************************
 Gaussian 16:  ES64L-G16RevC.02  7-Dec-2021
                25-Sep-2025 
 ******************************************
 %mem=400GB
 %nprocshared=64
 Will use up to   64 processors via shared memory.
 ---------------------------------------------------------------------
 # mPW1PW91/6-311+g(2d,p) NMR scrf(SMD,solvent=dmso) geom=connectivity
 ---------------------------------------------------------------------
 1/38=1,57=2,172=1/1;
 2/12=2,17=6,18=5,40=1/2;
 3/5=4,6=6,7=112,11=2,25=1,30=1,70=32201,72=21,74=-7/1,2,3,8;
 4//1;
 5/5=2,38=5,53=21/2;
 8/6=1,10=90,11=11/1;
 10/13=100,45=16/2;
 6/7=2,8=2,9=2,10=2,28=1/1;
 99/9=1/99;
 ----
 58RS
 ----
 Symbolic Z-matrix:
 Charge =  0 Multiplicity = 1
 C                     8.86767  -1.56149   1.67868 
 C                     8.8308   -1.43283   0.28408 
 C                     7.69355  -0.8944   -0.31406 
 C                     6.58697  -0.46861   0.42743 
 C                     6.65545  -0.60154   1.82623 
 C                     7.78275  -1.14633   2.4495 
 C                     5.35089   0.093    -0.23901 
 C                     4.15053   0.05444   0.72336 
 C                     4.60592   0.58891   2.08397 
 O                     5.63154  -0.24125   2.65542 
 C                     2.93058   0.77255   0.19005 
 C                     1.7611    0.05888  -0.08211 
 C                     0.59144   0.64973  -0.58112 
 C                     0.60353   2.0343   -0.83659 
 C                     1.76944   2.76758  -0.59039 
 C                     2.91725   2.15049  -0.07436 
 O                     9.94407  -2.08494   2.33787 
 O                     4.01914   2.92194   0.15043 
 O                    -4.02438  -2.47011  -1.61263 
 O                    -10.14967   0.65063   2.60732 
 C                    -2.93271  -1.69929  -1.33811 
 C                    -1.69518  -2.0845   -1.87229 
 C                    -0.54352  -1.33179  -1.63067 
 C                    -0.61868  -0.16821  -0.84466 
 C                    -1.87015   0.19032  -0.32441 
 C                    -3.0386   -0.54237  -0.55079 
 O                    -6.55954   0.8598   -0.41883 
 C                    -5.40646   0.23041  -1.00303 
 C                    -4.34654  -0.08456   0.05652 
 C                    -4.94639  -1.08537   1.0595 
 C                    -8.32839   0.71419   1.11002 
 C                    -7.05586   0.2871    0.71759 
 C                    -6.33457  -0.65272   1.4763 
 C                    -6.94329  -1.14761   2.63405 
 C                    -8.21259  -0.74314   3.04192 
 C                    -8.90446   0.1999    2.27064 
 O                     1.87241   4.12625  -0.82649 
 C                     1.86442   4.48108  -2.22478 
 O                    -0.50014   2.63062  -1.39128 
 C                    -1.11541   3.66055  -0.60225 
 O                     0.64663  -1.76495  -2.17026 
 C                     0.98139  -1.11863  -3.4055 
 O                    -1.70468  -3.20314  -2.68067 
 C                    -1.01922  -4.34438  -2.12772 
 H                     9.67535  -1.75659  -0.31942 
 H                     7.65783  -0.80628  -1.39764 
 H                     7.80818  -1.24058   3.53011 
 H                     5.52524   1.12815  -0.55475 
 H                     5.11854  -0.4785   -1.14507 
 H                     3.87029  -0.99439   0.87832 
 H                     4.98429   1.61285   1.99329 
 H                     3.78995   0.57563   2.80994 
 H                     1.75479  -1.00808   0.11232 
 H                     10.62245  -2.32316   1.68181 
 H                     3.75736   3.83236  -0.09551 
 H                    -3.70028  -3.18139  -2.20166 
 H                    -10.42823   0.20578   3.42701 
 H                    -1.93821   1.07658   0.29761 
 H                    -5.03237   0.9456   -1.73896 
 H                    -5.72129  -0.68162  -1.52172 
 H                    -4.14931   0.85473   0.58699 
 H                    -4.29689  -1.16489   1.93884 
 H                    -4.97893  -2.07989   0.59971 
 H                    -8.86191   1.44211   0.50783 
 H                    -6.39918  -1.86969   3.23883 
 H                    -8.65902  -1.14468   3.94853 
 H                     0.90442   4.22853  -2.683 
 H                     2.02383   5.56038  -2.26523 
 H                     2.67349   3.96603  -2.75516 
 H                    -2.07075   3.87846  -1.08485 
 H                    -1.29546   3.31036   0.42071 
 H                    -0.50219   4.56566  -0.57088 
 H                     1.08287  -0.03569  -3.26889 
 H                     1.93946  -1.53627  -3.72329 
 H                     0.22072  -1.32089  -4.16895 
 H                     0.0508   -4.14178  -2.03901 
 H                    -1.43255  -4.60465  -1.14612 
 H                    -1.18645  -5.16684  -2.8266 
 
 Stoichiometry    C34H34O10
 Framework group  C1[X(C34H34O10)]
 Deg. of freedom   228
 Full point group                 C1      NOp   1
 Largest Abelian subgroup         C1      NOp   1
 Largest concise Abelian subgroup C1      NOp   1
                         Standard orientation:                         
 ---------------------------------------------------------------------
 Center     Atomic      Atomic             Coordinates (Angstroms)
 Number     Number       Type             X           Y           Z
 ---------------------------------------------------------------------
      1          6           0        8.867673   -1.561489    1.678679
      2          6           0        8.830796   -1.432828    0.284081
      3          6           0        7.693554   -0.894402   -0.314061
      4          6           0        6.586971   -0.468613    0.427428
      5          6           0        6.655454   -0.601541    1.826230
      6          6           0        7.782750   -1.146325    2.449504
      7          6           0        5.350886    0.092995   -0.239013
      8          6           0        4.150533    0.054436    0.723361
      9          6           0        4.605920    0.588910    2.083967
     10          8           0        5.631541   -0.241254    2.655415
     11          6           0        2.930581    0.772546    0.190053
     12          6           0        1.761104    0.058883   -0.082106
     13          6           0        0.591441    0.649734   -0.581115
     14          6           0        0.603534    2.034302   -0.836592
     15          6           0        1.769439    2.767584   -0.590392
     16          6           0        2.917247    2.150486   -0.074356
     17          8           0        9.944067   -2.084935    2.337865
     18          8           0        4.019145    2.921938    0.150427
     19          8           0       -4.024376   -2.470111   -1.612633
     20          8           0      -10.149672    0.650627    2.607315
     21          6           0       -2.932705   -1.699285   -1.338108
     22          6           0       -1.695177   -2.084498   -1.872292
     23          6           0       -0.543520   -1.331791   -1.630666
     24          6           0       -0.618684   -0.168208   -0.844661
     25          6           0       -1.870145    0.190316   -0.324409
     26          6           0       -3.038597   -0.542371   -0.550790
     27          8           0       -6.559542    0.859795   -0.418832
     28          6           0       -5.406461    0.230414   -1.003027
     29          6           0       -4.346536   -0.084563    0.056519
     30          6           0       -4.946394   -1.085367    1.059501
     31          6           0       -8.328393    0.714193    1.110021
     32          6           0       -7.055860    0.287096    0.717588
     33          6           0       -6.334574   -0.652724    1.476303
     34          6           0       -6.943288   -1.147610    2.634046
     35          6           0       -8.212589   -0.743142    3.041916
     36          6           0       -8.904457    0.199903    2.270637
     37          8           0        1.872411    4.126246   -0.826485
     38          6           0        1.864415    4.481076   -2.224781
     39          8           0       -0.500139    2.630623   -1.391284
     40          6           0       -1.115414    3.660547   -0.602250
     41          8           0        0.646632   -1.764949   -2.170262
     42          6           0        0.981393   -1.118631   -3.405498
     43          8           0       -1.704683   -3.203135   -2.680669
     44          6           0       -1.019219   -4.344384   -2.127716
     45          1           0        9.675349   -1.756592   -0.319419
     46          1           0        7.657830   -0.806279   -1.397643
     47          1           0        7.808178   -1.240576    3.530107
     48          1           0        5.525244    1.128154   -0.554750
     49          1           0        5.118540   -0.478499   -1.145072
     50          1           0        3.870287   -0.994394    0.878321
     51          1           0        4.984285    1.612847    1.993288
     52          1           0        3.789953    0.575631    2.809935
     53          1           0        1.754791   -1.008076    0.112320
     54          1           0       10.622453   -2.323159    1.681809
     55          1           0        3.757364    3.832362   -0.095507
     56          1           0       -3.700283   -3.181391   -2.201660
     57          1           0      -10.428232    0.205779    3.427013
     58          1           0       -1.938209    1.076575    0.297608
     59          1           0       -5.032366    0.945603   -1.738955
     60          1           0       -5.721294   -0.681623   -1.521718
     61          1           0       -4.149305    0.854728    0.586986
     62          1           0       -4.296888   -1.164886    1.938842
     63          1           0       -4.978926   -2.079893    0.599709
     64          1           0       -8.861905    1.442109    0.507829
     65          1           0       -6.399175   -1.869691    3.238825
     66          1           0       -8.659019   -1.144675    3.948533
     67          1           0        0.904417    4.228526   -2.683000
     68          1           0        2.023828    5.560380   -2.265228
     69          1           0        2.673492    3.966025   -2.755160
     70          1           0       -2.070746    3.878463   -1.084854
     71          1           0       -1.295459    3.310364    0.420707
     72          1           0       -0.502188    4.565656   -0.570881
     73          1           0        1.082871   -0.035694   -3.268888
     74          1           0        1.939463   -1.536267   -3.723287
     75          1           0        0.220718   -1.320889   -4.168954
     76          1           0        0.050795   -4.141779   -2.039008
     77          1           0       -1.432548   -4.604646   -1.146117
     78          1           0       -1.186450   -5.166836   -2.826595
 ---------------------------------------------------------------------
 Rotational constants (GHZ):           0.1284137           0.0271479           0.0263052
 Standard basis: 6-311+G(2d,p) (5D, 7F)
 There are  1480 symmetry adapted cartesian basis functions of A   symmetry.
 There are  1392 symmetry adapted basis functions of A   symmetry.
  1392 basis functions,  2120 primitive gaussians,  1480 cartesian basis functions
   159 alpha electrons      159 beta electrons
       nuclear repulsion energy      5135.5717721543 Hartrees.
 NAtoms=   78 NActive=   78 NUniq=   78 SFac= 1.00D+00 NAtFMM=   60 NAOKFM=T Big=T
 Integral buffers will be    131072 words long.
 Raffenetti 2 integral format.
 Two-electron integral symmetry is turned on.
 ------------------------------------------------------------------------------
 Polarizable Continuum Model (PCM)
 =================================
 Model                : PCM.
 Atomic radii         : SMD-Coulomb.
 Polarization charges : Total charges.
 Charge compensation  : None.
 Solution method      : On-the-fly selection.
 Cavity type          : VdW (van der Waals Surface) (Alpha=1.000).
 Cavity algorithm     : GePol (No added spheres)
                        Default sphere list used, NSphG=   78.
                        Lebedev-Laikov grids with approx.  5.0 points / Ang**2.
                        Smoothing algorithm: York/Karplus (Gamma=1.0000).
                        Polarization charges: spherical gaussians, with
                                              point-specific exponents (IZeta= 3).
                        Self-potential: point-specific (ISelfS= 7).
                        Self-field    : sphere-specific E.n sum rule (ISelfD= 2).
 Solvent              : DiMethylSulfoxide, Eps=  46.826000 Eps(inf)=   2.185371
 ------------------------------------------------------------------------------
 ------------------------------------------------------------------------------
 Atomic radii for non-electrostatic terms: SMD-CDS.
 ------------------------------------------------------------------------------
 Nuclear repulsion after PCM non-electrostatic terms =     5135.5672593732 Hartrees.
 One-electron integrals computed using PRISM.
 NBasis=  1392 RedAO= T EigKep=  1.11D-06  NBF=  1392
 NBsUse=  1380 1.00D-06 EigRej=  8.35D-07 NBFU=  1380
 ExpMin= 4.38D-02 ExpMax= 8.59D+03 ExpMxC= 1.30D+03 IAcc=3 IRadAn=         5 AccDes= 0.00D+00
 Harris functional with IExCor=  908 and IRadAn=       5 diagonalized for initial guess.
 HarFok:  IExCor=  908 AccDes= 0.00D+00 IRadAn=         5 IDoV= 1 UseB2=F ITyADJ=14
 ICtDFT=  3500011 ScaDFX=  1.000000  1.000000  1.000000  1.000000
 FoFCou: FMM=F IPFlag=           0 FMFlag=      100000 FMFlg1=        2001
         NFxFlg=           0 DoJE=T BraDBF=F KetDBF=T FulRan=T
         wScrn=  0.000000 ICntrl=       500 IOpCl=  0 I1Cent=   200000004 NGrid=           0
         NMat0=    1 NMatS0=      1 NMatT0=    0 NMatD0=    1 NMtDS0=    0 NMtDT0=    0
 Petite list used in FoFCou.
 Requested convergence on RMS density matrix=1.00D-08 within 128 cycles.
 Requested convergence on MAX density matrix=1.00D-06.
 Requested convergence on             energy=1.00D-06.
 No special actions if energy rises.
 Inv3:  Mode=1 IEnd=    93375723.
 Iteration    1 A*A^-1 deviation from unit magnitude is 3.66D-15 for    117.
 Iteration    1 A*A^-1 deviation from orthogonality  is 2.66D-15 for   2266   2122.
 Iteration    1 A^-1*A deviation from unit magnitude is 3.66D-15 for    658.
 Iteration    1 A^-1*A deviation from orthogonality  is 1.21D-14 for   1594   1544.
 Error on total polarization charges =  0.05108
 SCF Done:  E(RmPW1PW91) =  -2068.42330057     A.U. after   14 cycles
            NFock= 14  Conv=0.31D-08     -V/T= 2.0043
 SMD-CDS (non-electrostatic) energy       (kcal/mol) =      -2.83
 (included in total energy above)
 DoSCS=F DFT=T ScalE2(SS,OS)=  1.000000  1.000000
 Range of M.O.s used for correlation:     1  1380
 NBasis=  1392 NAE=   159 NBE=   159 NFC=     0 NFV=     0
 NROrb=   1380 NOA=   159 NOB=   159 NVA=  1221 NVB=  1221

 **** Warning!!: The largest alpha MO coefficient is  0.13999176D+03

 NEqPCM:  Using equilibrium solvation (IEInf=0, Eps=  46.8260, EpsInf=   2.1854)
          Differentiating once with respect to magnetic field using GIAOs.
          Electric field/nuclear overlap derivatives assumed to be zero.
 FoFJK:  IHMeth= 1 ICntrl=    6127 DoSepK=F KAlg= 0 I1Cent=           0 FoldK=F
 IRaf=         1 NMat=       1 IRICut=       1 DoRegI=T DoRafI=F ISym2E= 0 IDoP0=0 IntGTp=1.
          There are     3 degrees of freedom in the 1st order CPHF.  IDoFFX=0 NUNeed=     3.
      3 vectors produced by pass  0 Test12= 6.47D-12 3.33D-08 XBig12= 3.33D+03 6.10D+00.
 AX will form     3 AO Fock derivatives at one time.
      3 vectors produced by pass  1 Test12= 6.47D-12 3.33D-08 XBig12= 1.05D+01 6.89D-01.
      3 vectors produced by pass  2 Test12= 6.47D-12 3.33D-08 XBig12= 6.06D-02 4.51D-02.
      3 vectors produced by pass  3 Test12= 6.47D-12 3.33D-08 XBig12= 2.22D-04 2.50D-03.
      3 vectors produced by pass  4 Test12= 6.47D-12 3.33D-08 XBig12= 6.91D-07 1.54D-04.
      3 vectors produced by pass  5 Test12= 6.47D-12 3.33D-08 XBig12= 2.83D-09 1.11D-05.
      3 vectors produced by pass  6 Test12= 6.47D-12 3.33D-08 XBig12= 1.31D-11 6.53D-07.
      1 vectors produced by pass  7 Test12= 6.47D-12 3.33D-08 XBig12= 5.82D-14 4.26D-08.
 InvSVY:  IOpt=1 It=  1 EMax= 1.42D-14
 Solved reduced A of dimension    22 with     3 vectors.
 Calculating GIAO nuclear magnetic shielding tensors.
 SCF GIAO Magnetic shielding tensor (ppm):
      1  C    Isotropic =    24.0978   Anisotropy =   139.4926
   XX=   -18.3070   YX=    60.9078   ZX=   -23.8281
   XY=    61.1878   YY=    88.7251   ZY=    20.8711
   XZ=   -27.4092   YZ=    21.5226   ZZ=     1.8753
   Eigenvalues:   -62.1583    17.3589   117.0928
      2  C    Isotropic =    77.2067   Anisotropy =   125.2748
   XX=    40.8435   YX=    49.7698   ZX=    36.9739
   XY=    51.7144   YY=   138.8094   ZY=   -10.4833
   XZ=    32.6172   YZ=    -5.8559   ZZ=    51.9671
   Eigenvalues:    -3.2565    74.1534   160.7232
      3  C    Isotropic =    50.6590   Anisotropy =   169.3643
   XX=    61.6735   YX=    45.8316   ZX=     1.3122
   XY=    50.3815   YY=   139.8624   ZY=    13.2447
   XZ=    -4.6493   YZ=    17.4397   ZZ=   -49.5590
   Eigenvalues:   -51.0959    39.5043   163.5685
      4  C    Isotropic =    66.8420   Anisotropy =   159.3118
   XX=    26.0582   YX=    64.4709   ZX=   -16.3165
   XY=    50.3431   YY=   149.0282   ZY=    27.7180
   XZ=    -9.6602   YZ=    13.0581   ZZ=    25.4395
   Eigenvalues:    -8.3047    35.7808   173.0498
      5  C    Isotropic =    23.9894   Anisotropy =   139.2236
   XX=   -13.2348   YX=    55.6535   ZX=    32.1256
   XY=    55.4297   YY=    92.2444   ZY=    -1.7618
   XZ=    37.4986   YZ=    -8.3793   ZZ=    -7.0415
   Eigenvalues:   -59.3649    14.5279   116.8051
      6  C    Isotropic =    81.3617   Anisotropy =   114.0396
   XX=    84.1032   YX=    32.8218   ZX=    -0.5040
   XY=    30.3865   YY=   143.0576   ZY=     8.7803
   XZ=     0.8171   YZ=    10.9329   ZZ=    16.9242
   Eigenvalues:    16.0715    70.6254   157.3881
      7  C    Isotropic =   155.7188   Anisotropy =    21.1778
   XX=   168.3129   YX=    -3.3921   ZX=    -2.0926
   XY=    -7.7965   YY=   148.6407   ZY=     1.1976
   XZ=     0.9479   YZ=     1.7934   ZZ=   150.2027
   Eigenvalues:   146.6770   150.6421   169.8373
      8  C    Isotropic =   143.2345   Anisotropy =    31.6986
   XX=   141.6188   YX=    -4.1354   ZX=     7.7970
   XY=   -14.8847   YY=   155.8914   ZY=    -9.8913
   XZ=    12.7199   YZ=    -3.7987   ZZ=   132.1933
   Eigenvalues:   125.6005   139.7361   164.3669
      9  C    Isotropic =   116.1070   Anisotropy =    62.1273
   XX=   128.0033   YX=   -30.5580   ZX=    21.1321
   XY=   -20.6603   YY=   114.5062   ZY=    -9.8753
   XZ=    21.0135   YZ=    -8.8069   ZZ=   105.8115
   Eigenvalues:    90.3392   100.4566   157.5252
     10  O    Isotropic =   208.1963   Anisotropy =    99.2091
   XX=   189.1882   YX=    49.4770   ZX=   -36.8142
   XY=    54.9492   YY=   240.9090   ZY=   -12.9459
   XZ=   -44.9349   YZ=    44.6507   ZZ=   194.4917
   Eigenvalues:   128.4678   221.7854   274.3356
     11  C    Isotropic =    59.9860   Anisotropy =   154.6320
   XX=    22.7117   YX=    13.7791   ZX=   -51.8269
   XY=    -4.1167   YY=    17.7177   ZY=    23.5710
   XZ=   -49.8437   YZ=    34.5337   ZZ=   139.5287
   Eigenvalues:    -6.8148    23.6989   163.0740
     12  C    Isotropic =    52.1334   Anisotropy =   146.0446
   XX=    58.3053   YX=    -4.0796   ZX=   -29.9272
   XY=    -7.7502   YY=   -34.2958   ZY=    32.6083
   XZ=   -30.3283   YZ=    35.9209   ZZ=   132.3905
   Eigenvalues:   -41.0645    47.9681   149.4964
     13  C    Isotropic =    59.6729   Anisotropy =   139.9232
   XX=    11.9117   YX=   -37.8658   ZX=   -41.0517
   XY=   -18.8787   YY=    29.1145   ZY=    16.5363
   XZ=   -36.2463   YZ=    13.3661   ZZ=   137.9924
   Eigenvalues:   -12.8632    38.9268   152.9550
     14  C    Isotropic =    30.8454   Anisotropy =   119.8244
   XX=     0.0174   YX=     3.6033   ZX=   -37.6035
   XY=    15.8263   YY=     4.1197   ZY=    27.4340
   XZ=   -52.6234   YZ=    21.3401   ZZ=    88.3990
   Eigenvalues:   -29.7575    11.5653   110.7283
     15  C    Isotropic =    40.6255   Anisotropy =   104.6034
   XX=    31.2872   YX=     0.7059   ZX=   -27.3382
   XY=    -8.7309   YY=    -2.1942   ZY=    24.6641
   XZ=   -31.1528   YZ=    27.4903   ZZ=    92.7835
   Eigenvalues:    -9.2332    20.7486   110.3610
     16  C    Isotropic =    32.2623   Anisotropy =   125.1922
   XX=    -8.8212   YX=   -30.7960   ZX=   -37.4353
   XY=   -32.2641   YY=     3.1700   ZY=     9.9298
   XZ=   -24.2871   YZ=    23.0091   ZZ=   102.4381
   Eigenvalues:   -36.3546    17.4177   115.7237
     17  O    Isotropic =   212.7231   Anisotropy =    64.7670
   XX=   233.9288   YX=    -7.4553   ZX=    38.0527
   XY=    -8.4290   YY=   228.5463   ZY=   -13.1680
   XZ=    32.2498   YZ=    -9.8738   ZZ=   175.6941
   Eigenvalues:   158.4421   223.8260   255.9011
     18  O    Isotropic =   229.0178   Anisotropy =   109.6673
   XX=   212.5847   YX=    -8.6052   ZX=   -25.3670
   XY=    31.8184   YY=   186.3525   ZY=    32.9216
   XZ=   -41.1655   YZ=     3.2015   ZZ=   288.1164
   Eigenvalues:   173.7507   211.1735   302.1294
     19  O    Isotropic =   227.2603   Anisotropy =   106.7946
   XX=   202.2125   YX=   -20.9877   ZX=    10.9142
   XY=    29.2942   YY=   232.1155   ZY=   -51.1005
   XZ=    30.1846   YZ=   -61.7447   ZZ=   247.4528
   Eigenvalues:   172.9354   210.3888   298.4567
     20  O    Isotropic =   212.4586   Anisotropy =    65.2032
   XX=   249.5404   YX=    -6.9097   ZX=    -9.9189
   XY=    -4.5259   YY=   201.8087   ZY=    33.5234
   XZ=   -15.8007   YZ=    36.3264   ZZ=   186.0268
   Eigenvalues:   157.6452   223.8033   255.9274
     21  C    Isotropic =    32.1498   Anisotropy =   124.8805
   XX=    -9.8093   YX=   -28.1247   ZX=     7.5096
   XY=   -41.3981   YY=    26.9282   ZY=   -51.4654
   XZ=     5.2042   YZ=   -51.1748   ZZ=    79.3305
   Eigenvalues:   -35.7651    16.8111   115.4035
     22  C    Isotropic =    40.5132   Anisotropy =   108.1066
   XX=    21.8180   YX=    -3.1145   ZX=    18.9404
   XY=    -8.0194   YY=    32.6420   ZY=   -50.2849
   XZ=    16.1278   YZ=   -63.3672   ZZ=    67.0797
   Eigenvalues:   -10.7072    19.6625   112.5843
     23  C    Isotropic =    30.2500   Anisotropy =   118.1184
   XX=   -13.4083   YX=    -7.3132   ZX=    27.4804
   XY=     7.9553   YY=    37.6763   ZY=   -53.9987
   XZ=    41.3055   YZ=   -42.9867   ZZ=    66.4820
   Eigenvalues:   -31.9449    13.6993   108.9956
     24  C    Isotropic =    57.6724   Anisotropy =   145.4763
   XX=     2.1324   YX=   -44.4441   ZX=     7.5372
   XY=   -29.9044   YY=    57.3618   ZY=   -58.1281
   XZ=    19.3030   YZ=   -54.0771   ZZ=   113.5232
   Eigenvalues:   -18.3355    36.6962   154.6566
     25  C    Isotropic =    52.2948   Anisotropy =   144.7907
   XX=    52.6464   YX=    -3.7197   ZX=    18.7418
   XY=    -7.9139   YY=    22.7085   ZY=   -87.4603
   XZ=    23.0483   YZ=   -87.6849   ZZ=    81.5295
   Eigenvalues:   -40.8725    48.9350   148.8220
     26  C    Isotropic =    59.4173   Anisotropy =   156.0717
   XX=     6.3281   YX=     4.8166   ZX=    36.1712
   XY=   -14.5769   YY=    63.7997   ZY=   -66.3661
   XZ=    24.9056   YZ=   -71.9740   ZZ=   108.1240
   Eigenvalues:    -7.6548    22.4415   163.4651
     27  O    Isotropic =   208.2382   Anisotropy =    98.8437
   XX=   158.7073   YX=    59.8485   ZX=    34.5793
   XY=    48.9317   YY=   243.3115   ZY=   -22.6317
   XZ=    12.8921   YZ=    31.3619   ZZ=   222.6957
   Eigenvalues:   128.0647   222.5159   274.1340
     28  C    Isotropic =   116.1059   Anisotropy =    61.7175
   XX=   139.3275   YX=   -24.3822   ZX=   -20.1060
   XY=   -17.8331   YY=   101.3095   ZY=     8.7472
   XZ=   -14.6696   YZ=    14.0643   ZZ=   107.6807
   Eigenvalues:    90.7525   100.3142   157.2509
     29  C    Isotropic =   142.8192   Anisotropy =    31.5069
   XX=   147.0347   YX=    -2.9436   ZX=    -4.5694
   XY=   -15.0162   YY=   142.9316   ZY=    15.2399
   XZ=    -9.7647   YZ=    14.9537   ZZ=   138.4913
   Eigenvalues:   125.4408   139.1930   163.8238
     30  C    Isotropic =   156.1371   Anisotropy =    20.5965
   XX=   163.4709   YX=     4.3658   ZX=    -8.4534
   XY=    -0.5689   YY=   148.6649   ZY=    -1.5638
   XZ=    -9.2905   YZ=    -3.4850   ZZ=   156.2756
   Eigenvalues:   147.8221   150.7212   169.8681
     31  C    Isotropic =    81.6674   Anisotropy =   113.7724
   XX=    71.2703   YX=    46.0854   ZX=     3.7048
   XY=    43.2811   YY=    94.7736   ZY=    53.7059
   XZ=     2.8884   YZ=    54.3278   ZZ=    78.9583
   Eigenvalues:    16.2813    71.2053   157.5157
     32  C    Isotropic =    23.9225   Anisotropy =   139.2580
   XX=    19.7612   YX=    21.1646   ZX=    45.8142
   XY=    19.9440   YY=    59.9641   ZY=    65.4057
   XZ=    51.5170   YZ=    59.0222   ZZ=    -7.9577
   Eigenvalues:   -59.4219    14.4283   116.7612
     33  C    Isotropic =    66.8708   Anisotropy =   159.1056
   XX=    18.5263   YX=    55.4312   ZX=    38.3297
   XY=    46.9415   YY=   102.6820   ZY=    64.2434
   XZ=    38.5838   YZ=    44.0418   ZZ=    79.4040
   Eigenvalues:    -8.0859    35.7571   172.9412
     34  C    Isotropic =    50.6635   Anisotropy =   169.0178
   XX=    38.1059   YX=    67.9514   ZX=     3.2403
   XY=    73.5019   YY=    68.6948   ZY=    76.3322
   XZ=    -0.2173   YZ=    82.7395   ZZ=    45.1897
   Eigenvalues:   -51.1131    39.7615   163.3420
     35  C    Isotropic =    76.9977   Anisotropy =   125.1052
   XX=    74.8277   YX=    13.3557   ZX=    47.8766
   XY=    16.3044   YY=   112.9384   ZY=    53.6144
   XZ=    43.5276   YZ=    59.6113   ZZ=    43.2270
   Eigenvalues:    -3.6267    74.2186   160.4012
     36  C    Isotropic =    24.1348   Anisotropy =   139.3675
   XX=   -31.4945   YX=    51.2097   ZX=    43.5956
   XY=    53.7080   YY=    63.7633   ZY=    32.2277
   XZ=    40.9355   YZ=    32.8969   ZZ=    40.1357
   Eigenvalues:   -62.1294    17.4873   117.0465
     37  O    Isotropic =   280.9266   Anisotropy =    96.3172
   XX=   236.8635   YX=     7.1271   ZX=   -50.6047
   XY=     2.3983   YY=   296.4844   ZY=    30.1902
   XZ=   -22.2771   YZ=    40.4133   ZZ=   309.4319
   Eigenvalues:   217.1574   280.4843   345.1381
     38  C    Isotropic =   126.5839   Anisotropy =    91.7210
   XX=    91.2759   YX=    -3.8647   ZX=    -2.4186
   XY=     0.6844   YY=   109.9121   ZY=   -24.8984
   XZ=    -5.9453   YZ=   -28.1191   ZZ=   178.5637
   Eigenvalues:    90.3767   101.6437   187.7313
     39  O    Isotropic =   259.4760   Anisotropy =   114.2553
   XX=   259.1361   YX=   -17.6818   ZX=    -0.6364
   XY=     3.0689   YY=   187.3393   ZY=   -13.6957
   XZ=    32.1622   YZ=     0.4773   ZZ=   331.9526
   Eigenvalues:   186.4273   256.3544   335.6462
     40  C    Isotropic =   126.7567   Anisotropy =    89.4692
   XX=   118.4342   YX=   -30.5196   ZX=   -23.4198
   XY=   -36.0692   YY=   139.7829   ZY=    31.5830
   XZ=   -22.0553   YZ=    29.0853   ZZ=   122.0530
   Eigenvalues:    94.1123    99.7549   186.4028
     41  O    Isotropic =   277.3570   Anisotropy =    92.1837
   XX=   270.1129   YX=   -39.0413   ZX=    16.3298
   XY=   -31.4808   YY=   261.5151   ZY=   -46.0155
   XZ=    -9.8322   YZ=   -45.7784   ZZ=   300.4431
   Eigenvalues:   215.8716   277.3866   338.8128
     42  C    Isotropic =   126.1193   Anisotropy =    88.8366
   XX=   106.2622   YX=     7.5541   ZX=   -22.5515
   XY=    12.3149   YY=   108.4726   ZY=   -31.2955
   XZ=   -25.9426   YZ=   -28.3503   ZZ=   163.6233
   Eigenvalues:    95.2824    97.7318   185.3437
     43  O    Isotropic =   282.3592   Anisotropy =    99.6964
   XX=   224.6062   YX=    14.9775   ZX=    19.6751
   XY=    -7.5506   YY=   285.0132   ZY=   -13.8992
   XZ=    39.7303   YZ=   -20.8331   ZZ=   337.4582
   Eigenvalues:   216.3600   281.8942   348.8234
     44  C    Isotropic =   124.5906   Anisotropy =    93.9163
   XX=   108.6071   YX=   -37.1871   ZX=    14.3154
   XY=   -32.4221   YY=   160.1051   ZY=   -22.9073
   XZ=    15.2314   YZ=   -24.9103   ZZ=   105.0596
   Eigenvalues:    90.0822    96.4881   187.2015
     45  H    Isotropic =    24.9483   Anisotropy =     4.5561
   XX=    25.9778   YX=    -1.9656   ZX=     1.3818
   XY=    -1.8717   YY=    22.2249   ZY=    -1.0943
   XZ=     0.6262   YZ=    -0.6229   ZZ=    26.6421
   Eigenvalues:    21.3851    25.4741    27.9857
     46  H    Isotropic =    24.1867   Anisotropy =     8.2483
   XX=    28.1636   YX=    -3.0988   ZX=    -1.0349
   XY=    -3.5076   YY=    21.8261   ZY=     0.7421
   XZ=    -0.5510   YZ=     0.1181   ZZ=    22.5702
   Eigenvalues:    20.4141    22.4603    29.6855
     47  H    Isotropic =    24.9205   Anisotropy =     6.7996
   XX=    28.1771   YX=    -2.9208   ZX=     0.3854
   XY=    -2.8721   YY=    22.3516   ZY=    -0.2101
   XZ=     0.7388   YZ=    -0.4858   ZZ=    24.2329
   Eigenvalues:    21.1528    24.1551    29.4536
     48  H    Isotropic =    27.9741   Anisotropy =     8.0338
   XX=    28.8883   YX=    -1.8205   ZX=    -0.6419
   XY=    -3.6208   YY=    30.9448   ZY=    -4.1850
   XZ=    -3.0553   YZ=    -3.0150   ZZ=    24.0894
   Eigenvalues:    21.4699    29.1225    33.3300
     49  H    Isotropic =    28.7931   Anisotropy =     6.4516
   XX=    30.5360   YX=    -1.5680   ZX=     1.5446
   XY=    -1.0113   YY=    25.3172   ZY=     4.5712
   XZ=    -0.6867   YZ=     4.2967   ZZ=    30.5262
   Eigenvalues:    22.5567    30.7285    33.0942
     50  H    Isotropic =    28.4420   Anisotropy =     7.4688
   XX=    31.0451   YX=     1.7013   ZX=     1.5705
   XY=     4.0140   YY=    29.8109   ZY=    -1.0690
   XZ=     2.1302   YZ=    -1.0982   ZZ=    24.4700
   Eigenvalues:    23.4259    28.4789    33.4212
     51  H    Isotropic =    26.8592   Anisotropy =     8.3700
   XX=    24.0245   YX=    -3.1907   ZX=     3.9858
   XY=    -2.1000   YY=    30.7562   ZY=    -0.1444
   XZ=     4.8097   YZ=    -0.9366   ZZ=    25.7968
   Eigenvalues:    20.1381    28.0002    32.4391
     52  H    Isotropic =    27.4766   Anisotropy =     4.2153
   XX=    28.9552   YX=    -2.1713   ZX=    -1.7844
   XY=    -2.9590   YY=    23.3556   ZY=    -0.4906
   XZ=     1.7074   YZ=    -0.8092   ZZ=    30.1191
   Eigenvalues:    22.3089    29.8341    30.2868
     53  H    Isotropic =    24.1201   Anisotropy =    12.4017
   XX=    29.6977   YX=     1.5108   ZX=     3.7899
   XY=     0.7639   YY=    20.7857   ZY=     0.8583
   XZ=     6.3777   YZ=     1.1851   ZZ=    21.8770
   Eigenvalues:    19.2485    20.7240    32.3879
     54  H    Isotropic =    27.0403   Anisotropy =    13.5922
   XX=    32.0403   YX=    -5.2003   ZX=    -5.0200
   XY=    -5.4341   YY=    21.0905   ZY=     1.4648
   XZ=    -2.6729   YZ=     0.4591   ZZ=    27.9900
   Eigenvalues:    18.8954    26.1237    36.1017
     55  H    Isotropic =    25.4025   Anisotropy =    16.0368
   XX=    26.5761   YX=    -2.1420   ZX=     4.9050
   XY=    -4.0854   YY=    32.7357   ZY=    -4.5593
   XZ=     5.8232   YZ=    -4.2336   ZZ=    16.8957
   Eigenvalues:    14.0710    26.0428    36.0937
     56  H    Isotropic =    25.3796   Anisotropy =    16.0989
   XX=    28.5539   YX=    -1.5169   ZX=    -3.9581
   XY=    -3.7182   YY=    26.3099   ZY=     9.4449
   XZ=    -4.2525   YZ=     8.8922   ZZ=    21.2750
   Eigenvalues:    14.0744    25.9521    36.1122
     57  H    Isotropic =    27.0194   Anisotropy =    13.6317
   XX=    27.6636   YX=     0.0557   ZX=    -6.6732
   XY=    -1.3105   YY=    23.0071   ZY=    -4.6981
   XZ=    -4.8453   YZ=    -5.8292   ZZ=    30.3876
   Eigenvalues:    18.8346    26.1165    36.1073
     58  H    Isotropic =    24.1453   Anisotropy =    12.3469
   XX=    30.5571   YX=     3.0627   ZX=    -1.4602
   XY=     3.4745   YY=    22.8711   ZY=    -1.1361
   XZ=    -4.0397   YZ=    -0.5542   ZZ=    19.0076
   Eigenvalues:    18.3832    21.6761    32.3765
     59  H    Isotropic =    27.4304   Anisotropy =     3.9946
   XX=    29.1033   YX=    -0.7146   ZX=    -2.4648
   XY=    -3.1769   YY=    26.2266   ZY=    -2.6037
   XZ=    -0.4194   YZ=    -3.4867   ZZ=    26.9613
   Eigenvalues:    22.6270    29.5707    30.0935
     60  H    Isotropic =    26.8365   Anisotropy =     8.1817
   XX=    27.9290   YX=    -4.1859   ZX=    -0.1725
   XY=    -3.4927   YY=    25.9999   ZY=     4.6760
   XZ=     1.4061   YZ=     4.5028   ZZ=    26.5807
   Eigenvalues:    20.2558    27.9627    32.2910
     61  H    Isotropic =    28.4140   Anisotropy =     8.2061
   XX=    30.9819   YX=     2.4683   ZX=    -1.1433
   XY=     4.0807   YY=    29.9148   ZY=     1.7310
   XZ=     0.1224   YZ=     2.6523   ZZ=    24.3454
   Eigenvalues:    23.2211    28.1362    33.8848
     62  H    Isotropic =    28.8587   Anisotropy =     6.5970
   XX=    30.5906   YX=    -0.8737   ZX=     1.4048
   XY=     1.2647   YY=    23.5659   ZY=    -2.5541
   XZ=    -0.0793   YZ=    -2.6449   ZZ=    32.4195
   Eigenvalues:    22.8421    30.4773    33.2567
     63  H    Isotropic =    27.9523   Anisotropy =     8.1001
   XX=    25.9008   YX=    -0.9423   ZX=    -3.3653
   XY=    -0.7335   YY=    31.0681   ZY=     1.9180
   XZ=    -6.6626   YZ=     2.1576   ZZ=    26.8880
   Eigenvalues:    21.2964    29.2082    33.3524
     64  H    Isotropic =    24.9044   Anisotropy =     6.8564
   XX=    27.6236   YX=    -1.0973   ZX=    -3.0773
   XY=    -1.1088   YY=    22.4161   ZY=    -0.9680
   XZ=    -2.8400   YZ=    -1.1736   ZZ=    24.6733
   Eigenvalues:    21.1135    24.1242    29.4753
     65  H    Isotropic =    24.2247   Anisotropy =     8.2492
   XX=    26.0464   YX=    -0.0552   ZX=    -4.0483
   XY=    -0.4096   YY=    21.3018   ZY=    -0.7893
   XZ=    -3.8937   YZ=    -1.6411   ZZ=    25.3258
   Eigenvalues:    20.4007    22.5492    29.7241
     66  H    Isotropic =    24.9651   Anisotropy =     4.5542
   XX=    26.8322   YX=    -2.4106   ZX=    -0.6043
   XY=    -1.9893   YY=    23.8586   ZY=    -1.9329
   XZ=    -1.2944   YZ=    -1.4596   ZZ=    24.2045
   Eigenvalues:    21.3616    25.5325    28.0012
     67  H    Isotropic =    27.2073   Anisotropy =     7.4280
   XX=    26.9453   YX=     2.3081   ZX=     0.2720
   XY=     1.1019   YY=    24.8118   ZY=    -3.0258
   XZ=     3.5752   YZ=    -4.7927   ZZ=    29.8650
   Eigenvalues:    21.5797    27.8830    32.1593
     68  H    Isotropic =    27.6605   Anisotropy =    10.0511
   XX=    24.7485   YX=     1.1239   ZX=    -0.1461
   XY=     1.2311   YY=    30.8680   ZY=    -2.7684
   XZ=    -0.4134   YZ=    -6.8384   ZZ=    27.3649
   Eigenvalues:    23.7714    24.8488    34.3612
     69  H    Isotropic =    28.2253   Anisotropy =     9.0844
   XX=    27.5620   YX=     0.2446   ZX=    -1.8180
   XY=    -0.1134   YY=    24.8501   ZY=    -2.1311
   XZ=    -4.4718   YZ=    -2.3457   ZZ=    32.2637
   Eigenvalues:    23.9861    26.4081    34.2815
     70  H    Isotropic =    27.7488   Anisotropy =     9.0946
   XX=    31.2472   YX=    -2.7427   ZX=     0.9464
   XY=    -4.0841   YY=    29.2638   ZY=    -0.3916
   XZ=    -1.3198   YZ=     0.3574   ZZ=    22.7353
   Eigenvalues:    22.7295    26.7049    33.8118
     71  H    Isotropic =    28.0192   Anisotropy =     7.8794
   XX=    28.4021   YX=    -0.1695   ZX=    -4.1672
   XY=    -0.5117   YY=    27.9265   ZY=     3.7988
   XZ=    -4.6824   YZ=     1.2758   ZZ=    27.7289
   Eigenvalues:    23.0352    27.7502    33.2721
     72  H    Isotropic =    26.9270   Anisotropy =     7.6164
   XX=    28.3283   YX=    -2.0213   ZX=    -1.4875
   XY=     0.8428   YY=    31.0585   ZY=     1.5105
   XZ=    -2.1273   YZ=     3.6649   ZZ=    21.3942
   Eigenvalues:    20.4138    28.3626    32.0046
     73  H    Isotropic =    28.6432   Anisotropy =     5.4019
   XX=    24.4395   YX=     1.7263   ZX=    -1.6670
   XY=     3.5135   YY=    29.9776   ZY=     0.7835
   XZ=    -1.9498   YZ=    -0.8871   ZZ=    31.5126
   Eigenvalues:    23.0673    30.6179    32.2445
     74  H    Isotropic =    28.0954   Anisotropy =     9.3542
   XX=    29.2752   YX=    -1.1171   ZX=    -3.1116
   XY=     1.6875   YY=    24.8004   ZY=    -0.0078
   XZ=    -5.8644   YZ=     2.8009   ZZ=    30.2104
   Eigenvalues:    23.8076    26.1470    34.3315
     75  H    Isotropic =    28.2650   Anisotropy =     9.0049
   XX=    25.2693   YX=     1.7111   ZX=    -0.4147
   XY=     2.1776   YY=    25.2805   ZY=    -2.1162
   XZ=     0.9069   YZ=     1.2639   ZZ=    34.2453
   Eigenvalues:    23.3099    27.2170    34.2683
     76  H    Isotropic =    27.0376   Anisotropy =     7.3890
   XX=    29.6703   YX=    -0.3418   ZX=     0.2047
   XY=    -3.1463   YY=    30.3166   ZY=    -0.0017
   XZ=     2.4652   YZ=    -1.5613   ZZ=    21.1261
   Eigenvalues:    20.8937    28.2556    31.9637
     77  H    Isotropic =    28.1195   Anisotropy =     9.0851
   XX=    26.3971   YX=    -1.8424   ZX=     0.8120
   XY=    -0.3697   YY=    31.4136   ZY=    -4.4981
   XZ=    -1.0913   YZ=    -4.4563   ZZ=    26.5478
   Eigenvalues:    23.7056    26.4766    34.1762
     78  H    Isotropic =    27.6511   Anisotropy =     9.9055
   XX=    25.3904   YX=    -2.4036   ZX=    -0.4623
   XY=    -0.6524   YY=    33.5338   ZY=     3.9426
   XZ=     0.5523   YZ=     0.3990   ZZ=    24.0292
   Eigenvalues:    23.4771    25.2216    34.2548
 End of Minotr F.D. properties file   721 does not exist.
 End of Minotr F.D. properties file   722 does not exist.
 End of Minotr F.D. properties file   788 does not exist.

 **********************************************************************

            Population analysis using the SCF Density.

 **********************************************************************

 Orbital symmetries:
       Occupied  (A) (A) (A) (A) (A) (A) (A) (A) (A) (A) (A) (A)
                 (A) (A) (A) (A) (A) (A) (A) (A) (A) (A) (A) (A)
                 (A) (A) (A) (A) (A) (A) (A) (A) (A) (A) (A) (A)
                 (A) (A) (A) (A) (A) (A) (A) (A) (A) (A) (A) (A)
                 (A) (A) (A) (A) (A) (A) (A) (A) (A) (A) (A) (A)
                 (A) (A) (A) (A) (A) (A) (A) (A) (A) (A) (A) (A)
                 (A) (A) (A) (A) (A) (A) (A) (A) (A) (A) (A) (A)
                 (A) (A) (A) (A) (A) (A) (A) (A) (A) (A) (A) (A)
                 (A) (A) (A) (A) (A) (A) (A) (A) (A) (A) (A) (A)
                 (A) (A) (A) (A) (A) (A) (A) (A) (A) (A) (A) (A)
                 (A) (A) (A) (A) (A) (A) (A) (A) (A) (A) (A) (A)
                 (A) (A) (A) (A) (A) (A) (A) (A) (A) (A) (A) (A)
                 (A) (A) (A) (A) (A) (A) (A) (A) (A) (A) (A) (A)
                 (A) (A) (A)
       Virtual   (A) (A) (A) (A) (A) (A) (A) (A) (A) (A) (A) (A)
                 (A) (A) (A) (A) (A) (A) (A) (A) (A) (A) (A) (A)
                 (A) (A) (A) (A) (A) (A) (A) (A) (A) (A) (A) (A)
                 (A) (A) (A) (A) (A) (A) (A) (A) (A) (A) (A) (A)
                 (A) (A) (A) (A) (A) (A) (A) (A) (A) (A) (A) (A)
                 (A) (A) (A) (A) (A) (A) (A) (A) (A) (A) (A) (A)
                 (A) (A) (A) (A) (A) (A) (A) (A) (A) (A) (A) (A)
                 (A) (A) (A) (A) (A) (A) (A) (A) (A) (A) (A) (A)
                 (A) (A) (A) (A) (A) (A) (A) (A) (A) (A) (A) (A)
                 (A) (A) (A) (A) (A) (A) (A) (A) (A) (A) (A) (A)
                 (A) (A) (A) (A) (A) (A) (A) (A) (A) (A) (A) (A)
                 (A) (A) (A) (A) (A) (A) (A) (A) (A) (A) (A) (A)
                 (A) (A) (A) (A) (A) (A) (A) (A) (A) (A) (A) (A)
                 (A) (A) (A) (A) (A) (A) (A) (A) (A) (A) (A) (A)
                 (A) (A) (A) (A) (A) (A) (A) (A) (A) (A) (A) (A)
                 (A) (A) (A) (A) (A) (A) (A) (A) (A) (A) (A) (A)
                 (A) (A) (A) (A) (A) (A) (A) (A) (A) (A) (A) (A)
                 (A) (A) (A) (A) (A) (A) (A) (A) (A) (A) (A) (A)
                 (A) (A) (A) (A) (A) (A) (A) (A) (A) (A) (A) (A)
                 (A) (A) (A) (A) (A) (A) (A) (A) (A) (A) (A) (A)
                 (A) (A) (A) (A) (A) (A) (A) (A) (A) (A) (A) (A)
                 (A) (A) (A) (A) (A) (A) (A) (A) (A) (A) (A) (A)
                 (A) (A) (A) (A) (A) (A) (A) (A) (A) (A) (A) (A)
                 (A) (A) (A) (A) (A) (A) (A) (A) (A) (A) (A) (A)
                 (A) (A) (A) (A) (A) (A) (A) (A) (A) (A) (A) (A)
                 (A) (A) (A) (A) (A) (A) (A) (A) (A) (A) (A) (A)
                 (A) (A) (A) (A) (A) (A) (A) (A) (A) (A) (A) (A)
                 (A) (A) (A) (A) (A) (A) (A) (A) (A) (A) (A) (A)
                 (A) (A) (A) (A) (A) (A) (A) (A) (A) (A) (A) (A)
                 (A) (A) (A) (A) (A) (A) (A) (A) (A) (A) (A) (A)
                 (A) (A) (A) (A) (A) (A) (A) (A) (A) (A) (A) (A)
                 (A) (A) (A) (A) (A) (A) (A) (A) (A) (A) (A) (A)
                 (A) (A) (A) (A) (A) (A) (A) (A) (A) (A) (A) (A)
                 (A) (A) (A) (A) (A) (A) (A) (A) (A) (A) (A) (A)
                 (A) (A) (A) (A) (A) (A) (A) (A) (A) (A) (A) (A)
                 (A) (A) (A) (A) (A) (A) (A) (A) (A) (A) (A) (A)
                 (A) (A) (A) (A) (A) (A) (A) (A) (A) (A) (A) (A)
                 (A) (A) (A) (A) (A) (A) (A) (A) (A) (A) (A) (A)
                 (A) (A) (A) (A) (A) (A) (A) (A) (A) (A) (A) (A)
                 (A) (A) (A) (A) (A) (A) (A) (A) (A) (A) (A) (A)
                 (A) (A) (A) (A) (A) (A) (A) (A) (A) (A) (A) (A)
                 (A) (A) (A) (A) (A) (A) (A) (A) (A) (A) (A) (A)
                 (A) (A) (A) (A) (A) (A) (A) (A) (A) (A) (A) (A)
                 (A) (A) (A) (A) (A) (A) (A) (A) (A) (A) (A) (A)
                 (A) (A) (A) (A) (A) (A) (A) (A) (A) (A) (A) (A)
                 (A) (A) (A) (A) (A) (A) (A) (A) (A) (A) (A) (A)
                 (A) (A) (A) (A) (A) (A) (A) (A) (A) (A) (A) (A)
                 (A) (A) (A) (A) (A) (A) (A) (A) (A) (A) (A) (A)
                 (A) (A) (A) (A) (A) (A) (A) (A) (A) (A) (A) (A)
                 (A) (A) (A) (A) (A) (A) (A) (A) (A) (A) (A) (A)
                 (A) (A) (A) (A) (A) (A) (A) (A) (A) (A) (A) (A)
                 (A) (A) (A) (A) (A) (A) (A) (A) (A) (A) (A) (A)
                 (A) (A) (A) (A) (A) (A) (A) (A) (A) (A) (A) (A)
                 (A) (A) (A) (A) (A) (A) (A) (A) (A) (A) (A) (A)
                 (A) (A) (A) (A) (A) (A) (A) (A) (A) (A) (A) (A)
                 (A) (A) (A) (A) (A) (A) (A) (A) (A) (A) (A) (A)
                 (A) (A) (A) (A) (A) (A) (A) (A) (A) (A) (A) (A)
                 (A) (A) (A) (A) (A) (A) (A) (A) (A) (A) (A) (A)
                 (A) (A) (A) (A) (A) (A) (A) (A) (A) (A) (A) (A)
                 (A) (A) (A) (A) (A) (A) (A) (A) (A) (A) (A) (A)
                 (A) (A) (A) (A) (A) (A) (A) (A) (A) (A) (A) (A)
                 (A) (A) (A) (A) (A) (A) (A) (A) (A) (A) (A) (A)
                 (A) (A) (A) (A) (A) (A) (A) (A) (A) (A) (A) (A)
                 (A) (A) (A) (A) (A) (A) (A) (A) (A) (A) (A) (A)
                 (A) (A) (A) (A) (A) (A) (A) (A) (A) (A) (A) (A)
                 (A) (A) (A) (A) (A) (A) (A) (A) (A) (A) (A) (A)
                 (A) (A) (A) (A) (A) (A) (A) (A) (A) (A) (A) (A)
                 (A) (A) (A) (A) (A) (A) (A) (A) (A) (A) (A) (A)
                 (A) (A) (A) (A) (A) (A) (A) (A) (A) (A) (A) (A)
                 (A) (A) (A) (A) (A) (A) (A) (A) (A) (A) (A) (A)
                 (A) (A) (A) (A) (A) (A) (A) (A) (A) (A) (A) (A)
                 (A) (A) (A) (A) (A) (A) (A) (A) (A) (A) (A) (A)
                 (A) (A) (A) (A) (A) (A) (A) (A) (A) (A) (A) (A)
                 (A) (A) (A) (A) (A) (A) (A) (A) (A) (A) (A) (A)
                 (A) (A) (A) (A) (A) (A) (A) (A) (A) (A) (A) (A)
                 (A) (A) (A) (A) (A) (A) (A) (A) (A) (A) (A) (A)
                 (A) (A) (A) (A) (A) (A) (A) (A) (A) (A) (A) (A)
                 (A) (A) (A) (A) (A) (A) (A) (A) (A) (A) (A) (A)
                 (A) (A) (A) (A) (A) (A) (A) (A) (A) (A) (A) (A)
                 (A) (A) (A) (A) (A) (A) (A) (A) (A) (A) (A) (A)
                 (A) (A) (A) (A) (A) (A) (A) (A) (A) (A) (A) (A)
                 (A) (A) (A) (A) (A) (A) (A) (A) (A) (A) (A) (A)
                 (A) (A) (A) (A) (A) (A) (A) (A) (A) (A) (A) (A)
                 (A) (A) (A) (A) (A) (A) (A) (A) (A) (A) (A) (A)
                 (A) (A) (A) (A) (A) (A) (A) (A) (A) (A) (A) (A)
                 (A) (A) (A) (A) (A) (A) (A) (A) (A) (A) (A) (A)
                 (A) (A) (A) (A) (A) (A) (A) (A) (A) (A) (A) (A)
                 (A) (A) (A) (A) (A) (A) (A) (A) (A) (A) (A) (A)
                 (A) (A) (A) (A) (A) (A) (A) (A) (A) (A) (A) (A)
                 (A) (A) (A) (A) (A) (A) (A) (A) (A) (A) (A) (A)
                 (A) (A) (A) (A) (A) (A) (A) (A) (A) (A) (A) (A)
                 (A) (A) (A) (A) (A) (A) (A) (A) (A) (A) (A) (A)
                 (A) (A) (A) (A) (A) (A) (A) (A) (A) (A) (A) (A)
                 (A) (A) (A) (A) (A) (A) (A) (A) (A) (A) (A) (A)
                 (A) (A) (A) (A) (A) (A) (A) (A) (A) (A) (A) (A)
                 (A) (A) (A) (A) (A) (A) (A) (A) (A) (A) (A) (A)
                 (A) (A) (A) (A) (A) (A) (A) (A) (A) (A) (A) (A)
                 (A) (A) (A) (A) (A) (A) (A) (A) (A) (A) (A) (A)
                 (A) (A) (A) (A) (A) (A) (A) (A) (A) (A) (A) (A)
                 (A) (A) (A) (A) (A) (A) (A) (A) (A) (A) (A) (A)
                 (A) (A) (A) (A) (A) (A) (A) (A) (A) (A) (A) (A)
                 (A) (A) (A) (A) (A) (A) (A) (A) (A)
 The electronic state is 1-A.
 Alpha  occ. eigenvalues --  -19.25194 -19.25141 -19.25090 -19.24983 -19.24932
 Alpha  occ. eigenvalues --  -19.24926 -19.24566 -19.24562 -19.24124 -19.23683
 Alpha  occ. eigenvalues --  -10.30319 -10.30228 -10.30104 -10.30094 -10.29994
 Alpha  occ. eigenvalues --  -10.29857 -10.29852 -10.29673 -10.29337 -10.29261
 Alpha  occ. eigenvalues --  -10.27908 -10.27899 -10.27448 -10.27244 -10.27088
 Alpha  occ. eigenvalues --  -10.27062 -10.24934 -10.24891 -10.24825 -10.24757
 Alpha  occ. eigenvalues --  -10.24599 -10.24590 -10.23949 -10.23942 -10.23892
 Alpha  occ. eigenvalues --  -10.23879 -10.23878 -10.23875 -10.23206 -10.23203
 Alpha  occ. eigenvalues --  -10.23069 -10.23060 -10.22927 -10.22914  -1.11261
 Alpha  occ. eigenvalues --   -1.11095  -1.09433  -1.09430  -1.09164  -1.09160
 Alpha  occ. eigenvalues --   -1.09026  -1.08792  -1.07384  -1.07213  -0.89682
 Alpha  occ. eigenvalues --   -0.88267  -0.87946  -0.87882  -0.84414  -0.83573
 Alpha  occ. eigenvalues --   -0.79899  -0.78629  -0.78498  -0.77661  -0.77646
 Alpha  occ. eigenvalues --   -0.75933  -0.75519  -0.75202  -0.72432  -0.71559
 Alpha  occ. eigenvalues --   -0.70081  -0.69938  -0.68621  -0.68616  -0.66201
 Alpha  occ. eigenvalues --   -0.66040  -0.65442  -0.63264  -0.63142  -0.62710
 Alpha  occ. eigenvalues --   -0.61245  -0.60888  -0.59709  -0.58745  -0.57968
 Alpha  occ. eigenvalues --   -0.57069  -0.55867  -0.55715  -0.53633  -0.53551
 Alpha  occ. eigenvalues --   -0.53064  -0.52259  -0.51731  -0.51621  -0.50204
 Alpha  occ. eigenvalues --   -0.50021  -0.49701  -0.49446  -0.49235  -0.48891
 Alpha  occ. eigenvalues --   -0.48526  -0.48472  -0.47500  -0.47024  -0.46695
 Alpha  occ. eigenvalues --   -0.46418  -0.45718  -0.45354  -0.45200  -0.45120
 Alpha  occ. eigenvalues --   -0.44836  -0.44510  -0.44280  -0.44073  -0.43972
 Alpha  occ. eigenvalues --   -0.43253  -0.43151  -0.43103  -0.42342  -0.42225
 Alpha  occ. eigenvalues --   -0.41797  -0.41429  -0.41376  -0.41183  -0.40393
 Alpha  occ. eigenvalues --   -0.40306  -0.40060  -0.39777  -0.39764  -0.39346
 Alpha  occ. eigenvalues --   -0.38903  -0.37466  -0.37281  -0.37023  -0.36696
 Alpha  occ. eigenvalues --   -0.36595  -0.36462  -0.35915  -0.35403  -0.34449
 Alpha  occ. eigenvalues --   -0.33938  -0.33895  -0.33772  -0.32750  -0.32594
 Alpha  occ. eigenvalues --   -0.32089  -0.31980  -0.31613  -0.31389  -0.29057
 Alpha  occ. eigenvalues --   -0.28832  -0.25353  -0.25059  -0.24807  -0.24604
 Alpha  occ. eigenvalues --   -0.24469  -0.22669  -0.22509  -0.21753
 Alpha virt. eigenvalues --   -0.01998  -0.01124  -0.01024  -0.00768  -0.00648
 Alpha virt. eigenvalues --    0.00227   0.00383   0.01086   0.01160   0.01186
 Alpha virt. eigenvalues --    0.01376   0.01712   0.01819   0.02086   0.02372
 Alpha virt. eigenvalues --    0.02773   0.02854   0.03092   0.03356   0.03597
 Alpha virt. eigenvalues --    0.03739   0.03980   0.04129   0.04307   0.04780
 Alpha virt. eigenvalues --    0.05071   0.05275   0.05360   0.05469   0.05731
 Alpha virt. eigenvalues --    0.05854   0.06361   0.06383   0.06695   0.06895
 Alpha virt. eigenvalues --    0.07110   0.07269   0.07494   0.07681   0.07863
 Alpha virt. eigenvalues --    0.08684   0.08923   0.09199   0.09224   0.09306
 Alpha virt. eigenvalues --    0.09460   0.09657   0.10025   0.10101   0.10405
 Alpha virt. eigenvalues --    0.10561   0.10765   0.11066   0.11440   0.11655
 Alpha virt. eigenvalues --    0.11819   0.12100   0.12324   0.12350   0.12606
 Alpha virt. eigenvalues --    0.12712   0.12979   0.13072   0.13293   0.13582
 Alpha virt. eigenvalues --    0.13710   0.13834   0.13966   0.14048   0.14268
 Alpha virt. eigenvalues --    0.14743   0.14897   0.15198   0.15246   0.15383
 Alpha virt. eigenvalues --    0.15512   0.15757   0.15994   0.16087   0.16336
 Alpha virt. eigenvalues --    0.16374   0.16422   0.16594   0.16945   0.17033
 Alpha virt. eigenvalues --    0.17295   0.17403   0.17475   0.17753   0.17818
 Alpha virt. eigenvalues --    0.18029   0.18114   0.18281   0.18436   0.18486
 Alpha virt. eigenvalues --    0.18778   0.18811   0.18871   0.19274   0.19456
 Alpha virt. eigenvalues --    0.19468   0.19706   0.19825   0.19988   0.20149
 Alpha virt. eigenvalues --    0.20380   0.20401   0.20690   0.20811   0.20854
 Alpha virt. eigenvalues --    0.21074   0.21312   0.21357   0.21563   0.21840
 Alpha virt. eigenvalues --    0.21929   0.22085   0.22133   0.22279   0.22538
 Alpha virt. eigenvalues --    0.22709   0.22825   0.22992   0.23062   0.23265
 Alpha virt. eigenvalues --    0.23351   0.23648   0.23762   0.23886   0.24036
 Alpha virt. eigenvalues --    0.24142   0.24251   0.24416   0.24637   0.24941
 Alpha virt. eigenvalues --    0.25010   0.25193   0.25254   0.25428   0.25683
 Alpha virt. eigenvalues --    0.25838   0.26106   0.26110   0.26295   0.26337
 Alpha virt. eigenvalues --    0.26715   0.26816   0.27089   0.27246   0.27557
 Alpha virt. eigenvalues --    0.27600   0.27749   0.27845   0.28006   0.28194
 Alpha virt. eigenvalues --    0.28396   0.28521   0.28570   0.28774   0.28939
 Alpha virt. eigenvalues --    0.28991   0.29263   0.29335   0.29567   0.29611
 Alpha virt. eigenvalues --    0.29745   0.29773   0.29950   0.30147   0.30362
 Alpha virt. eigenvalues --    0.30508   0.30732   0.30908   0.31256   0.31384
 Alpha virt. eigenvalues --    0.31581   0.31803   0.31851   0.32185   0.32235
 Alpha virt. eigenvalues --    0.32328   0.32730   0.33058   0.33125   0.33268
 Alpha virt. eigenvalues --    0.33489   0.33607   0.33791   0.34049   0.34280
 Alpha virt. eigenvalues --    0.34420   0.34651   0.34813   0.35081   0.35373
 Alpha virt. eigenvalues --    0.35666   0.35866   0.35971   0.36169   0.36438
 Alpha virt. eigenvalues --    0.36621   0.36783   0.37262   0.37383   0.37444
 Alpha virt. eigenvalues --    0.37740   0.37840   0.38167   0.38177   0.38284
 Alpha virt. eigenvalues --    0.38733   0.39006   0.39158   0.39340   0.39467
 Alpha virt. eigenvalues --    0.39787   0.39856   0.40030   0.40417   0.40600
 Alpha virt. eigenvalues --    0.40772   0.41181   0.41308   0.41470   0.41688
 Alpha virt. eigenvalues --    0.41887   0.42155   0.42319   0.42676   0.42973
 Alpha virt. eigenvalues --    0.43164   0.43267   0.43885   0.43971   0.44158
 Alpha virt. eigenvalues --    0.44452   0.44523   0.45040   0.45819   0.46139
 Alpha virt. eigenvalues --    0.46279   0.46525   0.46552   0.47289   0.47591
 Alpha virt. eigenvalues --    0.48141   0.48271   0.48385   0.48777   0.48977
 Alpha virt. eigenvalues --    0.49210   0.49822   0.50110   0.50943   0.51224
 Alpha virt. eigenvalues --    0.51633   0.51917   0.52434   0.52494   0.52870
 Alpha virt. eigenvalues --    0.53081   0.53168   0.53296   0.53849   0.54090
 Alpha virt. eigenvalues --    0.54373   0.54626   0.54795   0.55293   0.55418
 Alpha virt. eigenvalues --    0.55813   0.56003   0.56289   0.56378   0.56582
 Alpha virt. eigenvalues --    0.56695   0.57165   0.57362   0.57758   0.57939
 Alpha virt. eigenvalues --    0.58134   0.58452   0.58857   0.59058   0.59296
 Alpha virt. eigenvalues --    0.59560   0.59967   0.60140   0.60505   0.60842
 Alpha virt. eigenvalues --    0.61224   0.61510   0.61762   0.61974   0.62162
 Alpha virt. eigenvalues --    0.62262   0.62757   0.63098   0.63302   0.63596
 Alpha virt. eigenvalues --    0.63759   0.63817   0.64071   0.64656   0.64763
 Alpha virt. eigenvalues --    0.64961   0.65105   0.65538   0.65836   0.66048
 Alpha virt. eigenvalues --    0.66450   0.66641   0.66764   0.66946   0.67121
 Alpha virt. eigenvalues --    0.67543   0.67618   0.67931   0.68006   0.68285
 Alpha virt. eigenvalues --    0.68505   0.68704   0.68868   0.69149   0.69263
 Alpha virt. eigenvalues --    0.69759   0.69801   0.70278   0.70407   0.70655
 Alpha virt. eigenvalues --    0.70836   0.71181   0.71266   0.71683   0.71772
 Alpha virt. eigenvalues --    0.71953   0.72211   0.72456   0.72642   0.72762
 Alpha virt. eigenvalues --    0.72984   0.73274   0.73498   0.73677   0.73824
 Alpha virt. eigenvalues --    0.74302   0.74439   0.74600   0.75044   0.75138
 Alpha virt. eigenvalues --    0.75549   0.75679   0.75692   0.76013   0.76062
 Alpha virt. eigenvalues --    0.76442   0.76782   0.77025   0.77186   0.77533
 Alpha virt. eigenvalues --    0.77696   0.77959   0.78087   0.78407   0.78974
 Alpha virt. eigenvalues --    0.78994   0.79075   0.79521   0.79737   0.79991
 Alpha virt. eigenvalues --    0.80065   0.80257   0.80794   0.80841   0.80900
 Alpha virt. eigenvalues --    0.81200   0.81304   0.82030   0.82242   0.82675
 Alpha virt. eigenvalues --    0.82837   0.82927   0.83202   0.83453   0.83633
 Alpha virt. eigenvalues --    0.83961   0.84326   0.84507   0.84582   0.84866
 Alpha virt. eigenvalues --    0.85170   0.85282   0.85679   0.86117   0.86218
 Alpha virt. eigenvalues --    0.86483   0.86815   0.86997   0.87220   0.87446
 Alpha virt. eigenvalues --    0.87539   0.87903   0.88142   0.88399   0.88551
 Alpha virt. eigenvalues --    0.89502   0.89842   0.90524   0.91018   0.91163
 Alpha virt. eigenvalues --    0.91355   0.91675   0.91924   0.92322   0.92605
 Alpha virt. eigenvalues --    0.93070   0.93214   0.93416   0.93689   0.94060
 Alpha virt. eigenvalues --    0.94696   0.95015   0.95276   0.96163   0.96798
 Alpha virt. eigenvalues --    0.97453   0.97628   0.97887   0.98314   0.98555
 Alpha virt. eigenvalues --    0.99349   0.99602   0.99879   0.99980   1.00316
 Alpha virt. eigenvalues --    1.00976   1.01225   1.01812   1.02213   1.02927
 Alpha virt. eigenvalues --    1.03286   1.03469   1.03805   1.04053   1.04288
 Alpha virt. eigenvalues --    1.04864   1.05200   1.05496   1.05694   1.06447
 Alpha virt. eigenvalues --    1.06698   1.07006   1.07137   1.07661   1.07807
 Alpha virt. eigenvalues --    1.08249   1.08410   1.08651   1.09153   1.09602
 Alpha virt. eigenvalues --    1.09887   1.09987   1.10413   1.10644   1.10833
 Alpha virt. eigenvalues --    1.11101   1.11550   1.12032   1.12210   1.12839
 Alpha virt. eigenvalues --    1.13652   1.13682   1.14153   1.14282   1.15041
 Alpha virt. eigenvalues --    1.15277   1.15806   1.16025   1.16450   1.16521
 Alpha virt. eigenvalues --    1.16822   1.16879   1.17239   1.17491   1.17973
 Alpha virt. eigenvalues --    1.18712   1.18872   1.19348   1.19642   1.20151
 Alpha virt. eigenvalues --    1.20436   1.20767   1.20979   1.21455   1.21783
 Alpha virt. eigenvalues --    1.21822   1.22264   1.22395   1.22611   1.22895
 Alpha virt. eigenvalues --    1.23194   1.23548   1.23765   1.24156   1.24563
 Alpha virt. eigenvalues --    1.25230   1.25387   1.25889   1.26258   1.26308
 Alpha virt. eigenvalues --    1.26847   1.27419   1.28053   1.28359   1.28697
 Alpha virt. eigenvalues --    1.29096   1.29253   1.29562   1.29650   1.30119
 Alpha virt. eigenvalues --    1.30539   1.30863   1.30901   1.31446   1.31794
 Alpha virt. eigenvalues --    1.32194   1.32486   1.33095   1.33370   1.33784
 Alpha virt. eigenvalues --    1.34140   1.34441   1.34850   1.34949   1.35409
 Alpha virt. eigenvalues --    1.35685   1.36037   1.36318   1.36556   1.36635
 Alpha virt. eigenvalues --    1.37212   1.37629   1.38005   1.38271   1.38507
 Alpha virt. eigenvalues --    1.38590   1.39032   1.39363   1.39865   1.40044
 Alpha virt. eigenvalues --    1.40169   1.40741   1.40968   1.41885   1.42396
 Alpha virt. eigenvalues --    1.42760   1.43231   1.43485   1.43920   1.44258
 Alpha virt. eigenvalues --    1.44444   1.44752   1.45648   1.46048   1.46341
 Alpha virt. eigenvalues --    1.46798   1.47416   1.48299   1.48721   1.49705
 Alpha virt. eigenvalues --    1.49745   1.49995   1.50335   1.50525   1.51251
 Alpha virt. eigenvalues --    1.51776   1.52314   1.52624   1.52899   1.53255
 Alpha virt. eigenvalues --    1.54169   1.54342   1.54646   1.55208   1.56146
 Alpha virt. eigenvalues --    1.56531   1.56913   1.57266   1.57853   1.58308
 Alpha virt. eigenvalues --    1.58974   1.59291   1.59779   1.60479   1.60671
 Alpha virt. eigenvalues --    1.60999   1.61417   1.62130   1.62368   1.63072
 Alpha virt. eigenvalues --    1.63805   1.64098   1.64503   1.65428   1.65787
 Alpha virt. eigenvalues --    1.66656   1.66931   1.67159   1.67980   1.69037
 Alpha virt. eigenvalues --    1.69674   1.70245   1.70603   1.70994   1.71589
 Alpha virt. eigenvalues --    1.72178   1.72615   1.73027   1.73401   1.73618
 Alpha virt. eigenvalues --    1.74617   1.75756   1.76421   1.76825   1.77197
 Alpha virt. eigenvalues --    1.77267   1.77515   1.77658   1.78257   1.78557
 Alpha virt. eigenvalues --    1.78853   1.79099   1.79798   1.80313   1.80499
 Alpha virt. eigenvalues --    1.80952   1.81301   1.81361   1.82275   1.83031
 Alpha virt. eigenvalues --    1.83264   1.83723   1.84344   1.84640   1.85667
 Alpha virt. eigenvalues --    1.85917   1.86829   1.87217   1.88215   1.88502
 Alpha virt. eigenvalues --    1.88968   1.90695   1.91213   1.91507   1.91830
 Alpha virt. eigenvalues --    1.92841   1.93456   1.94491   1.95384   1.96363
 Alpha virt. eigenvalues --    1.96938   1.97029   1.97875   1.98014   1.98282
 Alpha virt. eigenvalues --    1.98421   1.98891   1.99109   1.99876   2.00000
 Alpha virt. eigenvalues --    2.00233   2.00406   2.00588   2.00843   2.01070
 Alpha virt. eigenvalues --    2.01521   2.03851   2.04330   2.05569   2.05670
 Alpha virt. eigenvalues --    2.06432   2.06887   2.07136   2.07570   2.07975
 Alpha virt. eigenvalues --    2.08266   2.08577   2.09556   2.10472   2.11008
 Alpha virt. eigenvalues --    2.12175   2.13383   2.14085   2.14688   2.15831
 Alpha virt. eigenvalues --    2.16882   2.17843   2.18385   2.19279   2.19666
 Alpha virt. eigenvalues --    2.20225   2.21481   2.22475   2.22710   2.23268
 Alpha virt. eigenvalues --    2.25390   2.25510   2.25824   2.26676   2.27113
 Alpha virt. eigenvalues --    2.27909   2.28468   2.28524   2.29011   2.29423
 Alpha virt. eigenvalues --    2.30057   2.30237   2.30379   2.31151   2.31952
 Alpha virt. eigenvalues --    2.32813   2.33330   2.33445   2.34122   2.34625
 Alpha virt. eigenvalues --    2.35915   2.36355   2.37183   2.37518   2.38577
 Alpha virt. eigenvalues --    2.39259   2.39924   2.40283   2.40388   2.40815
 Alpha virt. eigenvalues --    2.40948   2.41259   2.41675   2.42220   2.42479
 Alpha virt. eigenvalues --    2.43258   2.43706   2.44151   2.44251   2.45423
 Alpha virt. eigenvalues --    2.45801   2.46020   2.46804   2.47023   2.47300
 Alpha virt. eigenvalues --    2.47744   2.47980   2.48314   2.48520   2.49844
 Alpha virt. eigenvalues --    2.50256   2.50912   2.52904   2.53664   2.54477
 Alpha virt. eigenvalues --    2.54677   2.57734   2.58431   2.59089   2.59649
 Alpha virt. eigenvalues --    2.61069   2.61237   2.62317   2.62602   2.63209
 Alpha virt. eigenvalues --    2.63307   2.64502   2.64790   2.65504   2.66387
 Alpha virt. eigenvalues --    2.66971   2.67926   2.68174   2.69447   2.69542
 Alpha virt. eigenvalues --    2.69589   2.71518   2.71861   2.73528   2.73775
 Alpha virt. eigenvalues --    2.74924   2.75436   2.75560   2.75989   2.76294
 Alpha virt. eigenvalues --    2.77063   2.77436   2.78469   2.79238   2.79394
 Alpha virt. eigenvalues --    2.79657   2.79746   2.80836   2.81132   2.83386
 Alpha virt. eigenvalues --    2.83962   2.84899   2.85470   2.86101   2.87290
 Alpha virt. eigenvalues --    2.87943   2.88560   2.88745   2.89584   2.90015
 Alpha virt. eigenvalues --    2.90808   2.91219   2.92119   2.93427   2.93584
 Alpha virt. eigenvalues --    2.94267   2.94430   2.95117   2.96393   2.96765
 Alpha virt. eigenvalues --    2.98209   2.98772   2.99876   3.00778   3.01092
 Alpha virt. eigenvalues --    3.01209   3.01498   3.02593   3.02626   3.03119
 Alpha virt. eigenvalues --    3.03670   3.04064   3.04694   3.05011   3.05148
 Alpha virt. eigenvalues --    3.05472   3.05868   3.06738   3.07351   3.08121
 Alpha virt. eigenvalues --    3.08804   3.09161   3.10091   3.10419   3.11248
 Alpha virt. eigenvalues --    3.11493   3.13057   3.13489   3.13997   3.14656
 Alpha virt. eigenvalues --    3.15183   3.15835   3.16674   3.17351   3.18625
 Alpha virt. eigenvalues --    3.19327   3.20039   3.20383   3.20970   3.21445
 Alpha virt. eigenvalues --    3.21878   3.22712   3.23531   3.23842   3.24463
 Alpha virt. eigenvalues --    3.24735   3.25630   3.26204   3.26408   3.27108
 Alpha virt. eigenvalues --    3.27434   3.27690   3.28436   3.29351   3.29686
 Alpha virt. eigenvalues --    3.30643   3.30889   3.31677   3.32657   3.32910
 Alpha virt. eigenvalues --    3.33826   3.34401   3.34896   3.35587   3.35765
 Alpha virt. eigenvalues --    3.36223   3.36787   3.37147   3.37537   3.37941
 Alpha virt. eigenvalues --    3.38212   3.38480   3.38859   3.39386   3.39973
 Alpha virt. eigenvalues --    3.40598   3.40664   3.41178   3.41872   3.42428
 Alpha virt. eigenvalues --    3.43229   3.43482   3.43891   3.44171   3.44497
 Alpha virt. eigenvalues --    3.44764   3.45120   3.45566   3.45828   3.46152
 Alpha virt. eigenvalues --    3.46721   3.47314   3.47427   3.47758   3.48480
 Alpha virt. eigenvalues --    3.49370   3.49893   3.50281   3.50642   3.50993
 Alpha virt. eigenvalues --    3.51046   3.51359   3.51680   3.51880   3.52326
 Alpha virt. eigenvalues --    3.53009   3.53516   3.54295   3.54352   3.55264
 Alpha virt. eigenvalues --    3.55952   3.56586   3.56672   3.57534   3.57824
 Alpha virt. eigenvalues --    3.58260   3.58705   3.59160   3.59392   3.60093
 Alpha virt. eigenvalues --    3.60903   3.61102   3.61539   3.61813   3.62162
 Alpha virt. eigenvalues --    3.62453   3.62667   3.63081   3.63220   3.63806
 Alpha virt. eigenvalues --    3.64035   3.64122   3.64776   3.65194   3.65484
 Alpha virt. eigenvalues --    3.65744   3.66364   3.67070   3.67205   3.67525
 Alpha virt. eigenvalues --    3.68152   3.68554   3.69023   3.69206   3.69705
 Alpha virt. eigenvalues --    3.70152   3.70636   3.71043   3.71732   3.71938
 Alpha virt. eigenvalues --    3.72493   3.72951   3.73075   3.73285   3.73465
 Alpha virt. eigenvalues --    3.74253   3.74731   3.75341   3.76010   3.76339
 Alpha virt. eigenvalues --    3.76883   3.77247   3.77747   3.78188   3.78229
 Alpha virt. eigenvalues --    3.79050   3.79736   3.79977   3.80616   3.80997
 Alpha virt. eigenvalues --    3.81720   3.82642   3.83230   3.83535   3.84263
 Alpha virt. eigenvalues --    3.84619   3.85314   3.86224   3.86527   3.87134
 Alpha virt. eigenvalues --    3.87637   3.87776   3.87918   3.88113   3.88800
 Alpha virt. eigenvalues --    3.89628   3.89833   3.90950   3.91386   3.91985
 Alpha virt. eigenvalues --    3.92393   3.92826   3.94533   3.94958   3.95346
 Alpha virt. eigenvalues --    3.95729   3.96478   3.96851   3.97994   3.98775
 Alpha virt. eigenvalues --    3.99246   3.99885   4.00317   4.01398   4.01868
 Alpha virt. eigenvalues --    4.03744   4.05085   4.05656   4.06342   4.07393
 Alpha virt. eigenvalues --    4.08029   4.08599   4.09437   4.09607   4.10739
 Alpha virt. eigenvalues --    4.11760   4.12375   4.12529   4.13110   4.13708
 Alpha virt. eigenvalues --    4.14132   4.15714   4.18102   4.19707   4.20193
 Alpha virt. eigenvalues --    4.20236   4.20690   4.22074   4.22640   4.23006
 Alpha virt. eigenvalues --    4.23885   4.24178   4.24602   4.26948   4.27459
 Alpha virt. eigenvalues --    4.27920   4.27996   4.29090   4.29420   4.30375
 Alpha virt. eigenvalues --    4.31072   4.31315   4.32172   4.32776   4.34919
 Alpha virt. eigenvalues --    4.36347   4.36589   4.42190   4.44284   4.45285
 Alpha virt. eigenvalues --    4.46231   4.46330   4.50313   4.50351   4.51183
 Alpha virt. eigenvalues --    4.51747   4.55239   4.56507   4.58075   4.60997
 Alpha virt. eigenvalues --    4.61984   4.68308   4.68343   4.71929   4.77713
 Alpha virt. eigenvalues --    4.80249   4.81848   4.82595   4.83286   4.87385
 Alpha virt. eigenvalues --    4.92471   4.93375   5.05878   5.06050   5.06127
 Alpha virt. eigenvalues --    5.11570   5.11939   5.16647   5.17016   5.24678
 Alpha virt. eigenvalues --    5.25274   5.28244   5.28259   5.31828   5.32269
 Alpha virt. eigenvalues --    5.40815   5.43255   5.46846   5.49340   5.55090
 Alpha virt. eigenvalues --    5.55834   5.59575   5.59724   5.60798   5.60810
 Alpha virt. eigenvalues --    5.72715   5.74217   5.84378   5.85420   5.93952
 Alpha virt. eigenvalues --    5.94051   5.96442   5.97337   6.02436   6.02526
 Alpha virt. eigenvalues --    6.04773   6.04887   6.87261   6.87264   6.91633
 Alpha virt. eigenvalues --    6.91725   6.98073   6.98081   6.99241   6.99306
 Alpha virt. eigenvalues --    7.03378   7.03452   7.04967   7.05339   7.07145
 Alpha virt. eigenvalues --    7.07319   7.07372   7.07859   7.08517   7.09058
 Alpha virt. eigenvalues --    7.10779   7.11186   7.11421   7.11690   7.14202
 Alpha virt. eigenvalues --    7.14780   7.16559   7.16710   7.20903   7.22309
 Alpha virt. eigenvalues --    7.25925   7.28047   7.31576   7.31584   7.34021
 Alpha virt. eigenvalues --    7.34136   7.37653   7.37881   7.37901   7.39148
 Alpha virt. eigenvalues --    7.40486   7.42238   7.45164   7.47806   7.49208
 Alpha virt. eigenvalues --    7.49231   7.55397   7.56388   7.57438   7.58417
 Alpha virt. eigenvalues --    7.58813   7.58890  23.77366  23.77998  23.80272
 Alpha virt. eigenvalues --   23.87650  24.02229  24.02847  24.06724  24.06857
 Alpha virt. eigenvalues --   24.07049  24.07630  24.08744  24.11682  24.11707
 Alpha virt. eigenvalues --   24.11957  24.11988  24.12438  24.13422  24.17445
 Alpha virt. eigenvalues --   24.17464  24.20799  24.21817  24.22781  24.23584
 Alpha virt. eigenvalues --   24.24881  24.27335  24.29760  24.29854  24.32513
 Alpha virt. eigenvalues --   24.33385  24.33691  24.36882  24.38682  24.39453
 Alpha virt. eigenvalues --   24.48988  50.10312  50.10319  50.12244  50.12343
 Alpha virt. eigenvalues --   50.16378  50.17425  50.20294  50.20430  50.22231
 Alpha virt. eigenvalues --   50.22477
          Condensed to atoms (all electrons):
 Mulliken charges:
               1
     1  C    0.071052
     2  C   -0.132431
     3  C   -0.477190
     4  C    1.321286
     5  C   -0.197078
     6  C   -0.588236
     7  C   -1.099355
     8  C    0.857832
     9  C   -0.393101
    10  O   -0.398524
    11  C    0.743796
    12  C   -0.766671
    13  C    0.880968
    14  C   -0.003796
    15  C   -0.404647
    16  C   -0.422535
    17  O   -0.447535
    18  O   -0.494035
    19  O   -0.493972
    20  O   -0.447411
    21  C   -0.409712
    22  C   -0.391613
    23  C    0.552587
    24  C    0.343325
    25  C   -0.871538
    26  C    0.900083
    27  O   -0.398109
    28  C   -0.465555
    29  C    0.749945
    30  C   -0.992998
    31  C   -0.610331
    32  C   -0.155687
    33  C    1.208428
    34  C   -0.473849
    35  C   -0.105832
    36  C    0.066851
    37  O   -0.444417
    38  C   -0.264766
    39  O   -0.369736
    40  C   -0.280081
    41  O   -0.335582
    42  C   -0.298035
    43  O   -0.444336
    44  C   -0.241117
    45  H    0.150895
    46  H    0.150338
    47  H    0.147271
    48  H    0.206554
    49  H    0.188661
    50  H    0.135786
    51  H    0.188956
    52  H    0.179803
    53  H    0.165530
    54  H    0.316593
    55  H    0.357885
    56  H    0.357055
    57  H    0.316702
    58  H    0.156190
    59  H    0.179610
    60  H    0.190740
    61  H    0.140729
    62  H    0.184030
    63  H    0.210080
    64  H    0.147189
    65  H    0.150034
    66  H    0.150561
    67  H    0.193398
    68  H    0.182988
    69  H    0.188717
    70  H    0.185329
    71  H    0.194990
    72  H    0.189761
    73  H    0.188841
    74  H    0.183625
    75  H    0.191209
    76  H    0.193127
    77  H    0.184338
    78  H    0.176139
 Sum of Mulliken charges =  -0.00000
 Mulliken charges with hydrogens summed into heavy atoms:
               1
     1  C    0.071052
     2  C    0.018464
     3  C   -0.326852
     4  C    1.321286
     5  C   -0.197078
     6  C   -0.440965
     7  C   -0.704140
     8  C    0.993618
     9  C   -0.024342
    10  O   -0.398524
    11  C    0.743796
    12  C   -0.601141
    13  C    0.880968
    14  C   -0.003796
    15  C   -0.404647
    16  C   -0.422535
    17  O   -0.130942
    18  O   -0.136150
    19  O   -0.136916
    20  O   -0.130709
    21  C   -0.409712
    22  C   -0.391613
    23  C    0.552587
    24  C    0.343325
    25  C   -0.715348
    26  C    0.900083
    27  O   -0.398109
    28  C   -0.095205
    29  C    0.890674
    30  C   -0.598888
    31  C   -0.463142
    32  C   -0.155687
    33  C    1.208428
    34  C   -0.323815
    35  C    0.044729
    36  C    0.066851
    37  O   -0.444417
    38  C    0.300338
    39  O   -0.369736
    40  C    0.289999
    41  O   -0.335582
    42  C    0.265641
    43  O   -0.444336
    44  C    0.312486
 Electronic spatial extent (au):  <R**2>=          40186.4091
 Charge=             -0.0000 electrons
 Dipole moment (field-independent basis, Debye):
    X=              1.9761    Y=             -0.0361    Z=             -4.1416  Tot=              4.5890
 Quadrupole moment (field-independent basis, Debye-Ang):
   XX=           -285.7591   YY=           -223.3338   ZZ=           -243.0913
   XY=             15.1901   XZ=            -50.3818   YZ=             -3.9106
 Traceless Quadrupole moment (field-independent basis, Debye-Ang):
   XX=            -35.0310   YY=             27.3943   ZZ=              7.6368
   XY=             15.1901   XZ=            -50.3818   YZ=             -3.9106
 Octapole moment (field-independent basis, Debye-Ang**2):
  XXX=            372.7299  YYY=             39.9270  ZZZ=            -21.3905  XYY=             21.4714
  XXY=           -186.9284  XXZ=            -65.7468  XZZ=           -160.6504  YZZ=              0.6983
  YYZ=            -88.4537  XYZ=             54.5574
 Hexadecapole moment (field-independent basis, Debye-Ang**3):
 XXXX=         -41104.4637 YYYY=          -5021.0493 ZZZZ=          -4237.9125 XXXY=           -166.4534
 XXXZ=          -3685.4359 YYYX=            340.7196 YYYZ=            -13.4585 ZZZX=           -772.6175
 ZZZY=            -24.6073 XXYY=          -8049.1879 XXZZ=          -7306.1052 YYZZ=          -1604.0944
 XXYZ=           -158.7166 YYXZ=            -54.8639 ZZXY=            343.4749
 N-N= 5.135567259373D+03 E-N=-1.510385106549D+04  KE= 2.059466985199D+03
 Unable to Open any file for archive entry.
 1\1\GINC-C04B01N01\SP\RmPW1PW91\6-311+G(2d,p)\C34H34O10\ROOT\25-Sep-20
 25\0\\# mPW1PW91/6-311+g(2d,p) NMR scrf(SMD,solvent=dmso) geom=connect
 ivity\\58RS\\0,1\C,0,8.867673,-1.561489,1.678679\C,0,8.830796,-1.43282
 8,0.284081\C,0,7.693554,-0.894402,-0.314061\C,0,6.586971,-0.468613,0.4
 27428\C,0,6.655454,-0.601541,1.82623\C,0,7.78275,-1.146325,2.449504\C,
 0,5.350886,0.092995,-0.239013\C,0,4.150533,0.054436,0.723361\C,0,4.605
 92,0.58891,2.083967\O,0,5.631541,-0.241254,2.655415\C,0,2.930581,0.772
 546,0.190053\C,0,1.761104,0.058883,-0.082106\C,0,0.591441,0.649734,-0.
 581115\C,0,0.603534,2.034302,-0.836592\C,0,1.769439,2.767584,-0.590392
 \C,0,2.917247,2.150486,-0.074356\O,0,9.944067,-2.084935,2.337865\O,0,4
 .019145,2.921938,0.150427\O,0,-4.024376,-2.470111,-1.612633\O,0,-10.14
 9672,0.650627,2.607315\C,0,-2.932705,-1.699285,-1.338108\C,0,-1.695177
 ,-2.084498,-1.872292\C,0,-0.54352,-1.331791,-1.630666\C,0,-0.618684,-0
 .168208,-0.844661\C,0,-1.870145,0.190316,-0.324409\C,0,-3.038597,-0.54
 2371,-0.55079\O,0,-6.559542,0.859795,-0.418832\C,0,-5.406461,0.230414,
 -1.003027\C,0,-4.346536,-0.084563,0.056519\C,0,-4.946394,-1.085367,1.0
 59501\C,0,-8.328393,0.714193,1.110021\C,0,-7.05586,0.287096,0.717588\C
 ,0,-6.334574,-0.652724,1.476303\C,0,-6.943288,-1.14761,2.634046\C,0,-8
 .212589,-0.743142,3.041916\C,0,-8.904457,0.199903,2.270637\O,0,1.87241
 1,4.126246,-0.826485\C,0,1.864415,4.481076,-2.224781\O,0,-0.500139,2.6
 30623,-1.391284\C,0,-1.115414,3.660547,-0.60225\O,0,0.646632,-1.764949
 ,-2.170262\C,0,0.981393,-1.118631,-3.405498\O,0,-1.704683,-3.203135,-2
 .680669\C,0,-1.019219,-4.344384,-2.127716\H,0,9.675349,-1.756592,-0.31
 9419\H,0,7.65783,-0.806279,-1.397643\H,0,7.808178,-1.240576,3.530107\H
 ,0,5.525244,1.128154,-0.55475\H,0,5.11854,-0.478499,-1.145072\H,0,3.87
 0287,-0.994394,0.878321\H,0,4.984285,1.612847,1.993288\H,0,3.789953,0.
 575631,2.809935\H,0,1.754791,-1.008076,0.11232\H,0,10.622453,-2.323159
 ,1.681809\H,0,3.757364,3.832362,-0.095507\H,0,-3.700283,-3.181391,-2.2
 0166\H,0,-10.428232,0.205779,3.427013\H,0,-1.938209,1.076575,0.297608\
 H,0,-5.032366,0.945603,-1.738955\H,0,-5.721294,-0.681623,-1.521718\H,0
 ,-4.149305,0.854728,0.586986\H,0,-4.296888,-1.164886,1.938842\H,0,-4.9
 78926,-2.079893,0.599709\H,0,-8.861905,1.442109,0.507829\H,0,-6.399175
 ,-1.869691,3.238825\H,0,-8.659019,-1.144675,3.948533\H,0,0.904417,4.22
 8526,-2.683\H,0,2.023828,5.56038,-2.265228\H,0,2.673492,3.966025,-2.75
 516\H,0,-2.070746,3.878463,-1.084854\H,0,-1.295459,3.310364,0.420707\H
 ,0,-0.502188,4.565656,-0.570881\H,0,1.082871,-0.035694,-3.268888\H,0,1
 .939463,-1.536267,-3.723287\H,0,0.220718,-1.320889,-4.168954\H,0,0.050
 795,-4.141779,-2.039008\H,0,-1.432548,-4.604646,-1.146117\H,0,-1.18645
 ,-5.166836,-2.826595\\Version=ES64L-G16RevC.02\State=1-A\HF=-2068.4233
 006\RMSD=3.129e-09\Dipole=0.7774445,-0.0141961,-1.6294308\Quadrupole=-
 26.0447184,20.3669595,5.677759,11.2934726,-37.4576562,-2.9074302\PG=C0
 1 [X(C34H34O10)]\\@
 The archive entry for this job was punched.


 You never know when you're making a memory.
                        -- Rickie Lee Jones
 Job cpu time:       0 days  8 hours 39 minutes 20.7 seconds.
 Elapsed time:       0 days  0 hours 11 minutes 37.3 seconds.
 File lengths (MBytes):  RWF=   1612 Int=      0 D2E=      0 Chk=    151 Scr=      1
 Normal termination of Gaussian 16 at Thu Sep 25 21:21:24 2025.
