 Entering Gaussian System, Link 0=/home/tupf/tupf_yangsy/lustre1/g16/Gaussian16_AVX2/g16/g16
 Input=58RS_2.gjf
 Output=58RS_2.log
 Initial command:
 /home/tupf/tupf_yangsy/lustre1/g16/Gaussian16_AVX2/g16/l1.exe "/home/tupf/tupf_yangsy/lustre1/g16/tmp/Gau-2890058.inp" -scrdir="/home/tupf/tupf_yangsy/lustre1/g16/tmp/"
 Entering Link 1 = /home/tupf/tupf_yangsy/lustre1/g16/Gaussian16_AVX2/g16/l1.exe PID=   2890059.
  
 Copyright (c) 1988-2021, Gaussian, Inc.  All Rights Reserved.
  
 This is part of the Gaussian(R) 16 program.  It is based on
 the Gaussian(R) 09 system (copyright 2009, Gaussian, Inc.),
 the Gaussian(R) 03 system (copyright 2003, Gaussian, Inc.),
 the Gaussian(R) 98 system (copyright 1998, Gaussian, Inc.),
 the Gaussian(R) 94 system (copyright 1995, Gaussian, Inc.),
 the Gaussian 92(TM) system (copyright 1992, Gaussian, Inc.),
 the Gaussian 90(TM) system (copyright 1990, Gaussian, Inc.),
 the Gaussian 88(TM) system (copyright 1988, Gaussian, Inc.),
 the Gaussian 86(TM) system (copyright 1986, Carnegie Mellon
 University), and the Gaussian 82(TM) system (copyright 1983,
 Carnegie Mellon University). Gaussian is a federally registered
 trademark of Gaussian, Inc.
  
 This software contains proprietary and confidential information,
 including trade secrets, belonging to Gaussian, Inc.
  
 This software is provided under written license and may be
 used, copied, transmitted, or stored only in accord with that
 written license.
  
 The following legend is applicable only to US Government
 contracts under FAR:
  
                    RESTRICTED RIGHTS LEGEND
  
 Use, reproduction and disclosure by the US Government is
 subject to restrictions as set forth in subparagraphs (a)
 and (c) of the Commercial Computer Software - Restricted
 Rights clause in FAR 52.227-19.
  
 Gaussian, Inc.
 340 Quinnipiac St., Bldg. 40, Wallingford CT 06492
  
  
 ---------------------------------------------------------------
 Warning -- This program may not be used in any manner that
 competes with the business of Gaussian, Inc. or will provide
 assistance to any competitor of Gaussian, Inc.  The licensee
 of this program is prohibited from giving any competitor of
 Gaussian, Inc. access to this program.  By using this program,
 the user acknowledges that Gaussian, Inc. is engaged in the
 business of creating and licensing software in the field of
 computational chemistry and represents and warrants to the
 licensee that it is not a competitor of Gaussian, Inc. and that
 it will not use this program in any manner prohibited above.
 ---------------------------------------------------------------
  

 Cite this work as:
 Gaussian 16, Revision C.02,
 M. J. Frisch, G. W. Trucks, H. B. Schlegel, G. E. Scuseria, 
 M. A. Robb, J. R. Cheeseman, G. Scalmani, V. Barone, 
 G. A. Petersson, H. Nakatsuji, X. Li, M. Caricato, A. V. Marenich, 
 J. Bloino, B. G. Janesko, R. Gomperts, B. Mennucci, H. P. Hratchian, 
 J. V. Ortiz, A. F. Izmaylov, J. L. Sonnenberg, D. Williams-Young, 
 F. Ding, F. Lipparini, F. Egidi, J. Goings, B. Peng, A. Petrone, 
 T. Henderson, D. Ranasinghe, V. G. Zakrzewski, J. Gao, N. Rega, 
 G. Zheng, W. Liang, M. Hada, M. Ehara, K. Toyota, R. Fukuda, 
 J. Hasegawa, M. Ishida, T. Nakajima, Y. Honda, O. Kitao, H. Nakai, 
 T. Vreven, K. Throssell, J. A. Montgomery, Jr., J. E. Peralta, 
 F. Ogliaro, M. J. Bearpark, J. J. Heyd, E. N. Brothers, K. N. Kudin, 
 V. N. Staroverov, T. A. Keith, R. Kobayashi, J. Normand, 
 K. Raghavachari, A. P. Rendell, J. C. Burant, S. S. Iyengar, 
 J. Tomasi, M. Cossi, J. M. Millam, M. Klene, C. Adamo, R. Cammi, 
 J. W. Ochterski, R. L. Martin, K. Morokuma, O. Farkas, 
 J. B. Foresman, and D. J. Fox, Gaussian, Inc., Wallingford CT, 2019.
 
 ******************************************
 Gaussian 16:  ES64L-G16RevC.02  7-Dec-2021
                25-Sep-2025 
 ******************************************
 %mem=400GB
 %nprocshared=64
 Will use up to   64 processors via shared memory.
 ---------------------------------------------------------------------
 # mPW1PW91/6-311+g(2d,p) NMR scrf(SMD,solvent=dmso) geom=connectivity
 ---------------------------------------------------------------------
 1/38=1,57=2,172=1/1;
 2/12=2,17=6,18=5,40=1/2;
 3/5=4,6=6,7=112,11=2,25=1,30=1,70=32201,72=21,74=-7/1,2,3,8;
 4//1;
 5/5=2,38=5,53=21/2;
 8/6=1,10=90,11=11/1;
 10/13=100,45=16/2;
 6/7=2,8=2,9=2,10=2,28=1/1;
 99/9=1/99;
 ----
 58RS
 ----
 Symbolic Z-matrix:
 Charge =  0 Multiplicity = 1
 C                     8.93604  -1.18357   1.79684 
 C                     8.8767   -1.29995   0.40199 
 C                     7.72435  -0.88424  -0.26152 
 C                     6.62419  -0.34551   0.41307 
 C                     6.71515  -0.23276   1.81238 
 C                     7.85805  -0.65029   2.5019 
 C                     5.37179   0.08046  -0.32016 
 C                     4.18667   0.19799   0.65442 
 C                     4.6557    0.96509   1.89388 
 O                     5.69931   0.25643   2.5835 
 C                     2.94992   0.80195   0.02646 
 C                     1.77946   0.04528  -0.07842 
 C                     0.59617   0.52873  -0.65477 
 C                     0.59504   1.845    -1.15154 
 C                     1.74954   2.62487  -1.05491 
 C                     2.91578   2.11551  -0.46603 
 O                     10.02831  -1.57493   2.51855 
 O                     4.01238   2.92395  -0.39977 
 O                    -4.0232   -2.71884  -1.08331 
 O                    -10.16845   1.15434   2.40058 
 C                    -2.92965  -1.91334  -0.9585 
 C                    -1.69237  -2.39952  -1.40494 
 C                    -0.53821  -1.6188   -1.30975 
 C                    -0.61158  -0.32644  -0.75807 
 C                    -1.86392   0.13406  -0.32721 
 C                    -3.03446  -0.62485  -0.41277 
 O                    -6.55189   0.78259  -0.57963 
 C                    -5.39597   0.05178  -1.02294 
 C                    -4.34423  -0.0543    0.08514 
 C                    -4.95372  -0.84163   1.25822 
 C                    -8.33429   0.93209   0.9335 
 C                    -7.05873   0.43856   0.64131 
 C                    -6.34473  -0.33756   1.57237 
 C                    -6.96374  -0.60219   2.79814 
 C                    -8.23607  -0.12795   3.10976 
 C                    -8.92062   0.64921   2.1663 
 O                     1.8379    3.90277  -1.56769 
 C                     1.05579   4.8856   -0.86022 
 O                    -0.52118   2.40365  -1.7311 
 C                    -0.70682   2.02529  -3.10201 
 O                     0.64783  -2.15447  -1.75715 
 C                     1.03124  -1.69863  -3.06192 
 O                    -1.70781  -3.65255  -1.98256 
 C                    -1.01826  -4.66826  -1.22703 
 H                     9.71577  -1.71684  -0.14977 
 H                     7.67125  -0.98686  -1.34311 
 H                     7.90067  -0.55467   3.58184 
 H                     5.52858   1.04684  -0.81317 
 H                     5.13331  -0.64174  -1.10951 
 H                     3.92182  -0.81043   0.9942 
 H                     5.02059   1.96103   1.62016 
 H                     3.85076   1.07089   2.62453 
 H                     1.79031  -0.97091   0.30019 
 H                     10.69974  -1.91663   1.90228 
 H                     3.75069   3.75612  -0.84368 
 H                    -3.6994   -3.53275  -1.5201 
 H                    -10.45365   0.87407   3.28798 
 H                    -1.92882   1.1313    0.0941 
 H                    -5.01494   0.6115   -1.88005 
 H                    -5.7088   -0.94287  -1.3587 
 H                    -4.14688   0.96925   0.42562 
 H                    -4.3113   -0.74916   2.14149 
 H                    -4.9839   -1.9064    0.99987 
 H                    -8.86198   1.53032   0.19805 
 H                    -6.42543  -1.19444   3.5348 
 H                    -8.69105  -0.34844   4.07239 
 H                     1.29657   5.84924  -1.31437 
 H                    -0.01108   4.67721  -0.9708 
 H                     1.32511   4.90099   0.20243 
 H                     0.16166   2.31476  -3.70562 
 H                    -0.87579   0.94682  -3.19639 
 H                    -1.59103   2.56277  -3.45223 
 H                     1.95704  -2.22268  -3.31036 
 H                     0.26007  -1.94537  -3.80136 
 H                     1.21258  -0.61816  -3.06777 
 H                     0.0538   -4.45983  -1.19552 
 H                    -1.41698  -4.72836  -0.20751 
 H                    -1.2002   -5.61031  -1.74883 
 
 Stoichiometry    C34H34O10
 Framework group  C1[X(C34H34O10)]
 Deg. of freedom   228
 Full point group                 C1      NOp   1
 Largest Abelian subgroup         C1      NOp   1
 Largest concise Abelian subgroup C1      NOp   1
                         Standard orientation:                         
 ---------------------------------------------------------------------
 Center     Atomic      Atomic             Coordinates (Angstroms)
 Number     Number       Type             X           Y           Z
 ---------------------------------------------------------------------
      1          6           0        8.936038   -1.183567    1.796841
      2          6           0        8.876698   -1.299949    0.401987
      3          6           0        7.724351   -0.884237   -0.261516
      4          6           0        6.624187   -0.345513    0.413065
      5          6           0        6.715148   -0.232756    1.812379
      6          6           0        7.858048   -0.650293    2.501901
      7          6           0        5.371785    0.080457   -0.320158
      8          6           0        4.186673    0.197986    0.654416
      9          6           0        4.655704    0.965086    1.893882
     10          8           0        5.699314    0.256426    2.583503
     11          6           0        2.949915    0.801950    0.026458
     12          6           0        1.779456    0.045278   -0.078422
     13          6           0        0.596174    0.528727   -0.654774
     14          6           0        0.595042    1.845003   -1.151541
     15          6           0        1.749543    2.624868   -1.054914
     16          6           0        2.915779    2.115506   -0.466034
     17          8           0       10.028310   -1.574933    2.518547
     18          8           0        4.012382    2.923949   -0.399771
     19          8           0       -4.023199   -2.718836   -1.083311
     20          8           0      -10.168450    1.154343    2.400576
     21          6           0       -2.929654   -1.913337   -0.958503
     22          6           0       -1.692369   -2.399515   -1.404942
     23          6           0       -0.538206   -1.618798   -1.309752
     24          6           0       -0.611575   -0.326442   -0.758072
     25          6           0       -1.863915    0.134061   -0.327205
     26          6           0       -3.034460   -0.624851   -0.412767
     27          8           0       -6.551893    0.782593   -0.579628
     28          6           0       -5.395967    0.051779   -1.022945
     29          6           0       -4.344232   -0.054295    0.085137
     30          6           0       -4.953721   -0.841625    1.258223
     31          6           0       -8.334293    0.932092    0.933496
     32          6           0       -7.058732    0.438564    0.641306
     33          6           0       -6.344732   -0.337555    1.572372
     34          6           0       -6.963739   -0.602193    2.798136
     35          6           0       -8.236068   -0.127947    3.109758
     36          6           0       -8.920623    0.649211    2.166299
     37          8           0        1.837897    3.902768   -1.567693
     38          6           0        1.055788    4.885598   -0.860219
     39          8           0       -0.521177    2.403651   -1.731096
     40          6           0       -0.706815    2.025295   -3.102013
     41          8           0        0.647825   -2.154473   -1.757152
     42          6           0        1.031243   -1.698628   -3.061916
     43          8           0       -1.707808   -3.652546   -1.982560
     44          6           0       -1.018256   -4.668257   -1.227031
     45          1           0        9.715774   -1.716839   -0.149768
     46          1           0        7.671249   -0.986856   -1.343113
     47          1           0        7.900671   -0.554668    3.581840
     48          1           0        5.528578    1.046841   -0.813165
     49          1           0        5.133311   -0.641735   -1.109509
     50          1           0        3.921816   -0.810427    0.994195
     51          1           0        5.020586    1.961031    1.620162
     52          1           0        3.850759    1.070887    2.624525
     53          1           0        1.790314   -0.970914    0.300187
     54          1           0       10.699744   -1.916628    1.902276
     55          1           0        3.750693    3.756118   -0.843683
     56          1           0       -3.699402   -3.532754   -1.520102
     57          1           0      -10.453655    0.874073    3.287976
     58          1           0       -1.928817    1.131304    0.094098
     59          1           0       -5.014944    0.611495   -1.880047
     60          1           0       -5.708797   -0.942868   -1.358698
     61          1           0       -4.146879    0.969247    0.425615
     62          1           0       -4.311301   -0.749157    2.141492
     63          1           0       -4.983903   -1.906398    0.999870
     64          1           0       -8.861982    1.530324    0.198051
     65          1           0       -6.425426   -1.194436    3.534795
     66          1           0       -8.691046   -0.348439    4.072391
     67          1           0        1.296570    5.849236   -1.314370
     68          1           0       -0.011080    4.677213   -0.970800
     69          1           0        1.325114    4.900993    0.202432
     70          1           0        0.161655    2.314756   -3.705615
     71          1           0       -0.875785    0.946815   -3.196388
     72          1           0       -1.591031    2.562772   -3.452225
     73          1           0        1.957036   -2.222684   -3.310358
     74          1           0        0.260072   -1.945374   -3.801361
     75          1           0        1.212583   -0.618158   -3.067766
     76          1           0        0.053801   -4.459833   -1.195520
     77          1           0       -1.416977   -4.728359   -0.207512
     78          1           0       -1.200198   -5.610314   -1.748829
 ---------------------------------------------------------------------
 Rotational constants (GHZ):           0.1312734           0.0271260           0.0262076
 Standard basis: 6-311+G(2d,p) (5D, 7F)
 There are  1480 symmetry adapted cartesian basis functions of A   symmetry.
 There are  1392 symmetry adapted basis functions of A   symmetry.
  1392 basis functions,  2120 primitive gaussians,  1480 cartesian basis functions
   159 alpha electrons      159 beta electrons
       nuclear repulsion energy      5142.7892174283 Hartrees.
 NAtoms=   78 NActive=   78 NUniq=   78 SFac= 1.00D+00 NAtFMM=   60 NAOKFM=T Big=T
 Integral buffers will be    131072 words long.
 Raffenetti 2 integral format.
 Two-electron integral symmetry is turned on.
 ------------------------------------------------------------------------------
 Polarizable Continuum Model (PCM)
 =================================
 Model                : PCM.
 Atomic radii         : SMD-Coulomb.
 Polarization charges : Total charges.
 Charge compensation  : None.
 Solution method      : On-the-fly selection.
 Cavity type          : VdW (van der Waals Surface) (Alpha=1.000).
 Cavity algorithm     : GePol (No added spheres)
                        Default sphere list used, NSphG=   78.
                        Lebedev-Laikov grids with approx.  5.0 points / Ang**2.
                        Smoothing algorithm: York/Karplus (Gamma=1.0000).
                        Polarization charges: spherical gaussians, with
                                              point-specific exponents (IZeta= 3).
                        Self-potential: point-specific (ISelfS= 7).
                        Self-field    : sphere-specific E.n sum rule (ISelfD= 2).
 Solvent              : DiMethylSulfoxide, Eps=  46.826000 Eps(inf)=   2.185371
 ------------------------------------------------------------------------------
 ------------------------------------------------------------------------------
 Atomic radii for non-electrostatic terms: SMD-CDS.
 ------------------------------------------------------------------------------
 Nuclear repulsion after PCM non-electrostatic terms =     5142.7849420080 Hartrees.
 One-electron integrals computed using PRISM.
 NBasis=  1392 RedAO= T EigKep=  1.05D-06  NBF=  1392
 NBsUse=  1380 1.00D-06 EigRej=  8.19D-07 NBFU=  1380
 ExpMin= 4.38D-02 ExpMax= 8.59D+03 ExpMxC= 1.30D+03 IAcc=3 IRadAn=         5 AccDes= 0.00D+00
 Harris functional with IExCor=  908 and IRadAn=       5 diagonalized for initial guess.
 HarFok:  IExCor=  908 AccDes= 0.00D+00 IRadAn=         5 IDoV= 1 UseB2=F ITyADJ=14
 ICtDFT=  3500011 ScaDFX=  1.000000  1.000000  1.000000  1.000000
 FoFCou: FMM=F IPFlag=           0 FMFlag=      100000 FMFlg1=        2001
         NFxFlg=           0 DoJE=T BraDBF=F KetDBF=T FulRan=T
         wScrn=  0.000000 ICntrl=       500 IOpCl=  0 I1Cent=   200000004 NGrid=           0
         NMat0=    1 NMatS0=      1 NMatT0=    0 NMatD0=    1 NMtDS0=    0 NMtDT0=    0
 Petite list used in FoFCou.
 Requested convergence on RMS density matrix=1.00D-08 within 128 cycles.
 Requested convergence on MAX density matrix=1.00D-06.
 Requested convergence on             energy=1.00D-06.
 No special actions if energy rises.
 Inv3:  Mode=1 IEnd=    94584675.
 Iteration    1 A*A^-1 deviation from unit magnitude is 4.33D-15 for   2934.
 Iteration    1 A*A^-1 deviation from orthogonality  is 1.78D-15 for   3864   1884.
 Iteration    1 A^-1*A deviation from unit magnitude is 4.44D-15 for   2934.
 Iteration    1 A^-1*A deviation from orthogonality  is 1.83D-15 for   2317   1961.
 Error on total polarization charges =  0.05085
 SCF Done:  E(RmPW1PW91) =  -2068.42317808     A.U. after   14 cycles
            NFock= 14  Conv=0.38D-08     -V/T= 2.0043
 SMD-CDS (non-electrostatic) energy       (kcal/mol) =      -2.68
 (included in total energy above)
 DoSCS=F DFT=T ScalE2(SS,OS)=  1.000000  1.000000
 Range of M.O.s used for correlation:     1  1380
 NBasis=  1392 NAE=   159 NBE=   159 NFC=     0 NFV=     0
 NROrb=   1380 NOA=   159 NOB=   159 NVA=  1221 NVB=  1221

 **** Warning!!: The largest alpha MO coefficient is  0.11366886D+03

 NEqPCM:  Using equilibrium solvation (IEInf=0, Eps=  46.8260, EpsInf=   2.1854)
          Differentiating once with respect to magnetic field using GIAOs.
          Electric field/nuclear overlap derivatives assumed to be zero.
 FoFJK:  IHMeth= 1 ICntrl=    6127 DoSepK=F KAlg= 0 I1Cent=           0 FoldK=F
 IRaf=         1 NMat=       1 IRICut=       1 DoRegI=T DoRafI=F ISym2E= 0 IDoP0=0 IntGTp=1.
          There are     3 degrees of freedom in the 1st order CPHF.  IDoFFX=0 NUNeed=     3.
      3 vectors produced by pass  0 Test12= 6.47D-12 3.33D-08 XBig12= 3.45D+03 8.03D+00.
 AX will form     3 AO Fock derivatives at one time.
      3 vectors produced by pass  1 Test12= 6.47D-12 3.33D-08 XBig12= 1.09D+01 7.69D-01.
      3 vectors produced by pass  2 Test12= 6.47D-12 3.33D-08 XBig12= 6.33D-02 5.16D-02.
      3 vectors produced by pass  3 Test12= 6.47D-12 3.33D-08 XBig12= 2.29D-04 2.37D-03.
      3 vectors produced by pass  4 Test12= 6.47D-12 3.33D-08 XBig12= 6.84D-07 1.46D-04.
      3 vectors produced by pass  5 Test12= 6.47D-12 3.33D-08 XBig12= 2.74D-09 1.07D-05.
      3 vectors produced by pass  6 Test12= 6.47D-12 3.33D-08 XBig12= 1.26D-11 6.69D-07.
      1 vectors produced by pass  7 Test12= 6.47D-12 3.33D-08 XBig12= 5.85D-14 4.19D-08.
 InvSVY:  IOpt=1 It=  1 EMax= 7.11D-15
 Solved reduced A of dimension    22 with     3 vectors.
 Calculating GIAO nuclear magnetic shielding tensors.
 SCF GIAO Magnetic shielding tensor (ppm):
      1  C    Isotropic =    24.1146   Anisotropy =   139.5349
   XX=   -20.4605   YX=    54.9265   ZX=   -33.7685
   XY=    54.6108   YY=    94.3600   ZY=     3.5206
   XZ=   -37.4443   YZ=     4.1276   ZZ=    -1.5557
   Eigenvalues:   -62.1740    17.3800   117.1379
      2  C    Isotropic =    77.1567   Anisotropy =   125.1731
   XX=    40.6857   YX=    54.2943   ZX=    28.2699
   XY=    55.3527   YY=   134.2706   ZY=   -25.1371
   XZ=    23.5897   YZ=   -20.9499   ZZ=    56.5137
   Eigenvalues:    -3.2372    74.1019   160.6054
      3  C    Isotropic =    50.6391   Anisotropy =   169.3639
   XX=    60.3989   YX=    44.3691   ZX=    -8.3494
   XY=    47.8137   YY=   140.1909   ZY=   -20.9580
   XZ=   -14.9955   YZ=   -16.8802   ZZ=   -48.6727
   Eigenvalues:   -51.0485    39.4173   163.5484
      4  C    Isotropic =    66.7509   Anisotropy =   159.3950
   XX=    24.3477   YX=    59.3121   ZX=   -27.2711
   XY=    46.7311   YY=   153.2277   ZY=     4.0090
   XZ=   -18.2980   YZ=   -10.4466   ZZ=    22.6773
   Eigenvalues:    -8.3180    35.5565   173.0143
      5  C    Isotropic =    24.2206   Anisotropy =   139.9912
   XX=   -13.3293   YX=    58.9520   ZX=    22.1758
   XY=    60.8730   YY=    89.0060   ZY=   -19.4969
   XZ=    27.4806   YZ=   -25.9717   ZZ=    -3.0148
   Eigenvalues:   -59.3855    14.4993   117.5481
      6  C    Isotropic =    81.3881   Anisotropy =   114.2834
   XX=    83.3110   YX=    31.5148   ZX=    -7.2052
   XY=    29.3210   YY=   143.3928   ZY=   -13.9391
   XZ=    -5.4004   YZ=   -11.9374   ZZ=    17.4604
   Eigenvalues:    15.9746    70.6126   157.5770
      7  C    Isotropic =   155.6908   Anisotropy =    21.3550
   XX=   168.4458   YX=    -3.3587   ZX=    -1.8920
   XY=    -7.7812   YY=   148.8509   ZY=     1.9028
   XZ=     2.0925   YZ=     2.1726   ZZ=   149.7756
   Eigenvalues:   146.2472   150.8977   169.9274
      8  C    Isotropic =   143.1102   Anisotropy =    32.3467
   XX=   142.1900   YX=    -3.0046   ZX=     8.2292
   XY=   -13.2849   YY=   152.7887   ZY=   -13.1854
   XZ=    15.1315   YZ=    -7.7963   ZZ=   134.3518
   Eigenvalues:   125.2802   139.3757   164.6746
      9  C    Isotropic =   116.6626   Anisotropy =    62.3739
   XX=   129.2845   YX=   -26.4796   ZX=    25.9315
   XY=   -16.7282   YY=   111.9730   ZY=   -10.7897
   XZ=    24.4642   YZ=    -9.3070   ZZ=   108.7302
   Eigenvalues:    90.5888   101.1537   158.2452
     10  O    Isotropic =   208.2670   Anisotropy =    99.7569
   XX=   187.0205   YX=    42.3869   ZX=   -44.3881
   XY=    45.9445   YY=   245.6848   ZY=   -23.1978
   XZ=   -54.1676   YZ=    33.9580   ZZ=   192.0957
   Eigenvalues:   128.6765   221.3529   274.7716
     11  C    Isotropic =    59.0437   Anisotropy =   156.3028
   XX=    18.5647   YX=     5.5956   ZX=   -52.4306
   XY=   -13.5873   YY=    30.7754   ZY=    44.0308
   XZ=   -45.2916   YZ=    53.4437   ZZ=   127.7908
   Eigenvalues:    -7.7908    21.6762   163.2455
     12  C    Isotropic =    52.9636   Anisotropy =   146.0597
   XX=    59.3271   YX=    -7.5775   ZX=   -27.3320
   XY=   -12.9584   YY=   -16.7771   ZY=    58.5572
   XZ=   -29.5424   YZ=    64.1339   ZZ=   116.3407
   Eigenvalues:   -40.7418    49.2958   150.3367
     13  C    Isotropic =    58.0938   Anisotropy =   146.1487
   XX=    11.1526   YX=   -44.7594   ZX=   -34.4865
   XY=   -29.1445   YY=    33.4890   ZY=    35.9121
   XZ=   -41.8481   YZ=    28.8911   ZZ=   129.6398
   Eigenvalues:   -17.3824    36.1376   155.5262
     14  C    Isotropic =    30.1713   Anisotropy =   117.9386
   XX=    -1.7636   YX=    -3.6088   ZX=   -40.5952
   XY=    10.1007   YY=    16.3843   ZY=    43.6706
   XZ=   -50.3480   YZ=    31.4176   ZZ=    75.8933
   Eigenvalues:   -31.5351    13.2520   108.7971
     15  C    Isotropic =    40.5719   Anisotropy =   108.2555
   XX=    27.8343   YX=    -5.2250   ZX=   -27.5006
   XY=    -8.6065   YY=     9.0619   ZY=    35.2137
   XZ=   -26.1790   YZ=    49.9561   ZZ=    84.8195
   Eigenvalues:   -10.7366    19.7100   112.7422
     16  C    Isotropic =    32.1831   Anisotropy =   125.5809
   XX=    -5.3498   YX=   -29.0851   ZX=   -28.9900
   XY=   -41.0506   YY=     5.6485   ZY=    28.2015
   XZ=   -26.5660   YZ=    28.6814   ZZ=    96.2507
   Eigenvalues:   -35.4098    16.0555   115.9037
     17  O    Isotropic =   212.7601   Anisotropy =    64.6210
   XX=   235.2226   YX=    -0.9572   ZX=    38.0720
   XY=    -2.7138   YY=   222.9624   ZY=   -20.9825
   XZ=    32.4071   YZ=   -17.8031   ZZ=   180.0954
   Eigenvalues:   158.5528   223.8868   255.8408
     18  O    Isotropic =   226.9866   Anisotropy =   107.1362
   XX=   208.7572   YX=   -17.1034   ZX=   -24.4108
   XY=    27.4804   YY=   198.5445   ZY=    51.5155
   XZ=   -35.3091   YZ=    28.7343   ZZ=   273.6583
   Eigenvalues:   172.2419   210.3072   298.4108
     19  O    Isotropic =   226.4524   Anisotropy =   108.6103
   XX=   201.2955   YX=   -18.5781   ZX=    14.2807
   XY=    34.8792   YY=   210.0707   ZY=   -44.4974
   XZ=    23.4406   YZ=   -56.6026   ZZ=   267.9908
   Eigenvalues:   171.3087   209.1891   298.8592
     20  O    Isotropic =   212.7878   Anisotropy =    64.6824
   XX=   249.6914   YX=    -8.9508   ZX=    -7.7313
   XY=    -7.6789   YY=   214.6939   ZY=    27.7621
   XZ=   -13.9233   YZ=    30.4236   ZZ=   173.9782
   Eigenvalues:   158.4551   223.9990   255.9095
     21  C    Isotropic =    32.0664   Anisotropy =   124.8840
   XX=   -10.3460   YX=   -25.6692   ZX=    12.1245
   XY=   -38.8345   YY=     9.5989   ZY=   -37.8056
   XZ=    13.2582   YZ=   -37.3080   ZZ=    96.9464
   Eigenvalues:   -35.4383    16.3151   115.3224
     22  C    Isotropic =    40.7921   Anisotropy =   107.0746
   XX=    21.6652   YX=     0.9150   ZX=    18.9522
   XY=    -4.2475   YY=    14.0577   ZY=   -38.7076
   XZ=    17.9430   YZ=   -53.0154   ZZ=    86.6535
   Eigenvalues:    -9.6176    19.8188   112.1752
     23  C    Isotropic =    30.5181   Anisotropy =   116.6435
   XX=   -12.3170   YX=    -0.8921   ZX=    28.2395
   XY=    13.1311   YY=    20.3049   ZY=   -44.1195
   XZ=    37.9689   YZ=   -33.2652   ZZ=    83.5664
   Eigenvalues:   -30.0850    13.3588   108.2804
     24  C    Isotropic =    58.2352   Anisotropy =   146.3908
   XX=     3.1817   YX=   -41.3898   ZX=    15.0133
   XY=   -24.8080   YY=    36.8840   ZY=   -44.5673
   XZ=    22.2465   YZ=   -39.3130   ZZ=   134.6400
   Eigenvalues:   -17.4020    36.2786   155.8291
     25  C    Isotropic =    52.7651   Anisotropy =   145.7452
   XX=    52.5205   YX=     0.8307   ZX=    18.6665
   XY=    -5.5782   YY=   -10.8099   ZY=   -66.9242
   XZ=    19.9468   YZ=   -69.8715   ZZ=   116.5847
   Eigenvalues:   -40.9108    49.2775   149.9286
     26  C    Isotropic =    58.9653   Anisotropy =   155.5615
   XX=     6.3518   YX=    12.1374   ZX=    33.2173
   XY=    -8.5718   YY=    37.9741   ZY=   -52.5530
   XZ=    25.6828   YZ=   -58.7793   ZZ=   132.5700
   Eigenvalues:    -7.5849    21.8078   162.6729
     27  O    Isotropic =   207.8044   Anisotropy =   100.5142
   XX=   158.8912   YX=    65.0862   ZX=    21.1561
   XY=    52.1217   YY=   244.5343   ZY=   -27.9956
   XZ=     4.0094   YZ=    27.0888   ZZ=   219.9879
   Eigenvalues:   127.7136   220.8858   274.8139
     28  C    Isotropic =   116.4888   Anisotropy =    62.1719
   XX=   139.6769   YX=   -27.9462   ZX=   -14.9880
   XY=   -21.0972   YY=   106.7959   ZY=     9.1264
   XZ=   -10.3746   YZ=    14.7838   ZZ=   102.9936
   Eigenvalues:    90.9190   100.6107   157.9367
     29  C    Isotropic =   143.1426   Anisotropy =    32.1791
   XX=   147.2464   YX=    -4.0181   ZX=    -3.9294
   XY=   -17.2598   YY=   149.1645   ZY=    13.4540
   XZ=    -6.5642   YZ=    12.7990   ZZ=   133.0169
   Eigenvalues:   125.6580   139.1744   164.5953
     30  C    Isotropic =   155.9177   Anisotropy =    21.2126
   XX=   163.6449   YX=     2.7341   ZX=    -9.1107
   XY=    -2.6196   YY=   147.2611   ZY=     0.0964
   XZ=    -9.2580   YZ=    -2.3171   ZZ=   156.8472
   Eigenvalues:   147.0164   150.6774   170.0595
     31  C    Isotropic =    81.6759   Anisotropy =   113.8233
   XX=    70.9611   YX=    45.4930   ZX=    -4.7549
   XY=    42.2620   YY=   114.4722   ZY=    47.5848
   XZ=    -5.7292   YZ=    47.9780   ZZ=    59.5943
   Eigenvalues:    16.2358    71.2338   157.5581
     32  C    Isotropic =    23.8852   Anisotropy =   139.5749
   XX=    19.1115   YX=    29.2573   ZX=    40.8205
   XY=    29.7957   YY=    81.8323   ZY=    46.1878
   XZ=    47.1877   YZ=    42.3355   ZZ=   -29.2881
   Eigenvalues:   -59.7555    14.4760   116.9351
     33  C    Isotropic =    66.8125   Anisotropy =   159.4789
   XX=    17.9916   YX=    61.3324   ZX=    26.4675
   XY=    53.3253   YY=   122.4427   ZY=    56.1710
   XZ=    28.7708   YZ=    36.4250   ZZ=    60.0030
   Eigenvalues:    -8.1958    35.5014   173.1317
     34  C    Isotropic =    50.9618   Anisotropy =   169.6711
   XX=    38.2043   YX=    66.7403   ZX=    -9.5863
   XY=    72.0218   YY=    98.0964   ZY=    67.1510
   XZ=   -13.2681   YZ=    72.9154   ZZ=    16.5849
   Eigenvalues:   -50.7169    39.5266   164.0759
     35  C    Isotropic =    77.2960   Anisotropy =   125.3185
   XX=    74.0611   YX=    21.9591   ZX=    44.8091
   XY=    24.4030   YY=   131.2146   ZY=    38.3442
   XZ=    41.0184   YZ=    41.6533   ZZ=    26.6122
   Eigenvalues:    -3.0411    74.0874   160.8416
     36  C    Isotropic =    24.1423   Anisotropy =   139.3392
   XX=   -32.1914   YX=    58.2976   ZX=    32.4110
   XY=    60.1903   YY=    75.2420   ZY=    25.8583
   XZ=    29.2265   YZ=    26.7550   ZZ=    29.3764
   Eigenvalues:   -62.1275    17.5193   117.0352
     37  O    Isotropic =   281.9589   Anisotropy =    99.9239
   XX=   233.8404   YX=    19.7664   ZX=   -29.7909
   XY=     2.8493   YY=   278.9589   ZY=     0.6759
   XZ=   -54.5417   YZ=     8.1278   ZZ=   333.0773
   Eigenvalues:   216.0056   281.2962   348.5748
     38  C    Isotropic =   124.4946   Anisotropy =    94.0820
   XX=   114.2968   YX=   -36.9642   ZX=   -23.1756
   XY=   -31.9229   YY=   146.5148   ZY=    28.8901
   XZ=   -22.9185   YZ=    30.4113   ZZ=   112.6721
   Eigenvalues:    89.8865    96.3813   187.2159
     39  O    Isotropic =   276.6883   Anisotropy =    95.1367
   XX=   271.1713   YX=   -41.5810   ZX=   -32.3189
   XY=   -38.2225   YY=   243.5723   ZY=    23.0939
   XZ=    -6.6965   YZ=    29.5690   ZZ=   315.3214
   Eigenvalues:   214.0106   275.9416   340.1128
     40  C    Isotropic =   126.1591   Anisotropy =    85.9451
   XX=   102.9099   YX=     0.9145   ZX=    14.4577
   XY=     4.8226   YY=    98.2456   ZY=    17.4833
   XZ=    16.6453   YZ=    14.0588   ZZ=   177.3218
   Eigenvalues:    95.2134    99.8081   183.4558
     41  O    Isotropic =   276.6448   Anisotropy =    95.6561
   XX=   266.2550   YX=   -38.9835   ZX=    24.5542
   XY=   -34.9759   YY=   246.2750   ZY=   -30.1055
   XZ=    -1.3403   YZ=   -38.4299   ZZ=   317.4045
   Eigenvalues:   213.5781   275.9408   340.4156
     42  C    Isotropic =   126.1552   Anisotropy =    85.9708
   XX=   108.8964   YX=     4.4939   ZX=   -24.2854
   XY=     8.9861   YY=   100.2644   ZY=   -20.5883
   XZ=   -26.0853   YZ=   -18.0960   ZZ=   169.3049
   Eigenvalues:    95.2098    99.7867   183.4691
     43  O    Isotropic =   281.9160   Anisotropy =    99.5425
   XX=   223.9817   YX=    19.8535   ZX=    15.8352
   XY=     0.8499   YY=   280.0260   ZY=    -2.6675
   XZ=    40.3306   YZ=    -9.2104   ZZ=   341.7405
   Eigenvalues:   215.6046   281.8658   348.2777
     44  C    Isotropic =   124.4964   Anisotropy =    94.0688
   XX=   108.6589   YX=   -34.0233   ZX=    20.9803
   XY=   -29.1027   YY=   149.2495   ZY=   -31.4072
   XZ=    21.0595   YZ=   -33.3912   ZZ=   115.5808
   Eigenvalues:    90.0359    96.2444   187.2090
     45  H    Isotropic =    24.9585   Anisotropy =     4.5493
   XX=    26.0581   YX=    -1.6598   ZX=     1.7267
   XY=    -1.7122   YY=    22.0544   ZY=    -0.2550
   XZ=     0.9408   YZ=     0.2347   ZZ=    26.7630
   Eigenvalues:    21.3994    25.4847    27.9913
     46  H    Isotropic =    24.1902   Anisotropy =     8.2384
   XX=    28.2149   YX=    -3.1723   ZX=    -0.5853
   XY=    -3.4624   YY=    21.9519   ZY=     0.8466
   XZ=    -0.0484   YZ=     0.3109   ZZ=    22.4039
   Eigenvalues:    20.4365    22.4517    29.6825
     47  H    Isotropic =    24.9320   Anisotropy =     6.7469
   XX=    28.2436   YX=    -2.7556   ZX=     0.8250
   XY=    -2.6134   YY=    22.2843   ZY=     0.1904
   XZ=     1.1436   YZ=    -0.0506   ZZ=    24.2682
   Eigenvalues:    21.1946    24.1716    29.4299
     48  H    Isotropic =    27.9689   Anisotropy =     8.0184
   XX=    28.8684   YX=    -1.9750   ZX=    -0.3285
   XY=    -4.3732   YY=    29.5137   ZY=    -4.9624
   XZ=    -2.5074   YZ=    -3.7738   ZZ=    25.5245
   Eigenvalues:    21.5119    29.0802    33.3145
     49  H    Isotropic =    28.7971   Anisotropy =     6.5484
   XX=    30.6006   YX=    -1.1533   ZX=     1.7498
   XY=    -1.0256   YY=    26.9478   ZY=     5.2990
   XZ=    -0.6061   YZ=     5.0081   ZZ=    28.8428
   Eigenvalues:    22.4770    30.7515    33.1627
     50  H    Isotropic =    28.4443   Anisotropy =     7.4880
   XX=    31.0246   YX=     1.8998   ZX=     1.1950
   XY=     4.3595   YY=    29.3647   ZY=    -2.0007
   XZ=     1.3417   YZ=    -1.8549   ZZ=    24.9435
   Eigenvalues:    23.4362    28.4603    33.4363
     51  H    Isotropic =    26.8243   Anisotropy =     8.4271
   XX=    24.2670   YX=    -2.6211   ZX=     4.5715
   XY=    -1.3511   YY=    30.4638   ZY=    -0.8554
   XZ=     5.1327   YZ=    -1.5686   ZZ=    25.7421
   Eigenvalues:    20.0450    27.9855    32.4424
     52  H    Isotropic =    27.4125   Anisotropy =     4.1848
   XX=    28.9570   YX=    -2.4247   ZX=    -1.3017
   XY=    -2.5534   YY=    23.3056   ZY=     0.7820
   XZ=     2.2357   YZ=     0.4499   ZZ=    29.9748
   Eigenvalues:    22.2941    29.7410    30.2023
     53  H    Isotropic =    23.9832   Anisotropy =    12.4961
   XX=    29.6330   YX=     2.2799   ZX=     3.4726
   XY=     2.1189   YY=    21.0342   ZY=     0.9114
   XZ=     6.0079   YZ=     1.3330   ZZ=    21.2825
   Eigenvalues:    19.1313    20.5045    32.3140
     54  H    Isotropic =    27.0351   Anisotropy =    13.5854
   XX=    32.0417   YX=    -5.8649   ZX=    -4.1234
   XY=    -5.6732   YY=    21.5060   ZY=     2.6363
   XZ=    -1.7964   YZ=     1.6724   ZZ=    27.5576
   Eigenvalues:    18.8848    26.1285    36.0920
     55  H    Isotropic =    25.3424   Anisotropy =    16.1002
   XX=    27.4992   YX=    -1.2996   ZX=     4.7682
   XY=    -3.7058   YY=    30.1448   ZY=    -7.6430
   XZ=     4.4477   YZ=    -7.4599   ZZ=    18.3834
   Eigenvalues:    13.9601    25.9913    36.0759
     56  H    Isotropic =    25.3517   Anisotropy =    16.0700
   XX=    28.5768   YX=    -2.2738   ZX=    -3.5776
   XY=    -4.5144   YY=    29.6137   ZY=     7.7222
   XZ=    -3.4085   YZ=     7.1570   ZZ=    17.8647
   Eigenvalues:    14.0538    25.9363    36.0651
     57  H    Isotropic =    27.0319   Anisotropy =    13.6528
   XX=    27.7361   YX=    -1.1933   ZX=    -6.5661
   XY=    -2.1585   YY=    21.3044   ZY=    -2.9385
   XZ=    -4.5495   YZ=    -4.0977   ZZ=    32.0551
   Eigenvalues:    18.8467    26.1151    36.1338
     58  H    Isotropic =    24.0037   Anisotropy =    12.6300
   XX=    30.6751   YX=     2.6591   ZX=    -2.3793
   XY=     2.3604   YY=    21.2954   ZY=    -0.9226
   XZ=    -4.8007   YZ=    -1.0562   ZZ=    20.0405
   Eigenvalues:    18.9174    20.6699    32.4237
     59  H    Isotropic =    27.3080   Anisotropy =     4.3067
   XX=    29.2339   YX=    -1.2307   ZX=    -2.4758
   XY=    -3.2801   YY=    24.7793   ZY=    -2.4429
   XZ=    -0.0200   YZ=    -3.3003   ZZ=    27.9109
   Eigenvalues:    22.1387    29.6063    30.1791
     60  H    Isotropic =    26.7987   Anisotropy =     8.3605
   XX=    27.9460   YX=    -4.1664   ZX=     0.5627
   XY=    -3.4271   YY=    27.6559   ZY=     4.4326
   XZ=     1.9552   YZ=     4.2201   ZZ=    24.7943
   Eigenvalues:    20.2102    27.8136    32.3724
     61  H    Isotropic =    28.3986   Anisotropy =     7.7657
   XX=    30.9544   YX=     1.9844   ZX=    -1.5958
   XY=     3.7463   YY=    30.4421   ZY=     0.6576
   XZ=    -0.6589   YZ=     1.5605   ZZ=    23.7994
   Eigenvalues:    23.2528    28.3673    33.5757
     62  H    Isotropic =    28.8516   Anisotropy =     6.6231
   XX=    30.5763   YX=    -0.6306   ZX=     1.5006
   XY=     1.1558   YY=    22.8686   ZY=    -0.6234
   XZ=    -0.3752   YZ=    -0.7674   ZZ=    33.1097
   Eigenvalues:    22.8100    30.4778    33.2669
     63  H    Isotropic =    27.9683   Anisotropy =     8.1605
   XX=    25.9917   YX=    -1.6050   ZX=    -3.1503
   XY=    -2.1693   YY=    31.5491   ZY=     1.0543
   XZ=    -6.4346   YZ=     1.1740   ZZ=    26.3642
   Eigenvalues:    21.3464    29.1500    33.4086
     64  H    Isotropic =    24.9744   Anisotropy =     6.7696
   XX=    27.6275   YX=    -1.6655   ZX=    -2.7623
   XY=    -1.6204   YY=    22.2278   ZY=    -0.3923
   XZ=    -2.5717   YZ=    -0.6004   ZZ=    25.0681
   Eigenvalues:    21.2762    24.1597    29.4875
     65  H    Isotropic =    24.2106   Anisotropy =     8.2180
   XX=    26.0956   YX=    -0.8282   ZX=    -3.9490
   XY=    -1.1015   YY=    20.9366   ZY=    -0.1460
   XZ=    -3.6863   YZ=    -0.8286   ZZ=    25.5995
   Eigenvalues:    20.3172    22.6253    29.6892
     66  H    Isotropic =    24.9686   Anisotropy =     4.5040
   XX=    26.8317   YX=    -2.4878   ZX=    -0.1181
   XY=    -2.1420   YY=    23.2094   ZY=    -1.6738
   XZ=    -0.9288   YZ=    -1.2771   ZZ=    24.8647
   Eigenvalues:    21.3849    25.5496    27.9713
     67  H    Isotropic =    27.6285   Anisotropy =     9.9979
   XX=    25.4268   YX=    -2.6495   ZX=     0.0669
   XY=    -0.3142   YY=    34.0450   ZY=    -1.5514
   XZ=    -0.4860   YZ=     1.7088   ZZ=    23.4138
   Eigenvalues:    23.3917    25.2001    34.2938
     68  H    Isotropic =    27.0042   Anisotropy =     7.5062
   XX=    29.9151   YX=    -0.7836   ZX=     0.7493
   XY=    -2.8322   YY=    29.4685   ZY=     1.6707
   XZ=    -2.0496   YZ=     3.5171   ZZ=    21.6291
   Eigenvalues:    20.8473    28.1570    32.0084
     69  H    Isotropic =    28.0993   Anisotropy =     9.1296
   XX=    26.4515   YX=    -2.2335   ZX=    -1.6118
   XY=    -1.3255   YY=    29.1001   ZY=     4.9927
   XZ=     0.5868   YZ=     4.8267   ZZ=    28.7463
   Eigenvalues:    23.7075    26.4048    34.1857
     70  H    Isotropic =    28.3246   Anisotropy =     8.5968
   XX=    25.4485   YX=     1.6728   ZX=    -0.3594
   XY=     1.9161   YY=    25.8198   ZY=     0.5636
   XZ=    -1.7163   YZ=    -2.7909   ZZ=    33.7057
   Eigenvalues:    23.8300    27.0880    34.0558
     71  H    Isotropic =    28.3914   Anisotropy =     4.4699
   XX=    24.0354   YX=     0.8466   ZX=     1.0875
   XY=     2.5977   YY=    30.0793   ZY=    -0.8215
   XZ=     1.9179   YZ=     0.2353   ZZ=    31.0595
   Eigenvalues:    23.2791    30.5237    31.3713
     72  H    Isotropic =    28.0851   Anisotropy =     9.2366
   XX=    27.9837   YX=    -1.4827   ZX=     2.7171
   XY=     0.1821   YY=    25.9310   ZY=    -0.8931
   XZ=     5.6720   YZ=    -4.2342   ZZ=    30.3405
   Eigenvalues:    23.9962    26.0162    34.2428
     73  H    Isotropic =    28.1095   Anisotropy =     9.1600
   XX=    29.3506   YX=    -1.8645   ZX=    -2.9591
   XY=     0.5151   YY=    25.6819   ZY=     0.7792
   XZ=    -5.8145   YZ=     3.7121   ZZ=    29.2960
   Eigenvalues:    23.9633    26.1491    34.2162
     74  H    Isotropic =    28.3505   Anisotropy =     8.5611
   XX=    25.3445   YX=     1.3309   ZX=    -0.7893
   XY=     1.9370   YY=    25.7350   ZY=    -0.7793
   XZ=     0.5982   YZ=     2.4643   ZZ=    33.9720
   Eigenvalues:    23.8545    27.1391    34.0579
     75  H    Isotropic =    28.3968   Anisotropy =     4.3565
   XX=    24.6954   YX=     0.9573   ZX=    -1.9578
   XY=     2.5726   YY=    30.0210   ZY=     1.1863
   XZ=    -2.6834   YZ=    -0.1438   ZZ=    30.4738
   Eigenvalues:    23.3708    30.5183    31.3011
     76  H    Isotropic =    27.0175   Anisotropy =     7.4073
   XX=    29.6814   YX=    -0.3067   ZX=     0.1937
   XY=    -2.6701   YY=    29.6860   ZY=    -1.6779
   XZ=     2.9036   YZ=    -3.2064   ZZ=    21.6851
   Eigenvalues:    20.8587    28.2381    31.9557
     77  H    Isotropic =    28.1285   Anisotropy =     9.0834
   XX=    26.3985   YX=    -1.6385   ZX=     1.1692
   XY=    -0.6345   YY=    29.5408   ZY=    -5.0981
   XZ=    -0.9329   YZ=    -5.0030   ZZ=    28.4461
   Eigenvalues:    23.7385    26.4629    34.1840
     78  H    Isotropic =    27.6428   Anisotropy =     9.9337
   XX=    25.3857   YX=    -2.4332   ZX=     0.0291
   XY=    -0.5014   YY=    34.0210   ZY=     1.9599
   XZ=     0.6366   YZ=    -1.5709   ZZ=    23.5218
   Eigenvalues:    23.4438    25.2194    34.2653
 End of Minotr F.D. properties file   721 does not exist.
 End of Minotr F.D. properties file   722 does not exist.
 End of Minotr F.D. properties file   788 does not exist.

 **********************************************************************

            Population analysis using the SCF Density.

 **********************************************************************

 Orbital symmetries:
       Occupied  (A) (A) (A) (A) (A) (A) (A) (A) (A) (A) (A) (A)
                 (A) (A) (A) (A) (A) (A) (A) (A) (A) (A) (A) (A)
                 (A) (A) (A) (A) (A) (A) (A) (A) (A) (A) (A) (A)
                 (A) (A) (A) (A) (A) (A) (A) (A) (A) (A) (A) (A)
                 (A) (A) (A) (A) (A) (A) (A) (A) (A) (A) (A) (A)
                 (A) (A) (A) (A) (A) (A) (A) (A) (A) (A) (A) (A)
                 (A) (A) (A) (A) (A) (A) (A) (A) (A) (A) (A) (A)
                 (A) (A) (A) (A) (A) (A) (A) (A) (A) (A) (A) (A)
                 (A) (A) (A) (A) (A) (A) (A) (A) (A) (A) (A) (A)
                 (A) (A) (A) (A) (A) (A) (A) (A) (A) (A) (A) (A)
                 (A) (A) (A) (A) (A) (A) (A) (A) (A) (A) (A) (A)
                 (A) (A) (A) (A) (A) (A) (A) (A) (A) (A) (A) (A)
                 (A) (A) (A) (A) (A) (A) (A) (A) (A) (A) (A) (A)
                 (A) (A) (A)
       Virtual   (A) (A) (A) (A) (A) (A) (A) (A) (A) (A) (A) (A)
                 (A) (A) (A) (A) (A) (A) (A) (A) (A) (A) (A) (A)
                 (A) (A) (A) (A) (A) (A) (A) (A) (A) (A) (A) (A)
                 (A) (A) (A) (A) (A) (A) (A) (A) (A) (A) (A) (A)
                 (A) (A) (A) (A) (A) (A) (A) (A) (A) (A) (A) (A)
                 (A) (A) (A) (A) (A) (A) (A) (A) (A) (A) (A) (A)
                 (A) (A) (A) (A) (A) (A) (A) (A) (A) (A) (A) (A)
                 (A) (A) (A) (A) (A) (A) (A) (A) (A) (A) (A) (A)
                 (A) (A) (A) (A) (A) (A) (A) (A) (A) (A) (A) (A)
                 (A) (A) (A) (A) (A) (A) (A) (A) (A) (A) (A) (A)
                 (A) (A) (A) (A) (A) (A) (A) (A) (A) (A) (A) (A)
                 (A) (A) (A) (A) (A) (A) (A) (A) (A) (A) (A) (A)
                 (A) (A) (A) (A) (A) (A) (A) (A) (A) (A) (A) (A)
                 (A) (A) (A) (A) (A) (A) (A) (A) (A) (A) (A) (A)
                 (A) (A) (A) (A) (A) (A) (A) (A) (A) (A) (A) (A)
                 (A) (A) (A) (A) (A) (A) (A) (A) (A) (A) (A) (A)
                 (A) (A) (A) (A) (A) (A) (A) (A) (A) (A) (A) (A)
                 (A) (A) (A) (A) (A) (A) (A) (A) (A) (A) (A) (A)
                 (A) (A) (A) (A) (A) (A) (A) (A) (A) (A) (A) (A)
                 (A) (A) (A) (A) (A) (A) (A) (A) (A) (A) (A) (A)
                 (A) (A) (A) (A) (A) (A) (A) (A) (A) (A) (A) (A)
                 (A) (A) (A) (A) (A) (A) (A) (A) (A) (A) (A) (A)
                 (A) (A) (A) (A) (A) (A) (A) (A) (A) (A) (A) (A)
                 (A) (A) (A) (A) (A) (A) (A) (A) (A) (A) (A) (A)
                 (A) (A) (A) (A) (A) (A) (A) (A) (A) (A) (A) (A)
                 (A) (A) (A) (A) (A) (A) (A) (A) (A) (A) (A) (A)
                 (A) (A) (A) (A) (A) (A) (A) (A) (A) (A) (A) (A)
                 (A) (A) (A) (A) (A) (A) (A) (A) (A) (A) (A) (A)
                 (A) (A) (A) (A) (A) (A) (A) (A) (A) (A) (A) (A)
                 (A) (A) (A) (A) (A) (A) (A) (A) (A) (A) (A) (A)
                 (A) (A) (A) (A) (A) (A) (A) (A) (A) (A) (A) (A)
                 (A) (A) (A) (A) (A) (A) (A) (A) (A) (A) (A) (A)
                 (A) (A) (A) (A) (A) (A) (A) (A) (A) (A) (A) (A)
                 (A) (A) (A) (A) (A) (A) (A) (A) (A) (A) (A) (A)
                 (A) (A) (A) (A) (A) (A) (A) (A) (A) (A) (A) (A)
                 (A) (A) (A) (A) (A) (A) (A) (A) (A) (A) (A) (A)
                 (A) (A) (A) (A) (A) (A) (A) (A) (A) (A) (A) (A)
                 (A) (A) (A) (A) (A) (A) (A) (A) (A) (A) (A) (A)
                 (A) (A) (A) (A) (A) (A) (A) (A) (A) (A) (A) (A)
                 (A) (A) (A) (A) (A) (A) (A) (A) (A) (A) (A) (A)
                 (A) (A) (A) (A) (A) (A) (A) (A) (A) (A) (A) (A)
                 (A) (A) (A) (A) (A) (A) (A) (A) (A) (A) (A) (A)
                 (A) (A) (A) (A) (A) (A) (A) (A) (A) (A) (A) (A)
                 (A) (A) (A) (A) (A) (A) (A) (A) (A) (A) (A) (A)
                 (A) (A) (A) (A) (A) (A) (A) (A) (A) (A) (A) (A)
                 (A) (A) (A) (A) (A) (A) (A) (A) (A) (A) (A) (A)
                 (A) (A) (A) (A) (A) (A) (A) (A) (A) (A) (A) (A)
                 (A) (A) (A) (A) (A) (A) (A) (A) (A) (A) (A) (A)
                 (A) (A) (A) (A) (A) (A) (A) (A) (A) (A) (A) (A)
                 (A) (A) (A) (A) (A) (A) (A) (A) (A) (A) (A) (A)
                 (A) (A) (A) (A) (A) (A) (A) (A) (A) (A) (A) (A)
                 (A) (A) (A) (A) (A) (A) (A) (A) (A) (A) (A) (A)
                 (A) (A) (A) (A) (A) (A) (A) (A) (A) (A) (A) (A)
                 (A) (A) (A) (A) (A) (A) (A) (A) (A) (A) (A) (A)
                 (A) (A) (A) (A) (A) (A) (A) (A) (A) (A) (A) (A)
                 (A) (A) (A) (A) (A) (A) (A) (A) (A) (A) (A) (A)
                 (A) (A) (A) (A) (A) (A) (A) (A) (A) (A) (A) (A)
                 (A) (A) (A) (A) (A) (A) (A) (A) (A) (A) (A) (A)
                 (A) (A) (A) (A) (A) (A) (A) (A) (A) (A) (A) (A)
                 (A) (A) (A) (A) (A) (A) (A) (A) (A) (A) (A) (A)
                 (A) (A) (A) (A) (A) (A) (A) (A) (A) (A) (A) (A)
                 (A) (A) (A) (A) (A) (A) (A) (A) (A) (A) (A) (A)
                 (A) (A) (A) (A) (A) (A) (A) (A) (A) (A) (A) (A)
                 (A) (A) (A) (A) (A) (A) (A) (A) (A) (A) (A) (A)
                 (A) (A) (A) (A) (A) (A) (A) (A) (A) (A) (A) (A)
                 (A) (A) (A) (A) (A) (A) (A) (A) (A) (A) (A) (A)
                 (A) (A) (A) (A) (A) (A) (A) (A) (A) (A) (A) (A)
                 (A) (A) (A) (A) (A) (A) (A) (A) (A) (A) (A) (A)
                 (A) (A) (A) (A) (A) (A) (A) (A) (A) (A) (A) (A)
                 (A) (A) (A) (A) (A) (A) (A) (A) (A) (A) (A) (A)
                 (A) (A) (A) (A) (A) (A) (A) (A) (A) (A) (A) (A)
                 (A) (A) (A) (A) (A) (A) (A) (A) (A) (A) (A) (A)
                 (A) (A) (A) (A) (A) (A) (A) (A) (A) (A) (A) (A)
                 (A) (A) (A) (A) (A) (A) (A) (A) (A) (A) (A) (A)
                 (A) (A) (A) (A) (A) (A) (A) (A) (A) (A) (A) (A)
                 (A) (A) (A) (A) (A) (A) (A) (A) (A) (A) (A) (A)
                 (A) (A) (A) (A) (A) (A) (A) (A) (A) (A) (A) (A)
                 (A) (A) (A) (A) (A) (A) (A) (A) (A) (A) (A) (A)
                 (A) (A) (A) (A) (A) (A) (A) (A) (A) (A) (A) (A)
                 (A) (A) (A) (A) (A) (A) (A) (A) (A) (A) (A) (A)
                 (A) (A) (A) (A) (A) (A) (A) (A) (A) (A) (A) (A)
                 (A) (A) (A) (A) (A) (A) (A) (A) (A) (A) (A) (A)
                 (A) (A) (A) (A) (A) (A) (A) (A) (A) (A) (A) (A)
                 (A) (A) (A) (A) (A) (A) (A) (A) (A) (A) (A) (A)
                 (A) (A) (A) (A) (A) (A) (A) (A) (A) (A) (A) (A)
                 (A) (A) (A) (A) (A) (A) (A) (A) (A) (A) (A) (A)
                 (A) (A) (A) (A) (A) (A) (A) (A) (A) (A) (A) (A)
                 (A) (A) (A) (A) (A) (A) (A) (A) (A) (A) (A) (A)
                 (A) (A) (A) (A) (A) (A) (A) (A) (A) (A) (A) (A)
                 (A) (A) (A) (A) (A) (A) (A) (A) (A) (A) (A) (A)
                 (A) (A) (A) (A) (A) (A) (A) (A) (A) (A) (A) (A)
                 (A) (A) (A) (A) (A) (A) (A) (A) (A) (A) (A) (A)
                 (A) (A) (A) (A) (A) (A) (A) (A) (A) (A) (A) (A)
                 (A) (A) (A) (A) (A) (A) (A) (A) (A) (A) (A) (A)
                 (A) (A) (A) (A) (A) (A) (A) (A) (A) (A) (A) (A)
                 (A) (A) (A) (A) (A) (A) (A) (A) (A) (A) (A) (A)
                 (A) (A) (A) (A) (A) (A) (A) (A) (A) (A) (A) (A)
                 (A) (A) (A) (A) (A) (A) (A) (A) (A) (A) (A) (A)
                 (A) (A) (A) (A) (A) (A) (A) (A) (A) (A) (A) (A)
                 (A) (A) (A) (A) (A) (A) (A) (A) (A) (A) (A) (A)
                 (A) (A) (A) (A) (A) (A) (A) (A) (A) (A) (A) (A)
                 (A) (A) (A) (A) (A) (A) (A) (A) (A)
 The electronic state is 1-A.
 Alpha  occ. eigenvalues --  -19.25131 -19.25125 -19.25014 -19.25009 -19.24930
 Alpha  occ. eigenvalues --  -19.24926 -19.24571 -19.24570 -19.23748 -19.23735
 Alpha  occ. eigenvalues --  -10.30284 -10.30281 -10.30100 -10.30097 -10.29857
 Alpha  occ. eigenvalues --  -10.29856 -10.29766 -10.29754 -10.29307 -10.29304
 Alpha  occ. eigenvalues --  -10.27922 -10.27919 -10.27253 -10.27250 -10.27066
 Alpha  occ. eigenvalues --  -10.27064 -10.25000 -10.24965 -10.24856 -10.24846
 Alpha  occ. eigenvalues --  -10.24606 -10.24605 -10.23948 -10.23944 -10.23899
 Alpha  occ. eigenvalues --  -10.23897 -10.23881 -10.23877 -10.23214 -10.23203
 Alpha  occ. eigenvalues --  -10.23065 -10.23059 -10.22926 -10.22924  -1.11151
 Alpha  occ. eigenvalues --   -1.11136  -1.09440  -1.09438  -1.09165  -1.09161
 Alpha  occ. eigenvalues --   -1.08878  -1.08803  -1.07278  -1.07231  -0.89691
 Alpha  occ. eigenvalues --   -0.88286  -0.87948  -0.87888  -0.84413  -0.83585
 Alpha  occ. eigenvalues --   -0.79909  -0.78638  -0.78522  -0.77663  -0.77650
 Alpha  occ. eigenvalues --   -0.75953  -0.75464  -0.75111  -0.72532  -0.71546
 Alpha  occ. eigenvalues --   -0.70070  -0.69837  -0.68629  -0.68620  -0.66074
 Alpha  occ. eigenvalues --   -0.66038  -0.65454  -0.63260  -0.63158  -0.62711
 Alpha  occ. eigenvalues --   -0.61229  -0.60866  -0.59708  -0.58662  -0.57974
 Alpha  occ. eigenvalues --   -0.57045  -0.55881  -0.55719  -0.53609  -0.53515
 Alpha  occ. eigenvalues --   -0.53022  -0.52240  -0.51741  -0.51622  -0.50230
 Alpha  occ. eigenvalues --   -0.49983  -0.49616  -0.49449  -0.49242  -0.48949
 Alpha  occ. eigenvalues --   -0.48599  -0.48417  -0.47077  -0.46792  -0.46562
 Alpha  occ. eigenvalues --   -0.46405  -0.45727  -0.45418  -0.45274  -0.45222
 Alpha  occ. eigenvalues --   -0.44972  -0.44563  -0.44425  -0.44084  -0.43991
 Alpha  occ. eigenvalues --   -0.43212  -0.43166  -0.43136  -0.42307  -0.42256
 Alpha  occ. eigenvalues --   -0.41919  -0.41392  -0.41302  -0.41110  -0.40408
 Alpha  occ. eigenvalues --   -0.40320  -0.40154  -0.39943  -0.39806  -0.39364
 Alpha  occ. eigenvalues --   -0.38972  -0.37254  -0.37171  -0.36926  -0.36779
 Alpha  occ. eigenvalues --   -0.36706  -0.36482  -0.35925  -0.35139  -0.34811
 Alpha  occ. eigenvalues --   -0.33966  -0.33798  -0.33284  -0.32667  -0.32497
 Alpha  occ. eigenvalues --   -0.32082  -0.31851  -0.31502  -0.31232  -0.29067
 Alpha  occ. eigenvalues --   -0.28890  -0.25405  -0.25173  -0.24822  -0.24627
 Alpha  occ. eigenvalues --   -0.24529  -0.22672  -0.22516  -0.21779
 Alpha virt. eigenvalues --   -0.02220  -0.01134  -0.01054  -0.00836  -0.00663
 Alpha virt. eigenvalues --    0.00272   0.00345   0.01069   0.01163   0.01221
 Alpha virt. eigenvalues --    0.01353   0.01749   0.01788   0.02178   0.02316
 Alpha virt. eigenvalues --    0.02733   0.02975   0.03012   0.03262   0.03653
 Alpha virt. eigenvalues --    0.03660   0.04096   0.04239   0.04280   0.04585
 Alpha virt. eigenvalues --    0.04947   0.05197   0.05385   0.05595   0.05779
 Alpha virt. eigenvalues --    0.06004   0.06157   0.06540   0.06660   0.06841
 Alpha virt. eigenvalues --    0.07217   0.07230   0.07603   0.07694   0.08243
 Alpha virt. eigenvalues --    0.08616   0.08751   0.08907   0.09212   0.09538
 Alpha virt. eigenvalues --    0.09691   0.09802   0.10104   0.10178   0.10466
 Alpha virt. eigenvalues --    0.10722   0.10872   0.11016   0.11426   0.11503
 Alpha virt. eigenvalues --    0.11761   0.11882   0.12103   0.12265   0.12636
 Alpha virt. eigenvalues --    0.12664   0.12782   0.13079   0.13345   0.13518
 Alpha virt. eigenvalues --    0.13613   0.13813   0.13895   0.14399   0.14618
 Alpha virt. eigenvalues --    0.14862   0.15095   0.15224   0.15264   0.15372
 Alpha virt. eigenvalues --    0.15554   0.15682   0.15911   0.15942   0.16194
 Alpha virt. eigenvalues --    0.16444   0.16646   0.16683   0.16858   0.17119
 Alpha virt. eigenvalues --    0.17243   0.17469   0.17592   0.17685   0.17790
 Alpha virt. eigenvalues --    0.17920   0.18146   0.18288   0.18443   0.18493
 Alpha virt. eigenvalues --    0.18652   0.18803   0.19047   0.19115   0.19337
 Alpha virt. eigenvalues --    0.19437   0.19703   0.19848   0.20037   0.20126
 Alpha virt. eigenvalues --    0.20228   0.20504   0.20591   0.20753   0.20918
 Alpha virt. eigenvalues --    0.21140   0.21244   0.21351   0.21528   0.21693
 Alpha virt. eigenvalues --    0.21888   0.22076   0.22159   0.22465   0.22552
 Alpha virt. eigenvalues --    0.22668   0.22945   0.23083   0.23119   0.23276
 Alpha virt. eigenvalues --    0.23308   0.23502   0.23584   0.23800   0.24067
 Alpha virt. eigenvalues --    0.24187   0.24437   0.24555   0.24738   0.24905
 Alpha virt. eigenvalues --    0.25011   0.25125   0.25357   0.25393   0.25717
 Alpha virt. eigenvalues --    0.25942   0.26091   0.26141   0.26334   0.26479
 Alpha virt. eigenvalues --    0.26590   0.26764   0.27034   0.27114   0.27210
 Alpha virt. eigenvalues --    0.27477   0.27695   0.27923   0.28044   0.28137
 Alpha virt. eigenvalues --    0.28275   0.28485   0.28629   0.28758   0.28979
 Alpha virt. eigenvalues --    0.29025   0.29180   0.29308   0.29468   0.29557
 Alpha virt. eigenvalues --    0.29883   0.29917   0.30197   0.30341   0.30418
 Alpha virt. eigenvalues --    0.30746   0.30814   0.31213   0.31429   0.31624
 Alpha virt. eigenvalues --    0.31864   0.31931   0.32144   0.32266   0.32337
 Alpha virt. eigenvalues --    0.32731   0.32878   0.33051   0.33277   0.33574
 Alpha virt. eigenvalues --    0.33713   0.33785   0.34072   0.34387   0.34661
 Alpha virt. eigenvalues --    0.34758   0.34858   0.35023   0.35143   0.35343
 Alpha virt. eigenvalues --    0.35623   0.35871   0.35944   0.36458   0.36621
 Alpha virt. eigenvalues --    0.36826   0.36910   0.37000   0.37067   0.37530
 Alpha virt. eigenvalues --    0.37627   0.37894   0.38121   0.38326   0.38632
 Alpha virt. eigenvalues --    0.38744   0.38970   0.39230   0.39241   0.39402
 Alpha virt. eigenvalues --    0.39439   0.39620   0.40037   0.40370   0.40489
 Alpha virt. eigenvalues --    0.40742   0.40791   0.41280   0.41490   0.41791
 Alpha virt. eigenvalues --    0.41975   0.42120   0.42414   0.42743   0.42997
 Alpha virt. eigenvalues --    0.43080   0.43516   0.43649   0.43961   0.44440
 Alpha virt. eigenvalues --    0.44730   0.44943   0.45184   0.45870   0.46019
 Alpha virt. eigenvalues --    0.46512   0.46584   0.47435   0.47496   0.47568
 Alpha virt. eigenvalues --    0.47976   0.48235   0.48377   0.48514   0.48816
 Alpha virt. eigenvalues --    0.49233   0.49395   0.50173   0.50765   0.51242
 Alpha virt. eigenvalues --    0.51407   0.52081   0.52423   0.52688   0.52822
 Alpha virt. eigenvalues --    0.52968   0.53271   0.53355   0.53703   0.54046
 Alpha virt. eigenvalues --    0.54119   0.54501   0.54649   0.54924   0.55325
 Alpha virt. eigenvalues --    0.55564   0.56104   0.56330   0.56358   0.56391
 Alpha virt. eigenvalues --    0.56546   0.56888   0.57372   0.57619   0.57739
 Alpha virt. eigenvalues --    0.58114   0.58369   0.58791   0.59083   0.59108
 Alpha virt. eigenvalues --    0.59325   0.59610   0.59787   0.60679   0.60892
 Alpha virt. eigenvalues --    0.61262   0.61482   0.61690   0.62059   0.62519
 Alpha virt. eigenvalues --    0.62655   0.62773   0.63073   0.63241   0.63395
 Alpha virt. eigenvalues --    0.63746   0.64132   0.64302   0.64844   0.65221
 Alpha virt. eigenvalues --    0.65272   0.65597   0.65749   0.66043   0.66140
 Alpha virt. eigenvalues --    0.66463   0.66635   0.66810   0.66893   0.66937
 Alpha virt. eigenvalues --    0.67179   0.67462   0.67542   0.67830   0.68084
 Alpha virt. eigenvalues --    0.68691   0.68799   0.69130   0.69243   0.69439
 Alpha virt. eigenvalues --    0.69819   0.69847   0.70185   0.70278   0.70549
 Alpha virt. eigenvalues --    0.70943   0.71055   0.71401   0.71951   0.72045
 Alpha virt. eigenvalues --    0.72226   0.72339   0.72407   0.72736   0.73026
 Alpha virt. eigenvalues --    0.73204   0.73470   0.73670   0.73916   0.74116
 Alpha virt. eigenvalues --    0.74227   0.74434   0.74675   0.75123   0.75191
 Alpha virt. eigenvalues --    0.75588   0.75684   0.75955   0.76258   0.76363
 Alpha virt. eigenvalues --    0.76684   0.76767   0.77129   0.77635   0.77747
 Alpha virt. eigenvalues --    0.77882   0.78243   0.78643   0.78862   0.79011
 Alpha virt. eigenvalues --    0.79199   0.79236   0.79500   0.79823   0.80044
 Alpha virt. eigenvalues --    0.80094   0.80424   0.80661   0.80897   0.81280
 Alpha virt. eigenvalues --    0.81599   0.81704   0.81949   0.82405   0.82528
 Alpha virt. eigenvalues --    0.82768   0.83035   0.83129   0.83541   0.83789
 Alpha virt. eigenvalues --    0.84204   0.84473   0.84723   0.84827   0.85085
 Alpha virt. eigenvalues --    0.85355   0.85602   0.86030   0.86392   0.86555
 Alpha virt. eigenvalues --    0.86677   0.87150   0.87375   0.87493   0.87574
 Alpha virt. eigenvalues --    0.87977   0.88384   0.88661   0.89126   0.89391
 Alpha virt. eigenvalues --    0.89956   0.90208   0.90703   0.90890   0.91140
 Alpha virt. eigenvalues --    0.91702   0.91907   0.92043   0.92397   0.92572
 Alpha virt. eigenvalues --    0.92912   0.93066   0.93336   0.93690   0.94458
 Alpha virt. eigenvalues --    0.94897   0.95346   0.96041   0.96402   0.96990
 Alpha virt. eigenvalues --    0.97184   0.98240   0.98352   0.98698   0.98757
 Alpha virt. eigenvalues --    0.99628   0.99778   1.00397   1.00689   1.00944
 Alpha virt. eigenvalues --    1.01485   1.01917   1.02015   1.02478   1.02962
 Alpha virt. eigenvalues --    1.03302   1.03678   1.04081   1.04282   1.04520
 Alpha virt. eigenvalues --    1.05319   1.05448   1.05676   1.06004   1.06278
 Alpha virt. eigenvalues --    1.06580   1.07205   1.07521   1.07733   1.08127
 Alpha virt. eigenvalues --    1.08260   1.08625   1.08793   1.09112   1.09207
 Alpha virt. eigenvalues --    1.09751   1.09974   1.10536   1.10687   1.11194
 Alpha virt. eigenvalues --    1.11630   1.12123   1.12353   1.12915   1.13394
 Alpha virt. eigenvalues --    1.13529   1.14159   1.14415   1.14815   1.15297
 Alpha virt. eigenvalues --    1.15709   1.15989   1.16315   1.16539   1.16613
 Alpha virt. eigenvalues --    1.16925   1.17038   1.17353   1.17769   1.18502
 Alpha virt. eigenvalues --    1.18563   1.19111   1.19814   1.19991   1.20300
 Alpha virt. eigenvalues --    1.20581   1.20964   1.21167   1.21309   1.21466
 Alpha virt. eigenvalues --    1.21731   1.21944   1.22603   1.22978   1.23182
 Alpha virt. eigenvalues --    1.23539   1.23674   1.24177   1.24497   1.25074
 Alpha virt. eigenvalues --    1.25456   1.25897   1.26285   1.26355   1.26794
 Alpha virt. eigenvalues --    1.27091   1.27335   1.27949   1.28640   1.28832
 Alpha virt. eigenvalues --    1.28908   1.29150   1.29478   1.29887   1.29922
 Alpha virt. eigenvalues --    1.30280   1.30960   1.31185   1.31294   1.31511
 Alpha virt. eigenvalues --    1.32244   1.32727   1.32937   1.33426   1.33661
 Alpha virt. eigenvalues --    1.34062   1.34262   1.34771   1.35113   1.35534
 Alpha virt. eigenvalues --    1.35712   1.36060   1.36212   1.36664   1.36826
 Alpha virt. eigenvalues --    1.36910   1.37768   1.37947   1.38191   1.38692
 Alpha virt. eigenvalues --    1.39032   1.39278   1.39652   1.39763   1.40138
 Alpha virt. eigenvalues --    1.40553   1.40752   1.41561   1.41626   1.41856
 Alpha virt. eigenvalues --    1.42341   1.42440   1.43399   1.43848   1.44183
 Alpha virt. eigenvalues --    1.44385   1.44800   1.45045   1.45701   1.46186
 Alpha virt. eigenvalues --    1.46821   1.47473   1.48153   1.48541   1.49635
 Alpha virt. eigenvalues --    1.49853   1.50201   1.50294   1.50744   1.51199
 Alpha virt. eigenvalues --    1.51575   1.52856   1.52971   1.53718   1.54139
 Alpha virt. eigenvalues --    1.54329   1.54880   1.55539   1.56040   1.56144
 Alpha virt. eigenvalues --    1.56437   1.56664   1.57340   1.57670   1.58664
 Alpha virt. eigenvalues --    1.58902   1.59221   1.60123   1.60310   1.60724
 Alpha virt. eigenvalues --    1.60987   1.61101   1.62089   1.63039   1.63617
 Alpha virt. eigenvalues --    1.63789   1.64018   1.64507   1.65442   1.65718
 Alpha virt. eigenvalues --    1.66708   1.67133   1.67546   1.68193   1.68713
 Alpha virt. eigenvalues --    1.69455   1.69970   1.70286   1.71113   1.71953
 Alpha virt. eigenvalues --    1.72150   1.72464   1.72768   1.73229   1.73659
 Alpha virt. eigenvalues --    1.74220   1.74564   1.76590   1.76639   1.76965
 Alpha virt. eigenvalues --    1.77309   1.77427   1.77686   1.78108   1.78552
 Alpha virt. eigenvalues --    1.78662   1.79362   1.80144   1.80367   1.80684
 Alpha virt. eigenvalues --    1.81004   1.81600   1.82097   1.82164   1.82745
 Alpha virt. eigenvalues --    1.83400   1.83648   1.83818   1.84551   1.85342
 Alpha virt. eigenvalues --    1.86183   1.86654   1.87888   1.88136   1.89130
 Alpha virt. eigenvalues --    1.89530   1.90311   1.91256   1.91872   1.92065
 Alpha virt. eigenvalues --    1.92717   1.92824   1.93587   1.95123   1.95916
 Alpha virt. eigenvalues --    1.96561   1.97346   1.97705   1.98005   1.98397
 Alpha virt. eigenvalues --    1.98626   1.98671   1.99228   1.99760   1.99906
 Alpha virt. eigenvalues --    2.00200   2.00404   2.00565   2.01198   2.01784
 Alpha virt. eigenvalues --    2.02008   2.03678   2.04823   2.05864   2.05969
 Alpha virt. eigenvalues --    2.06212   2.06752   2.07071   2.07523   2.08105
 Alpha virt. eigenvalues --    2.08757   2.08883   2.09802   2.10458   2.11064
 Alpha virt. eigenvalues --    2.11899   2.13986   2.14063   2.15042   2.15495
 Alpha virt. eigenvalues --    2.17260   2.18327   2.18835   2.19052   2.19494
 Alpha virt. eigenvalues --    2.20214   2.21495   2.22265   2.23032   2.23270
 Alpha virt. eigenvalues --    2.25275   2.25664   2.26553   2.27670   2.27841
 Alpha virt. eigenvalues --    2.28086   2.28504   2.28700   2.29241   2.29418
 Alpha virt. eigenvalues --    2.29919   2.30284   2.30737   2.31013   2.31244
 Alpha virt. eigenvalues --    2.32055   2.33436   2.34284   2.34479   2.34755
 Alpha virt. eigenvalues --    2.35615   2.36319   2.36865   2.38418   2.38519
 Alpha virt. eigenvalues --    2.38910   2.40043   2.40486   2.40667   2.40901
 Alpha virt. eigenvalues --    2.40979   2.41226   2.42163   2.42328   2.42531
 Alpha virt. eigenvalues --    2.43010   2.44313   2.44429   2.44905   2.45502
 Alpha virt. eigenvalues --    2.45798   2.46110   2.46802   2.47001   2.47157
 Alpha virt. eigenvalues --    2.47656   2.48176   2.48429   2.48672   2.49966
 Alpha virt. eigenvalues --    2.50319   2.51629   2.52909   2.53256   2.54112
 Alpha virt. eigenvalues --    2.54637   2.57916   2.58361   2.59090   2.59760
 Alpha virt. eigenvalues --    2.61347   2.61494   2.62313   2.62544   2.63117
 Alpha virt. eigenvalues --    2.63366   2.64516   2.64818   2.65950   2.66193
 Alpha virt. eigenvalues --    2.67226   2.67858   2.68093   2.69486   2.69551
 Alpha virt. eigenvalues --    2.70241   2.71516   2.71828   2.73047   2.73568
 Alpha virt. eigenvalues --    2.75026   2.75304   2.75687   2.76172   2.76609
 Alpha virt. eigenvalues --    2.77789   2.78411   2.79058   2.79257   2.79318
 Alpha virt. eigenvalues --    2.79624   2.79879   2.80049   2.81511   2.83384
 Alpha virt. eigenvalues --    2.84708   2.84961   2.85385   2.85993   2.87238
 Alpha virt. eigenvalues --    2.88153   2.88679   2.89249   2.89489   2.89933
 Alpha virt. eigenvalues --    2.90799   2.90946   2.92138   2.93406   2.93579
 Alpha virt. eigenvalues --    2.94257   2.94417   2.95701   2.96655   2.96916
 Alpha virt. eigenvalues --    2.97057   2.99078   3.00283   3.00598   3.00964
 Alpha virt. eigenvalues --    3.01220   3.01614   3.02601   3.02886   3.03497
 Alpha virt. eigenvalues --    3.03864   3.04301   3.04854   3.05136   3.05329
 Alpha virt. eigenvalues --    3.05418   3.06106   3.06822   3.07232   3.08449
 Alpha virt. eigenvalues --    3.09113   3.09515   3.10032   3.10484   3.11096
 Alpha virt. eigenvalues --    3.11910   3.12983   3.13456   3.13980   3.15026
 Alpha virt. eigenvalues --    3.15180   3.15857   3.16359   3.17461   3.18465
 Alpha virt. eigenvalues --    3.19201   3.20395   3.20820   3.21031   3.21617
 Alpha virt. eigenvalues --    3.22167   3.22338   3.23936   3.24364   3.24951
 Alpha virt. eigenvalues --    3.25229   3.25696   3.26136   3.26385   3.27023
 Alpha virt. eigenvalues --    3.27251   3.27509   3.28076   3.29198   3.29600
 Alpha virt. eigenvalues --    3.30658   3.30925   3.31710   3.32689   3.33408
 Alpha virt. eigenvalues --    3.33930   3.35170   3.35314   3.35523   3.35897
 Alpha virt. eigenvalues --    3.36881   3.37303   3.37523   3.37841   3.38300
 Alpha virt. eigenvalues --    3.38368   3.38576   3.39221   3.39457   3.40038
 Alpha virt. eigenvalues --    3.40395   3.40892   3.41302   3.42657   3.43052
 Alpha virt. eigenvalues --    3.43196   3.43728   3.43899   3.44327   3.44613
 Alpha virt. eigenvalues --    3.44949   3.45103   3.45701   3.45740   3.46562
 Alpha virt. eigenvalues --    3.47177   3.47247   3.47340   3.47723   3.47941
 Alpha virt. eigenvalues --    3.48822   3.49494   3.50030   3.50769   3.50920
 Alpha virt. eigenvalues --    3.51063   3.51512   3.51723   3.52179   3.52933
 Alpha virt. eigenvalues --    3.53158   3.53932   3.54161   3.55039   3.55158
 Alpha virt. eigenvalues --    3.55798   3.56099   3.56631   3.56993   3.57577
 Alpha virt. eigenvalues --    3.57919   3.58080   3.58810   3.59541   3.60218
 Alpha virt. eigenvalues --    3.60612   3.60885   3.61276   3.61559   3.62043
 Alpha virt. eigenvalues --    3.62236   3.62623   3.62999   3.63387   3.63841
 Alpha virt. eigenvalues --    3.63979   3.64158   3.64773   3.65104   3.65499
 Alpha virt. eigenvalues --    3.65802   3.66473   3.67261   3.67405   3.68093
 Alpha virt. eigenvalues --    3.68396   3.68484   3.68778   3.69617   3.70053
 Alpha virt. eigenvalues --    3.70176   3.70627   3.70874   3.71531   3.72237
 Alpha virt. eigenvalues --    3.72418   3.72956   3.73110   3.73517   3.74181
 Alpha virt. eigenvalues --    3.74535   3.74654   3.75192   3.76235   3.76715
 Alpha virt. eigenvalues --    3.77032   3.77609   3.77960   3.78089   3.78362
 Alpha virt. eigenvalues --    3.79035   3.79429   3.80204   3.80734   3.81392
 Alpha virt. eigenvalues --    3.82088   3.82820   3.83011   3.83339   3.84236
 Alpha virt. eigenvalues --    3.85305   3.85616   3.85896   3.86553   3.86987
 Alpha virt. eigenvalues --    3.87744   3.87999   3.88164   3.88764   3.88834
 Alpha virt. eigenvalues --    3.89245   3.90334   3.90993   3.91243   3.92154
 Alpha virt. eigenvalues --    3.92411   3.94575   3.94780   3.95300   3.95722
 Alpha virt. eigenvalues --    3.96353   3.96681   3.96972   3.97816   3.98565
 Alpha virt. eigenvalues --    3.99118   4.00015   4.00701   4.01341   4.01789
 Alpha virt. eigenvalues --    4.02918   4.05097   4.05602   4.06099   4.07807
 Alpha virt. eigenvalues --    4.08082   4.08717   4.09849   4.10070   4.11026
 Alpha virt. eigenvalues --    4.12000   4.12366   4.12634   4.13083   4.14610
 Alpha virt. eigenvalues --    4.14910   4.15588   4.18622   4.19084   4.19940
 Alpha virt. eigenvalues --    4.20211   4.21775   4.22357   4.22636   4.23353
 Alpha virt. eigenvalues --    4.23635   4.24746   4.24994   4.27311   4.27651
 Alpha virt. eigenvalues --    4.27779   4.28444   4.28656   4.29423   4.30606
 Alpha virt. eigenvalues --    4.30920   4.31156   4.31913   4.32332   4.35319
 Alpha virt. eigenvalues --    4.36274   4.36682   4.41915   4.44641   4.44984
 Alpha virt. eigenvalues --    4.46282   4.46341   4.50217   4.50384   4.50708
 Alpha virt. eigenvalues --    4.51598   4.55196   4.56638   4.57602   4.61014
 Alpha virt. eigenvalues --    4.61968   4.68302   4.68354   4.72303   4.78166
 Alpha virt. eigenvalues --    4.80083   4.81891   4.82610   4.83341   4.87419
 Alpha virt. eigenvalues --    4.92478   4.93494   5.06022   5.06062   5.06345
 Alpha virt. eigenvalues --    5.11616   5.12157   5.16603   5.16941   5.24579
 Alpha virt. eigenvalues --    5.25387   5.28238   5.28265   5.31426   5.31972
 Alpha virt. eigenvalues --    5.42972   5.43582   5.48807   5.49077   5.55177
 Alpha virt. eigenvalues --    5.55418   5.59564   5.59686   5.60798   5.60812
 Alpha virt. eigenvalues --    5.72068   5.74244   5.84419   5.85349   5.94010
 Alpha virt. eigenvalues --    5.94052   5.96654   5.97265   6.02511   6.02535
 Alpha virt. eigenvalues --    6.04768   6.04989   6.87264   6.87265   6.91673
 Alpha virt. eigenvalues --    6.91714   6.98077   6.98082   6.99270   6.99292
 Alpha virt. eigenvalues --    7.03383   7.03460   7.04797   7.05217   7.06715
 Alpha virt. eigenvalues --    7.07303   7.07351   7.07515   7.08229   7.08619
 Alpha virt. eigenvalues --    7.10377   7.10939   7.11163   7.11994   7.13786
 Alpha virt. eigenvalues --    7.14510   7.16539   7.16694   7.21943   7.22009
 Alpha virt. eigenvalues --    7.27554   7.28078   7.31584   7.31596   7.34154
 Alpha virt. eigenvalues --    7.34367   7.37231   7.37866   7.37872   7.38477
 Alpha virt. eigenvalues --    7.40203   7.41244   7.44811   7.45879   7.49222
 Alpha virt. eigenvalues --    7.49269   7.56277   7.56543   7.58224   7.58637
 Alpha virt. eigenvalues --    7.58835   7.59025  23.77336  23.78041  23.80530
 Alpha virt. eigenvalues --   23.87867  24.02395  24.02779  24.06564  24.06783
 Alpha virt. eigenvalues --   24.07178  24.07643  24.09602  24.11124  24.11713
 Alpha virt. eigenvalues --   24.11870  24.11993  24.12126  24.14488  24.17490
 Alpha virt. eigenvalues --   24.17564  24.20812  24.22127  24.22877  24.23559
 Alpha virt. eigenvalues --   24.24947  24.27201  24.29805  24.29876  24.32564
 Alpha virt. eigenvalues --   24.33373  24.33601  24.36743  24.38637  24.39351
 Alpha virt. eigenvalues --   24.49434  50.10318  50.10322  50.12015  50.12596
 Alpha virt. eigenvalues --   50.16457  50.17638  50.20345  50.20394  50.22062
 Alpha virt. eigenvalues --   50.22433
          Condensed to atoms (all electrons):
 Mulliken charges:
               1
     1  C    0.055956
     2  C   -0.097778
     3  C   -0.470771
     4  C    1.244338
     5  C   -0.213999
     6  C   -0.569079
     7  C   -0.948464
     8  C    0.784510
     9  C   -0.405881
    10  O   -0.396602
    11  C    0.597499
    12  C   -0.767374
    13  C    0.671352
    14  C    0.329282
    15  C   -0.419833
    16  C   -0.395866
    17  O   -0.447594
    18  O   -0.487680
    19  O   -0.495144
    20  O   -0.446946
    21  C   -0.254263
    22  C   -0.445371
    23  C    0.378102
    24  C    0.751024
    25  C   -0.917856
    26  C    0.504173
    27  O   -0.399603
    28  C   -0.474744
    29  C    0.848321
    30  C   -0.959600
    31  C   -0.606191
    32  C   -0.182239
    33  C    1.231748
    34  C   -0.491173
    35  C   -0.079805
    36  C    0.056232
    37  O   -0.441699
    38  C   -0.245067
    39  O   -0.344811
    40  C   -0.312824
    41  O   -0.346793
    42  C   -0.314206
    43  O   -0.443587
    44  C   -0.246468
    45  H    0.150718
    46  H    0.150411
    47  H    0.147328
    48  H    0.204821
    49  H    0.185605
    50  H    0.135933
    51  H    0.188982
    52  H    0.180216
    53  H    0.168120
    54  H    0.316603
    55  H    0.352895
    56  H    0.357578
    57  H    0.316720
    58  H    0.167499
    59  H    0.178726
    60  H    0.191431
    61  H    0.137894
    62  H    0.184694
    63  H    0.208789
    64  H    0.147162
    65  H    0.150046
    66  H    0.150483
    67  H    0.175921
    68  H    0.192706
    69  H    0.184744
    70  H    0.193540
    71  H    0.190672
    72  H    0.185845
    73  H    0.185142
    74  H    0.192872
    75  H    0.189790
    76  H    0.191834
    77  H    0.184780
    78  H    0.176278
 Sum of Mulliken charges =  -0.00000
 Mulliken charges with hydrogens summed into heavy atoms:
               1
     1  C    0.055956
     2  C    0.052940
     3  C   -0.320360
     4  C    1.244338
     5  C   -0.213999
     6  C   -0.421751
     7  C   -0.558038
     8  C    0.920443
     9  C   -0.036683
    10  O   -0.396602
    11  C    0.597499
    12  C   -0.599255
    13  C    0.671352
    14  C    0.329282
    15  C   -0.419833
    16  C   -0.395866
    17  O   -0.130992
    18  O   -0.134785
    19  O   -0.137565
    20  O   -0.130226
    21  C   -0.254263
    22  C   -0.445371
    23  C    0.378102
    24  C    0.751024
    25  C   -0.750357
    26  C    0.504173
    27  O   -0.399603
    28  C   -0.104587
    29  C    0.986214
    30  C   -0.566117
    31  C   -0.459029
    32  C   -0.182239
    33  C    1.231748
    34  C   -0.341127
    35  C    0.070677
    36  C    0.056232
    37  O   -0.441699
    38  C    0.308303
    39  O   -0.344811
    40  C    0.257233
    41  O   -0.346793
    42  C    0.253597
    43  O   -0.443587
    44  C    0.306424
 Electronic spatial extent (au):  <R**2>=          40172.3726
 Charge=             -0.0000 electrons
 Dipole moment (field-independent basis, Debye):
    X=              1.4750    Y=             -1.6916    Z=             -3.6087  Tot=              4.2497
 Quadrupole moment (field-independent basis, Debye-Ang):
   XX=           -290.1422   YY=           -226.4940   ZZ=           -240.9713
   XY=              6.1651   XZ=            -45.2355   YZ=              1.0954
 Traceless Quadrupole moment (field-independent basis, Debye-Ang):
   XX=            -37.6064   YY=             26.0419   ZZ=             11.5645
   XY=              6.1651   XZ=            -45.2355   YZ=              1.0954
 Octapole moment (field-independent basis, Debye-Ang**2):
  XXX=            355.2655  YYY=             14.5041  ZZZ=            -25.8689  XYY=             40.6492
  XXY=           -208.4732  XXZ=            -21.7606  XZZ=           -197.6566  YZZ=              3.9699
  YYZ=            -40.7323  XYZ=             43.4113
 Hexadecapole moment (field-independent basis, Debye-Ang**3):
 XXXX=         -41276.8229 YYYY=          -4764.9569 ZZZZ=          -4033.2884 XXXY=           -838.8144
 XXXZ=          -3720.4152 YYYX=            388.4348 YYYZ=             49.4745 ZZZX=           -785.8426
 ZZZY=              3.9195 XXYY=          -8204.3444 XXZZ=          -7280.9284 YYZZ=          -1714.9666
 XXYZ=             36.7119 YYXZ=             69.0401 ZZXY=             83.5906
 N-N= 5.142784942008D+03 E-N=-1.511804809647D+04  KE= 2.059474201501D+03
 Unable to Open any file for archive entry.
 1\1\GINC-C01B01N02\SP\RmPW1PW91\6-311+G(2d,p)\C34H34O10\ROOT\25-Sep-20
 25\0\\# mPW1PW91/6-311+g(2d,p) NMR scrf(SMD,solvent=dmso) geom=connect
 ivity\\58RS\\0,1\C,0,8.936038,-1.183567,1.796841\C,0,8.876698,-1.29994
 9,0.401987\C,0,7.724351,-0.884237,-0.261516\C,0,6.624187,-0.345513,0.4
 13065\C,0,6.715148,-0.232756,1.812379\C,0,7.858048,-0.650293,2.501901\
 C,0,5.371785,0.080457,-0.320158\C,0,4.186673,0.197986,0.654416\C,0,4.6
 55704,0.965086,1.893882\O,0,5.699314,0.256426,2.583503\C,0,2.949915,0.
 80195,0.026458\C,0,1.779456,0.045278,-0.078422\C,0,0.596174,0.528727,-
 0.654774\C,0,0.595042,1.845003,-1.151541\C,0,1.749543,2.624868,-1.0549
 14\C,0,2.915779,2.115506,-0.466034\O,0,10.02831,-1.574933,2.518547\O,0
 ,4.012382,2.923949,-0.399771\O,0,-4.023199,-2.718836,-1.083311\O,0,-10
 .16845,1.154343,2.400576\C,0,-2.929654,-1.913337,-0.958503\C,0,-1.6923
 69,-2.399515,-1.404942\C,0,-0.538206,-1.618798,-1.309752\C,0,-0.611575
 ,-0.326442,-0.758072\C,0,-1.863915,0.134061,-0.327205\C,0,-3.03446,-0.
 624851,-0.412767\O,0,-6.551893,0.782593,-0.579628\C,0,-5.395967,0.0517
 79,-1.022945\C,0,-4.344232,-0.054295,0.085137\C,0,-4.953721,-0.841625,
 1.258223\C,0,-8.334293,0.932092,0.933496\C,0,-7.058732,0.438564,0.6413
 06\C,0,-6.344732,-0.337555,1.572372\C,0,-6.963739,-0.602193,2.798136\C
 ,0,-8.236068,-0.127947,3.109758\C,0,-8.920623,0.649211,2.166299\O,0,1.
 837897,3.902768,-1.567693\C,0,1.055788,4.885598,-0.860219\O,0,-0.52117
 7,2.403651,-1.731096\C,0,-0.706815,2.025295,-3.102013\O,0,0.647825,-2.
 154473,-1.757152\C,0,1.031243,-1.698628,-3.061916\O,0,-1.707808,-3.652
 546,-1.98256\C,0,-1.018256,-4.668257,-1.227031\H,0,9.715774,-1.716839,
 -0.149768\H,0,7.671249,-0.986856,-1.343113\H,0,7.900671,-0.554668,3.58
 184\H,0,5.528578,1.046841,-0.813165\H,0,5.133311,-0.641735,-1.109509\H
 ,0,3.921816,-0.810427,0.994195\H,0,5.020586,1.961031,1.620162\H,0,3.85
 0759,1.070887,2.624525\H,0,1.790314,-0.970914,0.300187\H,0,10.699744,-
 1.916628,1.902276\H,0,3.750693,3.756118,-0.843683\H,0,-3.699402,-3.532
 754,-1.520102\H,0,-10.453655,0.874073,3.287976\H,0,-1.928817,1.131304,
 0.094098\H,0,-5.014944,0.611495,-1.880047\H,0,-5.708797,-0.942868,-1.3
 58698\H,0,-4.146879,0.969247,0.425615\H,0,-4.311301,-0.749157,2.141492
 \H,0,-4.983903,-1.906398,0.99987\H,0,-8.861982,1.530324,0.198051\H,0,-
 6.425426,-1.194436,3.534795\H,0,-8.691046,-0.348439,4.072391\H,0,1.296
 57,5.849236,-1.31437\H,0,-0.01108,4.677213,-0.9708\H,0,1.325114,4.9009
 93,0.202432\H,0,0.161655,2.314756,-3.705615\H,0,-0.875785,0.946815,-3.
 196388\H,0,-1.591031,2.562772,-3.452225\H,0,1.957036,-2.222684,-3.3103
 58\H,0,0.260072,-1.945374,-3.801361\H,0,1.212583,-0.618158,-3.067766\H
 ,0,0.053801,-4.459833,-1.19552\H,0,-1.416977,-4.728359,-0.207512\H,0,-
 1.200198,-5.610314,-1.748829\\Version=ES64L-G16RevC.02\State=1-A\HF=-2
 068.4231781\RMSD=3.757e-09\Dipole=0.580324,-0.665509,-1.419769\Quadrup
 ole=-27.9594105,19.3614778,8.5979328,4.5835913,-33.6314982,0.8144372\P
 G=C01 [X(C34H34O10)]\\@
 The archive entry for this job was punched.


 IT WAS A GAME, A VERY INTERESTING GAME ONE COULD
 PLAY.  WHENEVER ONE SOLVED ONE OF THE LITTLE PROBLEMS,
 ONE COULD WRITE A PAPER ABOUT IT.  IT WAS VERY EASY IN
 THOSE DAYS FOR ANY SECOND-RATE PHYSICIST TO DO
 FIRST-RATE WORK.  THERE HAS NOT BEEN SUCH A GLORIOUS
 TIME SINCE.  IT IS VERY DIFFICULT NOW FOR A FIRST-RATE
 PHYSICIST TO DO SECOND-RATE WORK.
     P.A.M. DIRAC, ON THE EARLY DAYS OF QUANTUM MECHANICS
                   DIRECTIONS IN PHYSICS, 1978, P. 7
 Job cpu time:       0 days  8 hours 45 minutes 42.0 seconds.
 Elapsed time:       0 days  0 hours 11 minutes 45.4 seconds.
 File lengths (MBytes):  RWF=   1618 Int=      0 D2E=      0 Chk=    151 Scr=      1
 Normal termination of Gaussian 16 at Thu Sep 25 21:20:55 2025.
