 Entering Gaussian System, Link 0=/home/tupf/tupf_yangsy/lustre1/g16/Gaussian16_AVX2/g16/g16
 Input=58RS_15.gjf
 Output=58RS_15.log
 Initial command:
 /home/tupf/tupf_yangsy/lustre1/g16/Gaussian16_AVX2/g16/l1.exe "/home/tupf/tupf_yangsy/lustre1/g16/tmp/Gau-1707982.inp" -scrdir="/home/tupf/tupf_yangsy/lustre1/g16/tmp/"
 Entering Link 1 = /home/tupf/tupf_yangsy/lustre1/g16/Gaussian16_AVX2/g16/l1.exe PID=   1707983.
  
 Copyright (c) 1988-2021, Gaussian, Inc.  All Rights Reserved.
  
 This is part of the Gaussian(R) 16 program.  It is based on
 the Gaussian(R) 09 system (copyright 2009, Gaussian, Inc.),
 the Gaussian(R) 03 system (copyright 2003, Gaussian, Inc.),
 the Gaussian(R) 98 system (copyright 1998, Gaussian, Inc.),
 the Gaussian(R) 94 system (copyright 1995, Gaussian, Inc.),
 the Gaussian 92(TM) system (copyright 1992, Gaussian, Inc.),
 the Gaussian 90(TM) system (copyright 1990, Gaussian, Inc.),
 the Gaussian 88(TM) system (copyright 1988, Gaussian, Inc.),
 the Gaussian 86(TM) system (copyright 1986, Carnegie Mellon
 University), and the Gaussian 82(TM) system (copyright 1983,
 Carnegie Mellon University). Gaussian is a federally registered
 trademark of Gaussian, Inc.
  
 This software contains proprietary and confidential information,
 including trade secrets, belonging to Gaussian, Inc.
  
 This software is provided under written license and may be
 used, copied, transmitted, or stored only in accord with that
 written license.
  
 The following legend is applicable only to US Government
 contracts under FAR:
  
                    RESTRICTED RIGHTS LEGEND
  
 Use, reproduction and disclosure by the US Government is
 subject to restrictions as set forth in subparagraphs (a)
 and (c) of the Commercial Computer Software - Restricted
 Rights clause in FAR 52.227-19.
  
 Gaussian, Inc.
 340 Quinnipiac St., Bldg. 40, Wallingford CT 06492
  
  
 ---------------------------------------------------------------
 Warning -- This program may not be used in any manner that
 competes with the business of Gaussian, Inc. or will provide
 assistance to any competitor of Gaussian, Inc.  The licensee
 of this program is prohibited from giving any competitor of
 Gaussian, Inc. access to this program.  By using this program,
 the user acknowledges that Gaussian, Inc. is engaged in the
 business of creating and licensing software in the field of
 computational chemistry and represents and warrants to the
 licensee that it is not a competitor of Gaussian, Inc. and that
 it will not use this program in any manner prohibited above.
 ---------------------------------------------------------------
  

 Cite this work as:
 Gaussian 16, Revision C.02,
 M. J. Frisch, G. W. Trucks, H. B. Schlegel, G. E. Scuseria, 
 M. A. Robb, J. R. Cheeseman, G. Scalmani, V. Barone, 
 G. A. Petersson, H. Nakatsuji, X. Li, M. Caricato, A. V. Marenich, 
 J. Bloino, B. G. Janesko, R. Gomperts, B. Mennucci, H. P. Hratchian, 
 J. V. Ortiz, A. F. Izmaylov, J. L. Sonnenberg, D. Williams-Young, 
 F. Ding, F. Lipparini, F. Egidi, J. Goings, B. Peng, A. Petrone, 
 T. Henderson, D. Ranasinghe, V. G. Zakrzewski, J. Gao, N. Rega, 
 G. Zheng, W. Liang, M. Hada, M. Ehara, K. Toyota, R. Fukuda, 
 J. Hasegawa, M. Ishida, T. Nakajima, Y. Honda, O. Kitao, H. Nakai, 
 T. Vreven, K. Throssell, J. A. Montgomery, Jr., J. E. Peralta, 
 F. Ogliaro, M. J. Bearpark, J. J. Heyd, E. N. Brothers, K. N. Kudin, 
 V. N. Staroverov, T. A. Keith, R. Kobayashi, J. Normand, 
 K. Raghavachari, A. P. Rendell, J. C. Burant, S. S. Iyengar, 
 J. Tomasi, M. Cossi, J. M. Millam, M. Klene, C. Adamo, R. Cammi, 
 J. W. Ochterski, R. L. Martin, K. Morokuma, O. Farkas, 
 J. B. Foresman, and D. J. Fox, Gaussian, Inc., Wallingford CT, 2019.
 
 ******************************************
 Gaussian 16:  ES64L-G16RevC.02  7-Dec-2021
                25-Sep-2025 
 ******************************************
 %mem=400GB
 %nprocshared=64
 Will use up to   64 processors via shared memory.
 ---------------------------------------------------------------------
 # mPW1PW91/6-311+g(2d,p) NMR scrf(SMD,solvent=dmso) geom=connectivity
 ---------------------------------------------------------------------
 1/38=1,57=2,172=1/1;
 2/12=2,17=6,18=5,40=1/2;
 3/5=4,6=6,7=112,11=2,25=1,30=1,70=32201,72=21,74=-7/1,2,3,8;
 4//1;
 5/5=2,38=5,53=21/2;
 8/6=1,10=90,11=11/1;
 10/13=100,45=16/2;
 6/7=2,8=2,9=2,10=2,28=1/1;
 99/9=1/99;
 ----
 58RS
 ----
 Symbolic Z-matrix:
 Charge =  0 Multiplicity = 1
 C                     1.74415  -2.89992  -0.45636 
 C                     1.52339  -2.68905  -1.82537 
 C                     0.24379  -2.882    -2.34305 
 C                    -0.83006  -3.29832  -1.55054 
 C                    -0.5764   -3.53147  -0.18667 
 C                     0.69718  -3.33516   0.35767 
 C                    -2.24479  -3.36655  -2.08794 
 C                    -3.26972  -3.22746  -0.94973 
 C                    -2.84349  -4.21085   0.14968 
 O                    -1.55319  -3.89164   0.69618 
 C                    -3.40585  -1.82251  -0.38886 
 C                    -2.43094  -0.84024  -0.55758 
 C                    -2.48776   0.42588   0.04031 
 C                    -3.5977    0.74136   0.84214 
 C                    -4.60025  -0.22237   1.01584 
 C                    -4.5048   -1.48633   0.41342 
 O                     2.96119  -2.69846   0.12649 
 O                    -5.49378  -2.39737   0.63617 
 O                     2.15438   3.51619  -0.90644 
 O                     8.47861  -1.22253   1.10654 
 C                     1.04475   2.7767   -0.61992 
 C                    -0.21715   3.34667  -0.85285 
 C                    -1.3927    2.62041  -0.62975 
 C                    -1.31057   1.31344  -0.12497 
 C                    -0.03721   0.78173   0.12361 
 C                     1.1525    1.47259  -0.11728 
 O                     4.26654  -0.46719  -0.99499 
 C                     3.18123   0.46479  -1.2069 
 C                     2.46947   0.76708   0.11339 
 C                     3.45966   1.48707   1.04168 
 C                     6.34842  -0.82982   0.03333 
 C                     5.13098  -0.14407   0.03263 
 C                     4.79833   0.77959   1.03319 
 C                     5.75307   0.9998    2.03526 
 C                     6.97626   0.33874   2.05895 
 C                     7.27175  -0.58763   1.05017 
 O                    -5.71915  -0.01523   1.80393 
 C                    -5.4335    0.01995   3.21692 
 O                    -3.62864   1.93779   1.50629 
 C                    -4.75867   2.77987   1.23353 
 O                    -2.61498   3.17592  -0.92079 
 C                    -2.87962   3.30641  -2.3255 
 O                    -0.20623   4.62037  -1.38772 
 C                    -0.80334   5.63001  -0.54934 
 H                     2.33955  -2.37353  -2.46885 
 H                     0.06405  -2.68043  -3.39671 
 H                     0.85876  -3.49128   1.41923 
 H                    -2.39281  -2.58586  -2.84211 
 H                    -2.42307  -4.32591  -2.59055 
 H                    -4.24986  -3.56344  -1.30491 
 H                    -3.52628  -4.19057   1.00029 
 H                    -2.81565  -5.23025  -0.25802 
 H                    -1.57006  -1.0527   -1.17618 
 H                     3.49254  -2.09534  -0.43591 
 H                    -6.15204  -1.94088   1.19754 
 H                     1.82027   4.36677  -1.25644 
 H                     8.54583  -1.83686   0.35423 
 H                     0.02943  -0.23289   0.50537 
 H                     2.51839  -0.02698  -1.91935 
 H                     3.58631   1.37662  -1.65909 
 H                     2.23486  -0.2042    0.56197 
 H                     3.06052   1.51649   2.06197 
 H                     3.57837   2.52633   0.7173 
 H                     6.55915  -1.53884  -0.76307 
 H                     5.51854   1.70759   2.82689 
 H                     7.69973   0.52052   2.84712 
 H                    -6.39682   0.12214   3.7208 
 H                    -4.94596  -0.90939   3.53357 
 H                    -4.79284   0.87163   3.46225 
 H                    -4.94617   2.83244   0.15765 
 H                    -5.65687   2.42762   1.74918 
 H                    -4.48962   3.77248   1.60123 
 H                    -3.8835    3.72847  -2.40896 
 H                    -2.15901   3.97499  -2.80717 
 H                    -2.85434   2.32463  -2.81362 
 H                    -1.87436   5.4489   -0.43034 
 H                    -0.31838   5.64715   0.4334 
 H                    -0.63939   6.58178  -1.05867 
 
 Stoichiometry    C34H34O10
 Framework group  C1[X(C34H34O10)]
 Deg. of freedom   228
 Full point group                 C1      NOp   1
 Largest Abelian subgroup         C1      NOp   1
 Largest concise Abelian subgroup C1      NOp   1
                         Standard orientation:                         
 ---------------------------------------------------------------------
 Center     Atomic      Atomic             Coordinates (Angstroms)
 Number     Number       Type             X           Y           Z
 ---------------------------------------------------------------------
      1          6           0        1.744152   -2.899916   -0.456362
      2          6           0        1.523393   -2.689050   -1.825365
      3          6           0        0.243794   -2.882003   -2.343047
      4          6           0       -0.830061   -3.298324   -1.550539
      5          6           0       -0.576395   -3.531466   -0.186665
      6          6           0        0.697175   -3.335159    0.357672
      7          6           0       -2.244789   -3.366546   -2.087940
      8          6           0       -3.269721   -3.227456   -0.949727
      9          6           0       -2.843491   -4.210848    0.149679
     10          8           0       -1.553193   -3.891641    0.696179
     11          6           0       -3.405846   -1.822514   -0.388858
     12          6           0       -2.430940   -0.840238   -0.557577
     13          6           0       -2.487759    0.425881    0.040309
     14          6           0       -3.597696    0.741355    0.842136
     15          6           0       -4.600245   -0.222371    1.015844
     16          6           0       -4.504797   -1.486329    0.413421
     17          8           0        2.961192   -2.698464    0.126485
     18          8           0       -5.493784   -2.397365    0.636168
     19          8           0        2.154384    3.516190   -0.906440
     20          8           0        8.478615   -1.222531    1.106535
     21          6           0        1.044751    2.776697   -0.619922
     22          6           0       -0.217153    3.346668   -0.852852
     23          6           0       -1.392702    2.620407   -0.629748
     24          6           0       -1.310566    1.313442   -0.124968
     25          6           0       -0.037213    0.781734    0.123612
     26          6           0        1.152504    1.472592   -0.117279
     27          8           0        4.266545   -0.467187   -0.994994
     28          6           0        3.181228    0.464787   -1.206901
     29          6           0        2.469466    0.767082    0.113391
     30          6           0        3.459661    1.487074    1.041680
     31          6           0        6.348423   -0.829817    0.033334
     32          6           0        5.130981   -0.144068    0.032629
     33          6           0        4.798325    0.779590    1.033188
     34          6           0        5.753071    0.999800    2.035259
     35          6           0        6.976260    0.338744    2.058954
     36          6           0        7.271753   -0.587631    1.050167
     37          8           0       -5.719150   -0.015233    1.803928
     38          6           0       -5.433502    0.019947    3.216923
     39          8           0       -3.628637    1.937788    1.506289
     40          6           0       -4.758667    2.779866    1.233526
     41          8           0       -2.614975    3.175916   -0.920786
     42          6           0       -2.879620    3.306407   -2.325495
     43          8           0       -0.206231    4.620372   -1.387723
     44          6           0       -0.803340    5.630006   -0.549338
     45          1           0        2.339549   -2.373527   -2.468849
     46          1           0        0.064053   -2.680425   -3.396708
     47          1           0        0.858760   -3.491282    1.419230
     48          1           0       -2.392806   -2.585860   -2.842111
     49          1           0       -2.423067   -4.325914   -2.590553
     50          1           0       -4.249857   -3.563437   -1.304914
     51          1           0       -3.526284   -4.190571    1.000285
     52          1           0       -2.815654   -5.230247   -0.258019
     53          1           0       -1.570058   -1.052703   -1.176184
     54          1           0        3.492540   -2.095344   -0.435914
     55          1           0       -6.152037   -1.940880    1.197542
     56          1           0        1.820266    4.366767   -1.256437
     57          1           0        8.545828   -1.836860    0.354232
     58          1           0        0.029434   -0.232894    0.505366
     59          1           0        2.518386   -0.026975   -1.919351
     60          1           0        3.586311    1.376615   -1.659089
     61          1           0        2.234862   -0.204203    0.561972
     62          1           0        3.060522    1.516488    2.061967
     63          1           0        3.578366    2.526329    0.717304
     64          1           0        6.559146   -1.538844   -0.763067
     65          1           0        5.518542    1.707589    2.826887
     66          1           0        7.699726    0.520518    2.847116
     67          1           0       -6.396824    0.122138    3.720801
     68          1           0       -4.945956   -0.909392    3.533567
     69          1           0       -4.792836    0.871633    3.462247
     70          1           0       -4.946174    2.832440    0.157653
     71          1           0       -5.656874    2.427619    1.749184
     72          1           0       -4.489615    3.772483    1.601229
     73          1           0       -3.883497    3.728470   -2.408961
     74          1           0       -2.159013    3.974987   -2.807173
     75          1           0       -2.854340    2.324632   -2.813617
     76          1           0       -1.874357    5.448895   -0.430336
     77          1           0       -0.318384    5.647149    0.433404
     78          1           0       -0.639390    6.581779   -1.058672
 ---------------------------------------------------------------------
 Rotational constants (GHZ):           0.1049588           0.0522043           0.0401366
 Standard basis: 6-311+G(2d,p) (5D, 7F)
 There are  1480 symmetry adapted cartesian basis functions of A   symmetry.
 There are  1392 symmetry adapted basis functions of A   symmetry.
  1392 basis functions,  2120 primitive gaussians,  1480 cartesian basis functions
   159 alpha electrons      159 beta electrons
       nuclear repulsion energy      5576.6212263436 Hartrees.
 NAtoms=   78 NActive=   78 NUniq=   78 SFac= 1.00D+00 NAtFMM=   60 NAOKFM=T Big=T
 Integral buffers will be    131072 words long.
 Raffenetti 2 integral format.
 Two-electron integral symmetry is turned on.
 ------------------------------------------------------------------------------
 Polarizable Continuum Model (PCM)
 =================================
 Model                : PCM.
 Atomic radii         : SMD-Coulomb.
 Polarization charges : Total charges.
 Charge compensation  : None.
 Solution method      : On-the-fly selection.
 Cavity type          : VdW (van der Waals Surface) (Alpha=1.000).
 Cavity algorithm     : GePol (No added spheres)
                        Default sphere list used, NSphG=   78.
                        Lebedev-Laikov grids with approx.  5.0 points / Ang**2.
                        Smoothing algorithm: York/Karplus (Gamma=1.0000).
                        Polarization charges: spherical gaussians, with
                                              point-specific exponents (IZeta= 3).
                        Self-potential: point-specific (ISelfS= 7).
                        Self-field    : sphere-specific E.n sum rule (ISelfD= 2).
 Solvent              : DiMethylSulfoxide, Eps=  46.826000 Eps(inf)=   2.185371
 ------------------------------------------------------------------------------
 ------------------------------------------------------------------------------
 Atomic radii for non-electrostatic terms: SMD-CDS.
 ------------------------------------------------------------------------------
 Nuclear repulsion after PCM non-electrostatic terms =     5576.6171958363 Hartrees.
 One-electron integrals computed using PRISM.
 NBasis=  1392 RedAO= T EigKep=  1.15D-06  NBF=  1392
 NBsUse=  1378 1.00D-06 EigRej=  9.42D-07 NBFU=  1378
 ExpMin= 4.38D-02 ExpMax= 8.59D+03 ExpMxC= 1.30D+03 IAcc=3 IRadAn=         5 AccDes= 0.00D+00
 Harris functional with IExCor=  908 and IRadAn=       5 diagonalized for initial guess.
 HarFok:  IExCor=  908 AccDes= 0.00D+00 IRadAn=         5 IDoV= 1 UseB2=F ITyADJ=14
 ICtDFT=  3500011 ScaDFX=  1.000000  1.000000  1.000000  1.000000
 FoFCou: FMM=F IPFlag=           0 FMFlag=      100000 FMFlg1=        2001
         NFxFlg=           0 DoJE=T BraDBF=F KetDBF=T FulRan=T
         wScrn=  0.000000 ICntrl=       500 IOpCl=  0 I1Cent=   200000004 NGrid=           0
         NMat0=    1 NMatS0=      1 NMatT0=    0 NMatD0=    1 NMtDS0=    0 NMtDT0=    0
 Petite list used in FoFCou.
 Requested convergence on RMS density matrix=1.00D-08 within 128 cycles.
 Requested convergence on MAX density matrix=1.00D-06.
 Requested convergence on             energy=1.00D-06.
 No special actions if energy rises.
 Inv3:  Mode=1 IEnd=    84047547.
 Iteration    1 A*A^-1 deviation from unit magnitude is 3.33D-15 for   2684.
 Iteration    1 A*A^-1 deviation from orthogonality  is 2.66D-15 for   3367    262.
 Iteration    1 A^-1*A deviation from unit magnitude is 3.55D-15 for   2684.
 Iteration    1 A^-1*A deviation from orthogonality  is 2.89D-15 for   4270   2471.
 Error on total polarization charges =  0.05092
 SCF Done:  E(RmPW1PW91) =  -2068.42004488     A.U. after   14 cycles
            NFock= 14  Conv=0.37D-08     -V/T= 2.0043
 SMD-CDS (non-electrostatic) energy       (kcal/mol) =      -2.53
 (included in total energy above)
 DoSCS=F DFT=T ScalE2(SS,OS)=  1.000000  1.000000
 Range of M.O.s used for correlation:     1  1378
 NBasis=  1392 NAE=   159 NBE=   159 NFC=     0 NFV=     0
 NROrb=   1378 NOA=   159 NOB=   159 NVA=  1219 NVB=  1219

 **** Warning!!: The largest alpha MO coefficient is  0.10095029D+03

 NEqPCM:  Using equilibrium solvation (IEInf=0, Eps=  46.8260, EpsInf=   2.1854)
          Differentiating once with respect to magnetic field using GIAOs.
          Electric field/nuclear overlap derivatives assumed to be zero.
 FoFJK:  IHMeth= 1 ICntrl=    6127 DoSepK=F KAlg= 0 I1Cent=           0 FoldK=F
 IRaf=         1 NMat=       1 IRICut=       1 DoRegI=T DoRafI=F ISym2E= 0 IDoP0=0 IntGTp=1.
          There are     3 degrees of freedom in the 1st order CPHF.  IDoFFX=0 NUNeed=     3.
      3 vectors produced by pass  0 Test12= 6.46D-12 3.33D-08 XBig12= 3.43D+03 6.77D+00.
 AX will form     3 AO Fock derivatives at one time.
      3 vectors produced by pass  1 Test12= 6.46D-12 3.33D-08 XBig12= 9.19D+00 4.75D-01.
      3 vectors produced by pass  2 Test12= 6.46D-12 3.33D-08 XBig12= 3.95D-02 4.03D-02.
      3 vectors produced by pass  3 Test12= 6.46D-12 3.33D-08 XBig12= 1.93D-04 2.23D-03.
      3 vectors produced by pass  4 Test12= 6.46D-12 3.33D-08 XBig12= 6.95D-07 1.19D-04.
      3 vectors produced by pass  5 Test12= 6.46D-12 3.33D-08 XBig12= 2.50D-09 8.19D-06.
      3 vectors produced by pass  6 Test12= 6.46D-12 3.33D-08 XBig12= 1.25D-11 5.67D-07.
 InvSVY:  IOpt=1 It=  1 EMax= 3.55D-15
 Solved reduced A of dimension    21 with     3 vectors.
 Calculating GIAO nuclear magnetic shielding tensors.
 SCF GIAO Magnetic shielding tensor (ppm):
      1  C    Isotropic =    22.9762   Anisotropy =   144.2415
   XX=   -41.0267   YX=   -38.5002   ZX=   -31.8209
   XY=   -39.2962   YY=   105.5974   ZY=    13.0550
   XZ=   -35.2555   YZ=    12.6554   ZZ=     4.3579
   Eigenvalues:   -63.8674    13.6588   119.1372
      2  C    Isotropic =    74.8168   Anisotropy =   133.9162
   XX=    28.9336   YX=   -36.7795   ZX=    31.8571
   XY=   -37.5758   YY=   148.2505   ZY=    34.2756
   XZ=    25.1615   YZ=    31.3082   ZZ=    47.2662
   Eigenvalues:    -7.5158    67.8719   164.0942
      3  C    Isotropic =    50.8816   Anisotropy =   170.2628
   XX=    44.4064   YX=   -25.1464   ZX=   -20.1316
   XY=   -27.2293   YY=   146.7978   ZY=    47.6547
   XZ=   -25.9428   YZ=    39.4033   ZZ=   -38.5595
   Eigenvalues:   -51.3582    39.6128   164.3901
      4  C    Isotropic =    66.2945   Anisotropy =   166.0553
   XX=     0.0154   YX=   -26.3210   ZX=   -27.9903
   XY=   -20.5132   YY=   168.9849   ZY=    14.7033
   XZ=   -16.9015   YZ=    32.6127   ZZ=    29.8833
   Eigenvalues:   -12.5612    34.4467   176.9980
      5  C    Isotropic =    23.1822   Anisotropy =   143.4474
   XX=   -27.4775   YX=   -37.0147   ZX=    24.9211
   XY=   -31.8121   YY=   106.2893   ZY=    28.2178
   XZ=    34.5711   YZ=    32.2737   ZZ=    -9.2654
   Eigenvalues:   -61.8880    12.6207   118.8138
      6  C    Isotropic =    79.6166   Anisotropy =   116.8182
   XX=    72.9198   YX=   -20.0475   ZX=   -12.8254
   XY=   -16.4726   YY=   150.5623   ZY=    11.8452
   XZ=   -12.6977   YZ=    23.5977   ZZ=    15.3676
   Eigenvalues:    11.2740    70.0803   157.4954
      7  C    Isotropic =   155.6112   Anisotropy =     7.9183
   XX=   157.7763   YX=    -3.5265   ZX=   -10.2933
   XY=     3.2301   YY=   158.3224   ZY=    -2.3466
   XZ=    -0.9530   YZ=     1.7521   ZZ=   150.7351
   Eigenvalues:   147.6110   158.3326   160.8901
      8  C    Isotropic =   152.6464   Anisotropy =    20.9071
   XX=   140.5931   YX=    -3.6221   ZX=     1.5979
   XY=     8.0447   YY=   165.2280   ZY=     6.7319
   XZ=     7.9160   YZ=     0.4296   ZZ=   152.1181
   Eigenvalues:   138.8534   152.5014   166.5845
      9  C    Isotropic =   115.1646   Anisotropy =    48.3715
   XX=   137.5108   YX=     7.7093   ZX=    18.8793
   XY=     9.5317   YY=   107.5765   ZY=     4.3019
   XZ=    19.4496   YZ=    -1.8679   ZZ=   100.4065
   Eigenvalues:    91.9343   106.1472   147.4123
     10  O    Isotropic =   216.2885   Anisotropy =   113.5921
   XX=   164.3523   YX=   -22.8156   ZX=   -46.7064
   XY=   -31.8449   YY=   271.6096   ZY=    42.2471
   XZ=   -71.4209   YZ=   -12.6240   ZZ=   212.9036
   Eigenvalues:   123.3027   233.5462   292.0166
     11  C    Isotropic =    58.9519   Anisotropy =   152.7576
   XX=    50.6977   YX=   -29.9222   ZX=    50.6442
   XY=   -10.6894   YY=    14.6765   ZY=   -52.8295
   XZ=    46.7020   YZ=   -55.0159   ZZ=   111.4814
   Eigenvalues:    -9.4215    25.4868   160.7903
     12  C    Isotropic =    53.2367   Anisotropy =   159.9920
   XX=    19.9350   YX=    -7.8105   ZX=    88.4262
   XY=    -2.4658   YY=    56.5679   ZY=   -48.3382
   XZ=    72.6495   YZ=   -57.6430   ZZ=    83.2073
   Eigenvalues:   -42.4901    42.3023   159.8981
     13  C    Isotropic =    59.7228   Anisotropy =   141.2936
   XX=    37.7182   YX=   -35.2806   ZX=    45.7790
   XY=   -58.8993   YY=    32.0475   ZY=   -26.5906
   XZ=    47.9700   YZ=   -38.0255   ZZ=   109.4028
   Eigenvalues:   -13.1233    38.3733   153.9186
     14  C    Isotropic =    31.6068   Anisotropy =   119.9457
   XX=    31.7978   YX=   -15.9046   ZX=    41.9447
   XY=   -18.4651   YY=     2.7334   ZY=   -40.0620
   XZ=    32.4959   YZ=   -63.3283   ZZ=    60.2893
   Eigenvalues:   -28.0118    11.2617   111.5706
     15  C    Isotropic =    42.1387   Anisotropy =   101.4650
   XX=    34.6368   YX=   -18.1375   ZX=    42.4368
   XY=   -10.0608   YY=    31.5716   ZY=   -30.5520
   XZ=    50.0463   YZ=   -31.9924   ZZ=    60.2076
   Eigenvalues:    -3.1073    19.7413   109.7820
     16  C    Isotropic =    32.5526   Anisotropy =   127.7669
   XX=    21.5662   YX=   -37.4661   ZX=    40.5070
   XY=   -47.4127   YY=     0.4450   ZY=   -21.9972
   XZ=    62.9512   YZ=    -7.3161   ZZ=    75.6465
   Eigenvalues:   -37.5081    17.4353   117.7305
     17  O    Isotropic =   204.8537   Anisotropy =    58.9547
   XX=   220.6741   YX=   -10.1336   ZX=    25.5969
   XY=   -17.8615   YY=   234.6554   ZY=     5.0128
   XZ=    13.0459   YZ=    35.9016   ZZ=   159.2317
   Eigenvalues:   147.2668   223.1375   244.1569
     18  O    Isotropic =   229.9949   Anisotropy =   115.0465
   XX=   232.9887   YX=    17.6509   ZX=    54.0245
   XY=   -24.9845   YY=   201.1724   ZY=   -23.3897
   XZ=    49.2946   YZ=   -50.0648   ZZ=   255.8237
   Eigenvalues:   172.3442   210.9481   306.6926
     19  O    Isotropic =   229.5572   Anisotropy =   109.6654
   XX=   199.4623   YX=    -9.2856   ZX=    -0.6472
   XY=    41.5325   YY=   211.1092   ZY=    36.9543
   XZ=    -3.7210   YZ=    57.1806   ZZ=   278.1002
   Eigenvalues:   176.4953   209.5089   302.6675
     20  O    Isotropic =   212.1369   Anisotropy =    62.7023
   XX=   241.5670   YX=   -18.8365   ZX=   -13.6103
   XY=   -23.5777   YY=   217.5854   ZY=   -28.8757
   XZ=   -18.8930   YZ=   -26.7589   ZZ=   177.2583
   Eigenvalues:   156.1178   226.3545   253.9385
     21  C    Isotropic =    32.3872   Anisotropy =   123.8593
   XX=   -17.0999   YX=   -20.0522   ZX=     8.4453
   XY=   -28.1134   YY=    14.5261   ZY=    40.7252
   XZ=    11.1331   YZ=    37.4777   ZZ=    99.7356
   Eigenvalues:   -36.1559    18.3575   114.9601
     22  C    Isotropic =    41.7557   Anisotropy =   104.6347
   XX=    18.4932   YX=     6.8313   ZX=    -5.9564
   XY=     0.8406   YY=    12.2782   ZY=    36.0081
   XZ=    -0.8790   YZ=    46.0902   ZZ=    94.4956
   Eigenvalues:    -5.6820    19.4368   111.5121
     23  C    Isotropic =    30.8958   Anisotropy =   118.9788
   XX=   -17.9360   YX=     3.6911   ZX=   -15.6666
   XY=    18.4520   YY=    20.2333   ZY=    40.6355
   XZ=   -28.7148   YZ=    38.6399   ZZ=    90.3899
   Eigenvalues:   -30.8182    13.2905   110.2149
     24  C    Isotropic =    55.6633   Anisotropy =   146.2962
   XX=    -1.7786   YX=   -35.0246   ZX=    -1.5070
   XY=   -21.4109   YY=    34.4434   ZY=    42.2199
   XZ=   -20.9076   YZ=    44.2897   ZZ=   134.3251
   Eigenvalues:   -18.1500    31.9458   153.1941
     25  C    Isotropic =    51.7748   Anisotropy =   136.2557
   XX=    53.2670   YX=     6.7461   ZX=    -5.8224
   XY=     5.4884   YY=   -14.3912   ZY=    66.4340
   XZ=   -17.6507   YZ=    59.3561   ZZ=   116.4486
   Eigenvalues:   -40.8015    53.5140   142.6119
     26  C    Isotropic =    60.4148   Anisotropy =   154.8569
   XX=     2.2750   YX=    24.4653   ZX=    -8.9019
   XY=     4.5235   YY=    37.2194   ZY=    51.9054
   XZ=    -2.8528   YZ=    53.3415   ZZ=   141.7499
   Eigenvalues:    -8.1492    25.7408   163.6527
     27  O    Isotropic =   209.7781   Anisotropy =    93.3572
   XX=   179.9483   YX=    64.2549   ZX=    -4.9833
   XY=    61.8874   YY=   222.9215   ZY=     9.3149
   XZ=     7.5168   YZ=   -43.7978   ZZ=   226.4645
   Eigenvalues:   133.4688   223.8493   272.0162
     28  C    Isotropic =   115.0731   Anisotropy =    61.1564
   XX=   131.4441   YX=   -35.1154   ZX=     5.8509
   XY=   -25.8341   YY=   116.0631   ZY=    -5.7415
   XZ=    -1.2364   YZ=    -8.4501   ZZ=    97.7121
   Eigenvalues:    89.9044    99.4709   155.8441
     29  C    Isotropic =   144.0083   Anisotropy =    32.5582
   XX=   146.4778   YX=    -6.4592   ZX=     0.9371
   XY=   -19.1362   YY=   153.9322   ZY=    -7.8541
   XZ=     1.3780   YZ=   -11.6941   ZZ=   131.6149
   Eigenvalues:   127.1225   139.1887   165.7137
     30  C    Isotropic =   156.9814   Anisotropy =    17.9887
   XX=   166.5595   YX=     1.6682   ZX=     6.1377
   XY=    -4.7211   YY=   150.3151   ZY=     1.1407
   XZ=     5.7012   YZ=     1.0823   ZZ=   154.0695
   Eigenvalues:   149.2330   152.7372   168.9738
     31  C    Isotropic =    80.7258   Anisotropy =   106.8890
   XX=    84.4833   YX=    34.3370   ZX=    -7.0241
   XY=    30.4027   YY=    90.5137   ZY=   -58.7950
   XZ=    -5.6781   YZ=   -59.5199   ZZ=    67.1803
   Eigenvalues:    14.6654    75.5268   151.9851
     32  C    Isotropic =    26.1745   Anisotropy =   131.7786
   XX=     2.5609   YX=    20.0365   ZX=   -57.9115
   XY=    19.9021   YY=    68.4647   ZY=   -48.2167
   XZ=   -61.4892   YZ=   -42.2875   ZZ=     7.4979
   Eigenvalues:   -57.3694    21.8661   114.0269
     33  C    Isotropic =    65.2435   Anisotropy =   161.4438
   XX=    17.9441   YX=    62.5751   ZX=   -28.9849
   XY=    48.8674   YY=    97.6810   ZY=   -67.5622
   XZ=   -25.9951   YZ=   -51.9075   ZZ=    80.1052
   Eigenvalues:   -10.8407    33.6984   172.8727
     34  C    Isotropic =    49.6574   Anisotropy =   172.4574
   XX=    55.9253   YX=    50.3021   ZX=   -15.8515
   XY=    56.0046   YY=    67.5025   ZY=   -89.2995
   XZ=   -13.2655   YZ=   -93.9999   ZZ=    25.5444
   Eigenvalues:   -52.4673    36.8105   164.6290
     35  C    Isotropic =    74.7819   Anisotropy =   140.7214
   XX=    50.0094   YX=    21.9228   ZX=   -59.9408
   XY=    25.9927   YY=   118.6388   ZY=   -47.2950
   XZ=   -57.0167   YZ=   -52.2447   ZZ=    55.6975
   Eigenvalues:    -8.4652    64.2147   168.5962
     36  C    Isotropic =    24.2936   Anisotropy =   139.7591
   XX=   -23.7982   YX=    65.0067   ZX=   -19.5584
   XY=    64.0069   YY=    49.2875   ZY=   -42.3911
   XZ=   -21.6342   YZ=   -40.7240   ZZ=    47.3915
   Eigenvalues:   -61.4976    16.9120   117.4663
     37  O    Isotropic =   281.8024   Anisotropy =    92.4957
   XX=   319.5841   YX=   -24.0141   ZX=    10.0332
   XY=   -30.5788   YY=   238.9990   ZY=   -43.6821
   XZ=    29.8339   YZ=   -19.0293   ZZ=   286.8240
   Eigenvalues:   220.7016   281.2393   343.4662
     38  C    Isotropic =   126.7017   Anisotropy =    91.1556
   XX=   100.8071   YX=    -3.5453   ZX=    11.7176
   XY=    -6.7733   YY=    92.8506   ZY=     3.1267
   XZ=     7.1097   YZ=    -1.1283   ZZ=   186.4476
   Eigenvalues:    90.0354   102.5977   187.4721
     39  O    Isotropic =   255.0422   Anisotropy =   108.9442
   XX=   207.9138   YX=    30.8584   ZX=    39.8412
   XY=     0.4172   YY=   256.7275   ZY=    -1.0700
   XZ=    70.3879   YZ=     9.0843   ZZ=   300.4851
   Eigenvalues:   180.1733   257.2816   327.6716
     40  C    Isotropic =   126.7187   Anisotropy =    87.2131
   XX=   144.1237   YX=   -44.9762   ZX=    13.3692
   XY=   -41.5976   YY=   132.9548   ZY=   -11.2189
   XZ=    12.0723   YZ=    -4.6355   ZZ=   103.0778
   Eigenvalues:    93.9881   101.3073   184.8608
     41  O    Isotropic =   262.5444   Anisotropy =    97.1176
   XX=   277.0013   YX=   -25.0253   ZX=   -10.4185
   XY=   -26.0564   YY=   230.1632   ZY=    63.3410
   XZ=   -25.3986   YZ=    35.1465   ZZ=   280.4687
   Eigenvalues:   197.8692   262.4746   327.2895
     42  C    Isotropic =   127.7681   Anisotropy =    89.0794
   XX=   104.1224   YX=    -4.9732   ZX=    19.9835
   XY=    -5.6804   YY=    98.9447   ZY=    -8.8219
   XZ=    24.0590   YZ=    -7.8069   ZZ=   180.2373
   Eigenvalues:    95.1000   101.0499   187.1544
     43  O    Isotropic =   279.5004   Anisotropy =    97.4449
   XX=   217.3364   YX=    31.3616   ZX=     4.5932
   XY=     3.8700   YY=   277.1587   ZY=     4.2916
   XZ=   -19.5865   YZ=    -0.2084   ZZ=   344.0061
   Eigenvalues:   212.0770   281.9606   344.4637
     44  C    Isotropic =   126.1879   Anisotropy =    92.8778
   XX=   103.8248   YX=   -30.1652   ZX=   -19.1722
   XY=   -24.2965   YY=   149.0104   ZY=    36.1496
   XZ=   -18.7908   YZ=    35.4991   ZZ=   125.7286
   Eigenvalues:    90.7161    99.7412   188.1065
     45  H    Isotropic =    24.8671   Anisotropy =     5.3031
   XX=    25.9084   YX=     1.0681   ZX=     2.1674
   XY=     1.1958   YY=    22.9917   ZY=     2.4908
   XZ=     0.9923   YZ=     1.8467   ZZ=    25.7012
   Eigenvalues:    21.7746    24.4242    28.4025
     46  H    Isotropic =    24.2463   Anisotropy =     6.3944
   XX=    27.7830   YX=     1.9178   ZX=    -1.3625
   XY=     2.2139   YY=    21.8994   ZY=     0.3441
   XZ=    -0.5824   YZ=     1.6999   ZZ=    23.0565
   Eigenvalues:    20.5837    23.6461    28.5093
     47  H    Isotropic =    25.1063   Anisotropy =     7.0066
   XX=    29.3882   YX=     1.5567   ZX=    -0.1069
   XY=     1.5564   YY=    23.3047   ZY=    -1.4890
   XZ=     0.3102   YZ=    -1.9829   ZZ=    22.6261
   Eigenvalues:    21.0537    24.4879    29.7774
     48  H    Isotropic =    28.6573   Anisotropy =     5.6590
   XX=    27.5236   YX=     0.7722   ZX=     0.9478
   XY=    -0.7835   YY=    27.1195   ZY=    -3.9715
   XZ=    -1.1406   YZ=    -0.8606   ZZ=    31.3290
   Eigenvalues:    26.0186    27.5235    32.4300
     49  H    Isotropic =    28.2322   Anisotropy =    10.3811
   XX=    26.9195   YX=     1.8674   ZX=     0.5452
   XY=     3.6095   YY=    28.9270   ZY=     5.5582
   XZ=     0.3902   YZ=     5.6821   ZZ=    28.8501
   Eigenvalues:    22.6095    26.9342    35.1529
     50  H    Isotropic =    28.0638   Anisotropy =     8.9118
   XX=    32.9222   YX=     1.6386   ZX=     0.5010
   XY=     2.9275   YY=    25.3805   ZY=     2.9844
   XZ=     1.2388   YZ=     3.9805   ZZ=    25.8886
   Eigenvalues:    22.0288    28.1576    34.0050
     51  H    Isotropic =    27.1177   Anisotropy =     6.6304
   XX=    29.9582   YX=    -0.6733   ZX=    -2.9542
   XY=     0.7346   YY=    25.6057   ZY=    -2.1766
   XZ=    -2.0505   YZ=    -4.2341   ZZ=    25.7893
   Eigenvalues:    22.0893    27.7259    31.5380
     52  H    Isotropic =    27.2382   Anisotropy =     9.2714
   XX=    26.2297   YX=     2.9341   ZX=     1.5590
   XY=     3.0107   YY=    32.1867   ZY=    -0.3823
   XZ=     1.1568   YZ=    -0.3636   ZZ=    23.2984
   Eigenvalues:    22.5112    25.7844    33.4192
     53  H    Isotropic =    24.9685   Anisotropy =    13.8338
   XX=    23.6370   YX=     1.6365   ZX=     0.0008
   XY=    -1.7808   YY=    33.2623   ZY=     1.2296
   XZ=     0.0570   YZ=     6.5227   ZZ=    18.0061
   Eigenvalues:    17.0774    23.6370    34.1910
     54  H    Isotropic =    24.5176   Anisotropy =    22.5288
   XX=    26.7409   YX=     9.0560   ZX=    -3.3025
   XY=    11.3307   YY=    28.6360   ZY=    -5.5203
   XZ=    -2.2402   YZ=    -5.2599   ZZ=    18.1758
   Eigenvalues:    15.4212    18.5947    39.5367
     55  H    Isotropic =    25.2940   Anisotropy =    15.0483
   XX=    27.4773   YX=    -1.5582   ZX=    -7.7179
   XY=    -0.6723   YY=    27.5056   ZY=     6.1121
   XZ=    -6.3948   YZ=     7.6222   ZZ=    20.8991
   Eigenvalues:    14.1790    26.3768    35.3262
     56  H    Isotropic =    25.5589   Anisotropy =    16.5010
   XX=    28.8352   YX=    -3.2539   ZX=     1.1839
   XY=    -5.5548   YY=    31.4133   ZY=    -6.6434
   XZ=     1.1783   YZ=    -6.5106   ZZ=    16.4283
   Eigenvalues:    13.9367    26.1805    36.5596
     57  H    Isotropic =    26.9056   Anisotropy =    12.3935
   XX=    26.7322   YX=    -4.8464   ZX=    -0.9467
   XY=    -3.5864   YY=    26.3257   ZY=     7.6851
   XZ=     0.9680   YZ=     6.5483   ZZ=    27.6590
   Eigenvalues:    18.5681    26.9807    35.1679
     58  H    Isotropic =    25.3455   Anisotropy =     9.5111
   XX=    31.5809   YX=     0.7628   ZX=    -1.1074
   XY=     0.1017   YY=    25.8030   ZY=     3.1031
   XZ=     2.6987   YZ=     1.1048   ZZ=    18.6524
   Eigenvalues:    18.0476    26.3026    31.6862
     59  H    Isotropic =    27.3323   Anisotropy =     3.6885
   XX=    27.8375   YX=    -0.1535   ZX=     2.5691
   XY=    -0.2544   YY=    28.3677   ZY=     0.9994
   XZ=     0.3433   YZ=     3.3477   ZZ=    25.7916
   Eigenvalues:    24.0529    28.1527    29.7913
     60  H    Isotropic =    27.1850   Anisotropy =     7.1687
   XX=    25.8205   YX=    -3.7902   ZX=    -1.3528
   XY=    -2.5553   YY=    29.3382   ZY=    -3.7476
   XZ=    -2.6454   YZ=    -2.7242   ZZ=    26.3963
   Eigenvalues:    21.4842    28.1066    31.9641
     61  H    Isotropic =    28.4796   Anisotropy =     9.6120
   XX=    29.8671   YX=     1.4283   ZX=    -0.3518
   XY=     5.0048   YY=    32.7876   ZY=     0.2360
   XZ=    -0.9149   YZ=    -0.7965   ZZ=    22.7840
   Eigenvalues:    22.7278    27.8233    34.8876
     62  H    Isotropic =    28.8841   Anisotropy =     6.9632
   XX=    29.5714   YX=    -1.1532   ZX=    -0.5942
   XY=     0.8005   YY=    24.0067   ZY=     1.8922
   XZ=     1.2581   YZ=     2.1542   ZZ=    33.0743
   Eigenvalues:    23.5660    29.5602    33.5263
     63  H    Isotropic =    27.8094   Anisotropy =     9.0763
   XX=    27.2174   YX=    -1.0271   ZX=     2.9370
   XY=    -1.2409   YY=    32.9735   ZY=    -1.1047
   XZ=     6.0351   YZ=    -1.9522   ZZ=    23.2372
   Eigenvalues:    20.2840    29.2838    33.8603
     64  H    Isotropic =    24.8396   Anisotropy =     7.9042
   XX=    29.3334   YX=    -1.7904   ZX=     1.9392
   XY=    -1.7697   YY=    22.1218   ZY=     0.5934
   XZ=     1.6611   YZ=     0.9791   ZZ=    23.0635
   Eigenvalues:    20.9520    23.4577    30.1091
     65  H    Isotropic =    24.0961   Anisotropy =     8.1569
   XX=    27.3147   YX=    -0.9449   ZX=     3.5828
   XY=    -1.3600   YY=    21.5013   ZY=     0.3392
   XZ=     3.6305   YZ=     0.9634   ZZ=    23.4722
   Eigenvalues:    20.2272    22.5271    29.5340
     66  H    Isotropic =    24.7230   Anisotropy =     4.1698
   XX=    26.0210   YX=    -2.2622   ZX=     0.1450
   XY=    -1.7560   YY=    24.0341   ZY=     2.4910
   XZ=     0.8749   YZ=     1.9860   ZZ=    24.1138
   Eigenvalues:    21.1474    25.5186    27.5028
     67  H    Isotropic =    27.6880   Anisotropy =    10.2671
   XX=    26.9971   YX=     0.2314   ZX=    -2.5115
   XY=    -0.1608   YY=    24.3483   ZY=     0.4457
   XZ=    -6.6233   YZ=     0.9637   ZZ=    31.7185
   Eigenvalues:    23.8666    24.6646    34.5327
     68  H    Isotropic =    28.2430   Anisotropy =     8.9541
   XX=    24.3024   YX=    -1.2620   ZX=     1.1470
   XY=    -0.0214   YY=    27.3557   ZY=    -1.5394
   XZ=     0.0835   YZ=    -3.8653   ZZ=    33.0708
   Eigenvalues:    24.1723    26.3442    34.2124
     69  H    Isotropic =    27.3264   Anisotropy =     7.6060
   XX=    24.1974   YX=     3.0677   ZX=     0.0624
   XY=     2.4928   YY=    25.7612   ZY=    -0.2497
   XZ=    -0.8748   YZ=     3.3736   ZZ=    32.0207
   Eigenvalues:    21.9294    27.6528    32.3971
     70  H    Isotropic =    27.9687   Anisotropy =     7.0601
   XX=    29.6603   YX=    -2.8763   ZX=     1.0873
   XY=    -2.8363   YY=    27.4919   ZY=    -4.0019
   XZ=    -1.5703   YZ=    -4.1038   ZZ=    26.7540
   Eigenvalues:    22.4045    28.8262    32.6754
     71  H    Isotropic =    27.0289   Anisotropy =     8.2002
   XX=    30.5210   YX=    -1.2345   ZX=    -3.9553
   XY=    -3.3271   YY=    28.5579   ZY=     0.2004
   XZ=    -2.3299   YZ=    -2.1116   ZZ=    22.0078
   Eigenvalues:    20.6282    27.9628    32.4957
     72  H    Isotropic =    27.8244   Anisotropy =     9.3144
   XX=    27.0156   YX=    -3.8864   ZX=    -2.2855
   XY=    -1.6492   YY=    32.3689   ZY=     2.1024
   XZ=    -2.2054   YZ=     0.7276   ZZ=    24.0888
   Eigenvalues:    22.8712    26.5681    34.0340
     73  H    Isotropic =    27.9138   Anisotropy =     9.7029
   XX=    29.1530   YX=    -2.2805   ZX=     2.2656
   XY=    -1.7352   YY=    25.8160   ZY=    -1.9840
   XZ=     5.4154   YZ=    -4.3936   ZZ=    28.7723
   Eigenvalues:    23.7290    25.6298    34.3824
     74  H    Isotropic =    27.4973   Anisotropy =     8.3598
   XX=    25.7408   YX=     1.2192   ZX=     1.9635
   XY=     2.9113   YY=    25.6934   ZY=    -1.8069
   XZ=     1.1280   YZ=    -5.8353   ZZ=    31.0578
   Eigenvalues:    21.9780    27.4435    33.0705
     75  H    Isotropic =    28.6161   Anisotropy =     8.0010
   XX=    24.4608   YX=     0.2867   ZX=     2.4639
   XY=     1.3940   YY=    28.3256   ZY=    -0.1742
   XZ=     2.8071   YZ=     1.5701   ZZ=    33.0619
   Eigenvalues:    23.6343    28.2638    33.9501
     76  H    Isotropic =    26.8941   Anisotropy =     7.5952
   XX=    28.8420   YX=     0.1779   ZX=    -1.2424
   XY=    -2.4453   YY=    29.8453   ZY=     2.0364
   XZ=    -3.7059   YZ=     3.5369   ZZ=    21.9950
   Eigenvalues:    20.5947    28.1302    31.9576
     77  H    Isotropic =    28.1450   Anisotropy =     9.4614
   XX=    26.0762   YX=    -0.7518   ZX=    -0.9028
   XY=    -0.0697   YY=    29.5061   ZY=     5.3548
   XZ=     1.3069   YZ=     5.1651   ZZ=    28.8529
   Eigenvalues:    23.8276    26.1548    34.4527
     78  H    Isotropic =    27.6351   Anisotropy =    10.2326
   XX=    24.9904   YX=    -1.9274   ZX=    -0.3058
   XY=    -0.4156   YY=    34.3045   ZY=    -1.4934
   XZ=    -0.9239   YZ=     1.9050   ZZ=    23.6104
   Eigenvalues:    23.3713    25.0773    34.4569
 End of Minotr F.D. properties file   721 does not exist.
 End of Minotr F.D. properties file   722 does not exist.
 End of Minotr F.D. properties file   788 does not exist.

 **********************************************************************

            Population analysis using the SCF Density.

 **********************************************************************

 Orbital symmetries:
       Occupied  (A) (A) (A) (A) (A) (A) (A) (A) (A) (A) (A) (A)
                 (A) (A) (A) (A) (A) (A) (A) (A) (A) (A) (A) (A)
                 (A) (A) (A) (A) (A) (A) (A) (A) (A) (A) (A) (A)
                 (A) (A) (A) (A) (A) (A) (A) (A) (A) (A) (A) (A)
                 (A) (A) (A) (A) (A) (A) (A) (A) (A) (A) (A) (A)
                 (A) (A) (A) (A) (A) (A) (A) (A) (A) (A) (A) (A)
                 (A) (A) (A) (A) (A) (A) (A) (A) (A) (A) (A) (A)
                 (A) (A) (A) (A) (A) (A) (A) (A) (A) (A) (A) (A)
                 (A) (A) (A) (A) (A) (A) (A) (A) (A) (A) (A) (A)
                 (A) (A) (A) (A) (A) (A) (A) (A) (A) (A) (A) (A)
                 (A) (A) (A) (A) (A) (A) (A) (A) (A) (A) (A) (A)
                 (A) (A) (A) (A) (A) (A) (A) (A) (A) (A) (A) (A)
                 (A) (A) (A) (A) (A) (A) (A) (A) (A) (A) (A) (A)
                 (A) (A) (A)
       Virtual   (A) (A) (A) (A) (A) (A) (A) (A) (A) (A) (A) (A)
                 (A) (A) (A) (A) (A) (A) (A) (A) (A) (A) (A) (A)
                 (A) (A) (A) (A) (A) (A) (A) (A) (A) (A) (A) (A)
                 (A) (A) (A) (A) (A) (A) (A) (A) (A) (A) (A) (A)
                 (A) (A) (A) (A) (A) (A) (A) (A) (A) (A) (A) (A)
                 (A) (A) (A) (A) (A) (A) (A) (A) (A) (A) (A) (A)
                 (A) (A) (A) (A) (A) (A) (A) (A) (A) (A) (A) (A)
                 (A) (A) (A) (A) (A) (A) (A) (A) (A) (A) (A) (A)
                 (A) (A) (A) (A) (A) (A) (A) (A) (A) (A) (A) (A)
                 (A) (A) (A) (A) (A) (A) (A) (A) (A) (A) (A) (A)
                 (A) (A) (A) (A) (A) (A) (A) (A) (A) (A) (A) (A)
                 (A) (A) (A) (A) (A) (A) (A) (A) (A) (A) (A) (A)
                 (A) (A) (A) (A) (A) (A) (A) (A) (A) (A) (A) (A)
                 (A) (A) (A) (A) (A) (A) (A) (A) (A) (A) (A) (A)
                 (A) (A) (A) (A) (A) (A) (A) (A) (A) (A) (A) (A)
                 (A) (A) (A) (A) (A) (A) (A) (A) (A) (A) (A) (A)
                 (A) (A) (A) (A) (A) (A) (A) (A) (A) (A) (A) (A)
                 (A) (A) (A) (A) (A) (A) (A) (A) (A) (A) (A) (A)
                 (A) (A) (A) (A) (A) (A) (A) (A) (A) (A) (A) (A)
                 (A) (A) (A) (A) (A) (A) (A) (A) (A) (A) (A) (A)
                 (A) (A) (A) (A) (A) (A) (A) (A) (A) (A) (A) (A)
                 (A) (A) (A) (A) (A) (A) (A) (A) (A) (A) (A) (A)
                 (A) (A) (A) (A) (A) (A) (A) (A) (A) (A) (A) (A)
                 (A) (A) (A) (A) (A) (A) (A) (A) (A) (A) (A) (A)
                 (A) (A) (A) (A) (A) (A) (A) (A) (A) (A) (A) (A)
                 (A) (A) (A) (A) (A) (A) (A) (A) (A) (A) (A) (A)
                 (A) (A) (A) (A) (A) (A) (A) (A) (A) (A) (A) (A)
                 (A) (A) (A) (A) (A) (A) (A) (A) (A) (A) (A) (A)
                 (A) (A) (A) (A) (A) (A) (A) (A) (A) (A) (A) (A)
                 (A) (A) (A) (A) (A) (A) (A) (A) (A) (A) (A) (A)
                 (A) (A) (A) (A) (A) (A) (A) (A) (A) (A) (A) (A)
                 (A) (A) (A) (A) (A) (A) (A) (A) (A) (A) (A) (A)
                 (A) (A) (A) (A) (A) (A) (A) (A) (A) (A) (A) (A)
                 (A) (A) (A) (A) (A) (A) (A) (A) (A) (A) (A) (A)
                 (A) (A) (A) (A) (A) (A) (A) (A) (A) (A) (A) (A)
                 (A) (A) (A) (A) (A) (A) (A) (A) (A) (A) (A) (A)
                 (A) (A) (A) (A) (A) (A) (A) (A) (A) (A) (A) (A)
                 (A) (A) (A) (A) (A) (A) (A) (A) (A) (A) (A) (A)
                 (A) (A) (A) (A) (A) (A) (A) (A) (A) (A) (A) (A)
                 (A) (A) (A) (A) (A) (A) (A) (A) (A) (A) (A) (A)
                 (A) (A) (A) (A) (A) (A) (A) (A) (A) (A) (A) (A)
                 (A) (A) (A) (A) (A) (A) (A) (A) (A) (A) (A) (A)
                 (A) (A) (A) (A) (A) (A) (A) (A) (A) (A) (A) (A)
                 (A) (A) (A) (A) (A) (A) (A) (A) (A) (A) (A) (A)
                 (A) (A) (A) (A) (A) (A) (A) (A) (A) (A) (A) (A)
                 (A) (A) (A) (A) (A) (A) (A) (A) (A) (A) (A) (A)
                 (A) (A) (A) (A) (A) (A) (A) (A) (A) (A) (A) (A)
                 (A) (A) (A) (A) (A) (A) (A) (A) (A) (A) (A) (A)
                 (A) (A) (A) (A) (A) (A) (A) (A) (A) (A) (A) (A)
                 (A) (A) (A) (A) (A) (A) (A) (A) (A) (A) (A) (A)
                 (A) (A) (A) (A) (A) (A) (A) (A) (A) (A) (A) (A)
                 (A) (A) (A) (A) (A) (A) (A) (A) (A) (A) (A) (A)
                 (A) (A) (A) (A) (A) (A) (A) (A) (A) (A) (A) (A)
                 (A) (A) (A) (A) (A) (A) (A) (A) (A) (A) (A) (A)
                 (A) (A) (A) (A) (A) (A) (A) (A) (A) (A) (A) (A)
                 (A) (A) (A) (A) (A) (A) (A) (A) (A) (A) (A) (A)
                 (A) (A) (A) (A) (A) (A) (A) (A) (A) (A) (A) (A)
                 (A) (A) (A) (A) (A) (A) (A) (A) (A) (A) (A) (A)
                 (A) (A) (A) (A) (A) (A) (A) (A) (A) (A) (A) (A)
                 (A) (A) (A) (A) (A) (A) (A) (A) (A) (A) (A) (A)
                 (A) (A) (A) (A) (A) (A) (A) (A) (A) (A) (A) (A)
                 (A) (A) (A) (A) (A) (A) (A) (A) (A) (A) (A) (A)
                 (A) (A) (A) (A) (A) (A) (A) (A) (A) (A) (A) (A)
                 (A) (A) (A) (A) (A) (A) (A) (A) (A) (A) (A) (A)
                 (A) (A) (A) (A) (A) (A) (A) (A) (A) (A) (A) (A)
                 (A) (A) (A) (A) (A) (A) (A) (A) (A) (A) (A) (A)
                 (A) (A) (A) (A) (A) (A) (A) (A) (A) (A) (A) (A)
                 (A) (A) (A) (A) (A) (A) (A) (A) (A) (A) (A) (A)
                 (A) (A) (A) (A) (A) (A) (A) (A) (A) (A) (A) (A)
                 (A) (A) (A) (A) (A) (A) (A) (A) (A) (A) (A) (A)
                 (A) (A) (A) (A) (A) (A) (A) (A) (A) (A) (A) (A)
                 (A) (A) (A) (A) (A) (A) (A) (A) (A) (A) (A) (A)
                 (A) (A) (A) (A) (A) (A) (A) (A) (A) (A) (A) (A)
                 (A) (A) (A) (A) (A) (A) (A) (A) (A) (A) (A) (A)
                 (A) (A) (A) (A) (A) (A) (A) (A) (A) (A) (A) (A)
                 (A) (A) (A) (A) (A) (A) (A) (A) (A) (A) (A) (A)
                 (A) (A) (A) (A) (A) (A) (A) (A) (A) (A) (A) (A)
                 (A) (A) (A) (A) (A) (A) (A) (A) (A) (A) (A) (A)
                 (A) (A) (A) (A) (A) (A) (A) (A) (A) (A) (A) (A)
                 (A) (A) (A) (A) (A) (A) (A) (A) (A) (A) (A) (A)
                 (A) (A) (A) (A) (A) (A) (A) (A) (A) (A) (A) (A)
                 (A) (A) (A) (A) (A) (A) (A) (A) (A) (A) (A) (A)
                 (A) (A) (A) (A) (A) (A) (A) (A) (A) (A) (A) (A)
                 (A) (A) (A) (A) (A) (A) (A) (A) (A) (A) (A) (A)
                 (A) (A) (A) (A) (A) (A) (A) (A) (A) (A) (A) (A)
                 (A) (A) (A) (A) (A) (A) (A) (A) (A) (A) (A) (A)
                 (A) (A) (A) (A) (A) (A) (A) (A) (A) (A) (A) (A)
                 (A) (A) (A) (A) (A) (A) (A) (A) (A) (A) (A) (A)
                 (A) (A) (A) (A) (A) (A) (A) (A) (A) (A) (A) (A)
                 (A) (A) (A) (A) (A) (A) (A) (A) (A) (A) (A) (A)
                 (A) (A) (A) (A) (A) (A) (A) (A) (A) (A) (A) (A)
                 (A) (A) (A) (A) (A) (A) (A) (A) (A) (A) (A) (A)
                 (A) (A) (A) (A) (A) (A) (A) (A) (A) (A) (A) (A)
                 (A) (A) (A) (A) (A) (A) (A) (A) (A) (A) (A) (A)
                 (A) (A) (A) (A) (A) (A) (A) (A) (A) (A) (A) (A)
                 (A) (A) (A) (A) (A) (A) (A) (A) (A) (A) (A) (A)
                 (A) (A) (A) (A) (A) (A) (A) (A) (A) (A) (A) (A)
                 (A) (A) (A) (A) (A) (A) (A) (A) (A) (A) (A) (A)
                 (A) (A) (A) (A) (A) (A) (A) (A) (A) (A) (A) (A)
                 (A) (A) (A) (A) (A) (A) (A) (A) (A) (A) (A) (A)
                 (A) (A) (A) (A) (A) (A) (A) (A) (A) (A) (A) (A)
                 (A) (A) (A) (A) (A) (A) (A)
 The electronic state is 1-A.
 Alpha  occ. eigenvalues --  -19.25952 -19.25175 -19.25144 -19.25092 -19.25050
 Alpha  occ. eigenvalues --  -19.24970 -19.24567 -19.23778 -19.23717 -19.23628
 Alpha  occ. eigenvalues --  -10.30398 -10.30321 -10.30276 -10.30012 -10.29782
 Alpha  occ. eigenvalues --  -10.29766 -10.29748 -10.29727 -10.29374 -10.29133
 Alpha  occ. eigenvalues --  -10.28453 -10.28106 -10.27360 -10.27333 -10.26992
 Alpha  occ. eigenvalues --  -10.26630 -10.24764 -10.24761 -10.24735 -10.24711
 Alpha  occ. eigenvalues --  -10.24546 -10.24383 -10.24327 -10.24109 -10.23820
 Alpha  occ. eigenvalues --  -10.23752 -10.23723 -10.23641 -10.23431 -10.23385
 Alpha  occ. eigenvalues --  -10.23316 -10.23136 -10.22858 -10.22755  -1.11168
 Alpha  occ. eigenvalues --   -1.11017  -1.10325  -1.09434  -1.09402  -1.08962
 Alpha  occ. eigenvalues --   -1.08627  -1.08015  -1.07323  -1.07088  -0.89735
 Alpha  occ. eigenvalues --   -0.88376  -0.88136  -0.87690  -0.84499  -0.83644
 Alpha  occ. eigenvalues --   -0.79902  -0.78744  -0.78135  -0.78063  -0.77613
 Alpha  occ. eigenvalues --   -0.75738  -0.75648  -0.75115  -0.72564  -0.71210
 Alpha  occ. eigenvalues --   -0.69958  -0.69777  -0.69438  -0.68480  -0.66227
 Alpha  occ. eigenvalues --   -0.65847  -0.65290  -0.64493  -0.63049  -0.62022
 Alpha  occ. eigenvalues --   -0.61862  -0.60694  -0.58517  -0.58449  -0.57952
 Alpha  occ. eigenvalues --   -0.56878  -0.56838  -0.55249  -0.54049  -0.53683
 Alpha  occ. eigenvalues --   -0.53001  -0.52648  -0.51889  -0.51350  -0.50535
 Alpha  occ. eigenvalues --   -0.50401  -0.50256  -0.49449  -0.49139  -0.48793
 Alpha  occ. eigenvalues --   -0.48454  -0.48063  -0.47374  -0.47050  -0.46794
 Alpha  occ. eigenvalues --   -0.46534  -0.46216  -0.45637  -0.45153  -0.45144
 Alpha  occ. eigenvalues --   -0.44505  -0.44342  -0.44293  -0.43944  -0.43910
 Alpha  occ. eigenvalues --   -0.43418  -0.43131  -0.42817  -0.42482  -0.42051
 Alpha  occ. eigenvalues --   -0.41786  -0.41600  -0.41358  -0.40963  -0.40624
 Alpha  occ. eigenvalues --   -0.40259  -0.40145  -0.39955  -0.39189  -0.39086
 Alpha  occ. eigenvalues --   -0.38647  -0.37534  -0.37306  -0.37064  -0.36729
 Alpha  occ. eigenvalues --   -0.36548  -0.36112  -0.35609  -0.35094  -0.34476
 Alpha  occ. eigenvalues --   -0.34350  -0.34021  -0.33950  -0.33364  -0.32569
 Alpha  occ. eigenvalues --   -0.32356  -0.32107  -0.31825  -0.31396  -0.28812
 Alpha  occ. eigenvalues --   -0.28676  -0.25557  -0.25013  -0.24655  -0.24618
 Alpha  occ. eigenvalues --   -0.24445  -0.23028  -0.22221  -0.21714
 Alpha virt. eigenvalues --   -0.01730  -0.01365  -0.01153  -0.00823  -0.00421
 Alpha virt. eigenvalues --    0.00184   0.00378   0.00803   0.00931   0.01203
 Alpha virt. eigenvalues --    0.01621   0.01839   0.02231   0.02427   0.02629
 Alpha virt. eigenvalues --    0.02874   0.02962   0.03104   0.03528   0.03922
 Alpha virt. eigenvalues --    0.04015   0.04284   0.04495   0.04703   0.04961
 Alpha virt. eigenvalues --    0.05198   0.05260   0.05834   0.06071   0.06351
 Alpha virt. eigenvalues --    0.06574   0.06614   0.06835   0.06934   0.07227
 Alpha virt. eigenvalues --    0.07465   0.08172   0.08231   0.08477   0.08792
 Alpha virt. eigenvalues --    0.08987   0.09186   0.09516   0.09712   0.09866
 Alpha virt. eigenvalues --    0.10173   0.10375   0.10820   0.10956   0.11179
 Alpha virt. eigenvalues --    0.11764   0.11812   0.11948   0.12064   0.12123
 Alpha virt. eigenvalues --    0.12355   0.12450   0.12748   0.12839   0.13037
 Alpha virt. eigenvalues --    0.13472   0.13579   0.13702   0.13777   0.14107
 Alpha virt. eigenvalues --    0.14429   0.14522   0.14753   0.14959   0.15251
 Alpha virt. eigenvalues --    0.15292   0.15399   0.15660   0.15914   0.16014
 Alpha virt. eigenvalues --    0.16140   0.16275   0.16448   0.16535   0.16737
 Alpha virt. eigenvalues --    0.16844   0.17090   0.17282   0.17410   0.17754
 Alpha virt. eigenvalues --    0.17793   0.17919   0.18078   0.18223   0.18404
 Alpha virt. eigenvalues --    0.18562   0.18802   0.18951   0.19033   0.19366
 Alpha virt. eigenvalues --    0.19441   0.19528   0.19774   0.19943   0.20193
 Alpha virt. eigenvalues --    0.20358   0.20431   0.20487   0.20595   0.20867
 Alpha virt. eigenvalues --    0.21072   0.21188   0.21471   0.21506   0.21585
 Alpha virt. eigenvalues --    0.21732   0.21944   0.22183   0.22436   0.22565
 Alpha virt. eigenvalues --    0.22701   0.22755   0.23160   0.23228   0.23334
 Alpha virt. eigenvalues --    0.23432   0.23674   0.23818   0.24040   0.24345
 Alpha virt. eigenvalues --    0.24370   0.24425   0.24491   0.24621   0.24974
 Alpha virt. eigenvalues --    0.25120   0.25301   0.25430   0.25532   0.25579
 Alpha virt. eigenvalues --    0.25901   0.26111   0.26148   0.26400   0.26534
 Alpha virt. eigenvalues --    0.26668   0.26880   0.27086   0.27384   0.27573
 Alpha virt. eigenvalues --    0.27825   0.27907   0.28070   0.28351   0.28469
 Alpha virt. eigenvalues --    0.28535   0.28581   0.28836   0.28875   0.29169
 Alpha virt. eigenvalues --    0.29362   0.29443   0.29632   0.29806   0.29894
 Alpha virt. eigenvalues --    0.30150   0.30181   0.30322   0.30489   0.30556
 Alpha virt. eigenvalues --    0.30640   0.30940   0.31147   0.31381   0.31405
 Alpha virt. eigenvalues --    0.31703   0.31906   0.32008   0.32174   0.32373
 Alpha virt. eigenvalues --    0.32581   0.32876   0.33197   0.33365   0.33715
 Alpha virt. eigenvalues --    0.33897   0.34146   0.34208   0.34285   0.34396
 Alpha virt. eigenvalues --    0.34560   0.34742   0.35154   0.35273   0.35479
 Alpha virt. eigenvalues --    0.35672   0.36008   0.36050   0.36257   0.36532
 Alpha virt. eigenvalues --    0.36865   0.37209   0.37393   0.37398   0.37542
 Alpha virt. eigenvalues --    0.37895   0.37975   0.38019   0.38334   0.38538
 Alpha virt. eigenvalues --    0.38966   0.39160   0.39336   0.39588   0.39690
 Alpha virt. eigenvalues --    0.40035   0.40276   0.40505   0.40656   0.40752
 Alpha virt. eigenvalues --    0.41059   0.41197   0.41433   0.41496   0.41813
 Alpha virt. eigenvalues --    0.42185   0.42239   0.42480   0.42722   0.42815
 Alpha virt. eigenvalues --    0.42936   0.43318   0.43494   0.44111   0.44309
 Alpha virt. eigenvalues --    0.44695   0.44747   0.44837   0.45162   0.45573
 Alpha virt. eigenvalues --    0.46190   0.46264   0.46816   0.47301   0.47498
 Alpha virt. eigenvalues --    0.47834   0.48125   0.48430   0.48851   0.49046
 Alpha virt. eigenvalues --    0.49387   0.49565   0.50146   0.50747   0.51049
 Alpha virt. eigenvalues --    0.51512   0.51798   0.52198   0.52579   0.52907
 Alpha virt. eigenvalues --    0.53142   0.53487   0.53806   0.53939   0.54185
 Alpha virt. eigenvalues --    0.54414   0.54727   0.54826   0.55095   0.55697
 Alpha virt. eigenvalues --    0.55938   0.56035   0.56362   0.56612   0.56730
 Alpha virt. eigenvalues --    0.56804   0.56929   0.57877   0.58066   0.58290
 Alpha virt. eigenvalues --    0.58495   0.58802   0.59342   0.59398   0.59850
 Alpha virt. eigenvalues --    0.60255   0.60407   0.60681   0.60926   0.61228
 Alpha virt. eigenvalues --    0.61354   0.61544   0.62192   0.62265   0.62569
 Alpha virt. eigenvalues --    0.62996   0.63168   0.63264   0.63547   0.63850
 Alpha virt. eigenvalues --    0.64154   0.64176   0.64752   0.65029   0.65371
 Alpha virt. eigenvalues --    0.65581   0.65822   0.66044   0.66234   0.66652
 Alpha virt. eigenvalues --    0.66775   0.67129   0.67333   0.67603   0.67685
 Alpha virt. eigenvalues --    0.68030   0.68153   0.68313   0.68425   0.68591
 Alpha virt. eigenvalues --    0.68905   0.69172   0.69309   0.69509   0.69645
 Alpha virt. eigenvalues --    0.70090   0.70207   0.70412   0.70564   0.70938
 Alpha virt. eigenvalues --    0.70984   0.71251   0.71485   0.71694   0.71834
 Alpha virt. eigenvalues --    0.72011   0.72180   0.72618   0.72761   0.73230
 Alpha virt. eigenvalues --    0.73434   0.73630   0.73928   0.74166   0.74778
 Alpha virt. eigenvalues --    0.74945   0.74998   0.75103   0.75576   0.75632
 Alpha virt. eigenvalues --    0.75933   0.76279   0.76472   0.76778   0.76839
 Alpha virt. eigenvalues --    0.76956   0.77301   0.77542   0.77747   0.78097
 Alpha virt. eigenvalues --    0.78198   0.78695   0.78782   0.79068   0.79406
 Alpha virt. eigenvalues --    0.79477   0.79500   0.80033   0.80150   0.80408
 Alpha virt. eigenvalues --    0.80599   0.80917   0.81455   0.81630   0.81806
 Alpha virt. eigenvalues --    0.81889   0.82142   0.82379   0.82892   0.83077
 Alpha virt. eigenvalues --    0.83395   0.83479   0.83763   0.83983   0.84317
 Alpha virt. eigenvalues --    0.84791   0.85007   0.85428   0.85636   0.85792
 Alpha virt. eigenvalues --    0.86021   0.86220   0.86482   0.86548   0.86851
 Alpha virt. eigenvalues --    0.87145   0.87465   0.87776   0.88361   0.88637
 Alpha virt. eigenvalues --    0.89052   0.89424   0.89697   0.89795   0.90113
 Alpha virt. eigenvalues --    0.90364   0.90858   0.90934   0.91032   0.91596
 Alpha virt. eigenvalues --    0.91734   0.92072   0.92352   0.92919   0.93086
 Alpha virt. eigenvalues --    0.93877   0.93919   0.94258   0.94447   0.94576
 Alpha virt. eigenvalues --    0.95194   0.95837   0.95914   0.96162   0.96466
 Alpha virt. eigenvalues --    0.97523   0.97655   0.97990   0.98080   0.98316
 Alpha virt. eigenvalues --    0.98968   0.99631   1.00090   1.00538   1.00905
 Alpha virt. eigenvalues --    1.01498   1.01692   1.02258   1.02575   1.02834
 Alpha virt. eigenvalues --    1.03329   1.04087   1.04096   1.04404   1.04580
 Alpha virt. eigenvalues --    1.04656   1.05534   1.05737   1.06243   1.06522
 Alpha virt. eigenvalues --    1.06975   1.07567   1.07669   1.07913   1.08451
 Alpha virt. eigenvalues --    1.08877   1.09029   1.09369   1.09874   1.10262
 Alpha virt. eigenvalues --    1.10728   1.11046   1.11196   1.11627   1.11847
 Alpha virt. eigenvalues --    1.12618   1.12725   1.13173   1.13346   1.13982
 Alpha virt. eigenvalues --    1.14246   1.14950   1.15220   1.15346   1.15574
 Alpha virt. eigenvalues --    1.16168   1.16601   1.16886   1.17136   1.17297
 Alpha virt. eigenvalues --    1.17563   1.17788   1.18182   1.18611   1.18975
 Alpha virt. eigenvalues --    1.19340   1.19461   1.19792   1.20032   1.20182
 Alpha virt. eigenvalues --    1.20502   1.20988   1.21588   1.22051   1.22268
 Alpha virt. eigenvalues --    1.22924   1.23270   1.23464   1.23871   1.23959
 Alpha virt. eigenvalues --    1.24227   1.24353   1.24607   1.25165   1.25723
 Alpha virt. eigenvalues --    1.25877   1.26303   1.26723   1.26886   1.27240
 Alpha virt. eigenvalues --    1.27678   1.27884   1.28186   1.28629   1.28952
 Alpha virt. eigenvalues --    1.29383   1.29941   1.30232   1.30519   1.31121
 Alpha virt. eigenvalues --    1.31705   1.31926   1.32215   1.32589   1.32918
 Alpha virt. eigenvalues --    1.33029   1.33283   1.33544   1.33961   1.34482
 Alpha virt. eigenvalues --    1.34822   1.34916   1.35068   1.35637   1.35897
 Alpha virt. eigenvalues --    1.36486   1.36660   1.36963   1.37664   1.38015
 Alpha virt. eigenvalues --    1.38067   1.38392   1.39392   1.39500   1.40210
 Alpha virt. eigenvalues --    1.40275   1.40543   1.40654   1.41129   1.41353
 Alpha virt. eigenvalues --    1.41829   1.41965   1.42617   1.42974   1.43440
 Alpha virt. eigenvalues --    1.43756   1.44211   1.44746   1.45181   1.45375
 Alpha virt. eigenvalues --    1.46025   1.46131   1.46659   1.46969   1.47236
 Alpha virt. eigenvalues --    1.47899   1.48375   1.48586   1.49110   1.49317
 Alpha virt. eigenvalues --    1.49407   1.49770   1.50459   1.51105   1.51362
 Alpha virt. eigenvalues --    1.51748   1.52115   1.52189   1.52734   1.53203
 Alpha virt. eigenvalues --    1.53520   1.53840   1.54256   1.54972   1.55103
 Alpha virt. eigenvalues --    1.55908   1.56561   1.56992   1.57190   1.57844
 Alpha virt. eigenvalues --    1.58505   1.58715   1.59158   1.59303   1.59818
 Alpha virt. eigenvalues --    1.61000   1.61213   1.61741   1.62144   1.62792
 Alpha virt. eigenvalues --    1.63356   1.63652   1.64225   1.64576   1.64757
 Alpha virt. eigenvalues --    1.66026   1.66280   1.66919   1.67624   1.68416
 Alpha virt. eigenvalues --    1.68554   1.69703   1.70459   1.70930   1.71173
 Alpha virt. eigenvalues --    1.71862   1.71960   1.72737   1.73619   1.73992
 Alpha virt. eigenvalues --    1.74458   1.75307   1.75371   1.75743   1.75983
 Alpha virt. eigenvalues --    1.76363   1.77126   1.77593   1.78121   1.78343
 Alpha virt. eigenvalues --    1.78674   1.78952   1.79607   1.79774   1.80892
 Alpha virt. eigenvalues --    1.81082   1.81695   1.81849   1.82538   1.83089
 Alpha virt. eigenvalues --    1.83683   1.84106   1.84680   1.85419   1.86503
 Alpha virt. eigenvalues --    1.87067   1.87317   1.88224   1.88719   1.88967
 Alpha virt. eigenvalues --    1.89445   1.90028   1.90510   1.91188   1.91956
 Alpha virt. eigenvalues --    1.93595   1.94194   1.94722   1.94749   1.95241
 Alpha virt. eigenvalues --    1.95763   1.96375   1.97101   1.97384   1.97598
 Alpha virt. eigenvalues --    1.98287   1.98491   1.99118   1.99952   2.00122
 Alpha virt. eigenvalues --    2.00559   2.00689   2.01098   2.01221   2.02375
 Alpha virt. eigenvalues --    2.02661   2.03019   2.04154   2.04620   2.05164
 Alpha virt. eigenvalues --    2.05242   2.05842   2.06366   2.06745   2.07054
 Alpha virt. eigenvalues --    2.07662   2.08393   2.09372   2.09899   2.10340
 Alpha virt. eigenvalues --    2.10823   2.11733   2.12320   2.13527   2.14588
 Alpha virt. eigenvalues --    2.15436   2.15984   2.18021   2.18672   2.19406
 Alpha virt. eigenvalues --    2.20264   2.20552   2.21375   2.22814   2.23224
 Alpha virt. eigenvalues --    2.23748   2.24175   2.25644   2.26009   2.26155
 Alpha virt. eigenvalues --    2.26908   2.27304   2.27517   2.28415   2.29522
 Alpha virt. eigenvalues --    2.30035   2.30100   2.30964   2.31393   2.32077
 Alpha virt. eigenvalues --    2.32299   2.32789   2.32904   2.33101   2.33896
 Alpha virt. eigenvalues --    2.34353   2.34939   2.35159   2.36305   2.36670
 Alpha virt. eigenvalues --    2.36913   2.38803   2.39141   2.39758   2.40388
 Alpha virt. eigenvalues --    2.40855   2.40925   2.41494   2.42152   2.42280
 Alpha virt. eigenvalues --    2.42939   2.43646   2.43825   2.44463   2.44789
 Alpha virt. eigenvalues --    2.45204   2.46191   2.46398   2.46545   2.47061
 Alpha virt. eigenvalues --    2.47234   2.48044   2.48351   2.48932   2.49361
 Alpha virt. eigenvalues --    2.50132   2.50398   2.51592   2.52222   2.53148
 Alpha virt. eigenvalues --    2.53380   2.54141   2.55941   2.57019   2.58003
 Alpha virt. eigenvalues --    2.58712   2.59411   2.60211   2.61039   2.61910
 Alpha virt. eigenvalues --    2.62632   2.62699   2.63888   2.64249   2.64650
 Alpha virt. eigenvalues --    2.66008   2.66761   2.67990   2.68397   2.68732
 Alpha virt. eigenvalues --    2.70441   2.70766   2.71120   2.72084   2.72881
 Alpha virt. eigenvalues --    2.73085   2.75430   2.75779   2.75950   2.76953
 Alpha virt. eigenvalues --    2.77357   2.77605   2.78427   2.79434   2.79799
 Alpha virt. eigenvalues --    2.80393   2.80813   2.80945   2.81977   2.82291
 Alpha virt. eigenvalues --    2.82998   2.84505   2.84845   2.85256   2.86633
 Alpha virt. eigenvalues --    2.87726   2.88556   2.88704   2.89292   2.89588
 Alpha virt. eigenvalues --    2.90972   2.91638   2.93139   2.93679   2.94672
 Alpha virt. eigenvalues --    2.95468   2.95888   2.96625   2.97180   2.98274
 Alpha virt. eigenvalues --    2.98849   2.99112   2.99341   2.99921   3.00464
 Alpha virt. eigenvalues --    3.01230   3.01958   3.02053   3.03042   3.03185
 Alpha virt. eigenvalues --    3.03328   3.03813   3.04800   3.04940   3.05360
 Alpha virt. eigenvalues --    3.05579   3.06527   3.07190   3.07594   3.08038
 Alpha virt. eigenvalues --    3.08954   3.09569   3.09762   3.10388   3.10746
 Alpha virt. eigenvalues --    3.11489   3.12189   3.13093   3.14535   3.15128
 Alpha virt. eigenvalues --    3.15416   3.16001   3.16771   3.17490   3.18090
 Alpha virt. eigenvalues --    3.18458   3.19617   3.20283   3.20666   3.20794
 Alpha virt. eigenvalues --    3.21761   3.22426   3.23502   3.24013   3.24764
 Alpha virt. eigenvalues --    3.25178   3.26154   3.26295   3.26782   3.27745
 Alpha virt. eigenvalues --    3.28524   3.28796   3.29026   3.29177   3.29760
 Alpha virt. eigenvalues --    3.30379   3.30627   3.31351   3.32160   3.33164
 Alpha virt. eigenvalues --    3.33700   3.34561   3.35067   3.35517   3.35576
 Alpha virt. eigenvalues --    3.35885   3.36187   3.36833   3.37259   3.38051
 Alpha virt. eigenvalues --    3.38476   3.38851   3.39191   3.39812   3.40368
 Alpha virt. eigenvalues --    3.40577   3.41034   3.41316   3.41732   3.42233
 Alpha virt. eigenvalues --    3.42646   3.42917   3.43263   3.43915   3.44673
 Alpha virt. eigenvalues --    3.45293   3.45390   3.45982   3.46221   3.46613
 Alpha virt. eigenvalues --    3.46821   3.47999   3.48175   3.48532   3.48598
 Alpha virt. eigenvalues --    3.48920   3.49479   3.50191   3.50391   3.50895
 Alpha virt. eigenvalues --    3.51336   3.51972   3.52092   3.52245   3.52661
 Alpha virt. eigenvalues --    3.53031   3.54028   3.54163   3.54683   3.55507
 Alpha virt. eigenvalues --    3.56235   3.56570   3.57111   3.57201   3.57734
 Alpha virt. eigenvalues --    3.58297   3.59106   3.59298   3.59628   3.60216
 Alpha virt. eigenvalues --    3.60525   3.61101   3.61652   3.61890   3.62299
 Alpha virt. eigenvalues --    3.62392   3.62883   3.63350   3.63571   3.64147
 Alpha virt. eigenvalues --    3.64555   3.65142   3.65414   3.66248   3.66647
 Alpha virt. eigenvalues --    3.67110   3.67326   3.67816   3.67877   3.68399
 Alpha virt. eigenvalues --    3.68843   3.68974   3.69329   3.69712   3.69986
 Alpha virt. eigenvalues --    3.70531   3.70852   3.71198   3.72004   3.72116
 Alpha virt. eigenvalues --    3.72505   3.72896   3.73138   3.73499   3.73932
 Alpha virt. eigenvalues --    3.74322   3.74779   3.75858   3.76146   3.76710
 Alpha virt. eigenvalues --    3.76878   3.77494   3.78253   3.78450   3.79088
 Alpha virt. eigenvalues --    3.79838   3.80102   3.80400   3.80764   3.81633
 Alpha virt. eigenvalues --    3.82369   3.82946   3.83136   3.83512   3.83674
 Alpha virt. eigenvalues --    3.84263   3.84566   3.84903   3.85676   3.86307
 Alpha virt. eigenvalues --    3.86524   3.86773   3.87178   3.88279   3.88789
 Alpha virt. eigenvalues --    3.89384   3.90264   3.90839   3.90919   3.91223
 Alpha virt. eigenvalues --    3.91922   3.92316   3.92901   3.93895   3.94324
 Alpha virt. eigenvalues --    3.95638   3.96136   3.96560   3.96929   3.97223
 Alpha virt. eigenvalues --    3.97746   3.98093   3.99822   4.00581   4.00816
 Alpha virt. eigenvalues --    4.01889   4.02382   4.03015   4.03659   4.05746
 Alpha virt. eigenvalues --    4.05976   4.07953   4.08241   4.08967   4.09543
 Alpha virt. eigenvalues --    4.09895   4.10718   4.12294   4.12633   4.12803
 Alpha virt. eigenvalues --    4.13706   4.14531   4.15023   4.16566   4.18030
 Alpha virt. eigenvalues --    4.18825   4.19198   4.19949   4.20775   4.21062
 Alpha virt. eigenvalues --    4.21882   4.22738   4.23386   4.24533   4.24868
 Alpha virt. eigenvalues --    4.25236   4.27095   4.27637   4.27838   4.28246
 Alpha virt. eigenvalues --    4.30078   4.30140   4.31038   4.31846   4.32452
 Alpha virt. eigenvalues --    4.32650   4.33363   4.35178   4.37064   4.37299
 Alpha virt. eigenvalues --    4.43476   4.44053   4.46011   4.47050   4.47218
 Alpha virt. eigenvalues --    4.49109   4.50772   4.51623   4.53922   4.54594
 Alpha virt. eigenvalues --    4.55972   4.57733   4.62397   4.64160   4.68520
 Alpha virt. eigenvalues --    4.69600   4.71989   4.79397   4.80647   4.82463
 Alpha virt. eigenvalues --    4.83323   4.83623   4.86867   4.93114   4.94813
 Alpha virt. eigenvalues --    5.05454   5.06202   5.09994   5.12447   5.19710
 Alpha virt. eigenvalues --    5.22410   5.24863   5.25032   5.28266   5.29796
 Alpha virt. eigenvalues --    5.30805   5.31234   5.32475   5.39979   5.42207
 Alpha virt. eigenvalues --    5.46825   5.49854   5.54761   5.58437   5.58590
 Alpha virt. eigenvalues --    5.60232   5.60898   5.66714   5.72808   5.73637
 Alpha virt. eigenvalues --    5.84725   5.85521   5.92350   5.96221   5.97774
 Alpha virt. eigenvalues --    5.98211   6.01051   6.05038   6.05269   6.05935
 Alpha virt. eigenvalues --    6.87109   6.89832   6.91788   6.94827   6.98048
 Alpha virt. eigenvalues --    6.99129   6.99334   7.02034   7.03542   7.04250
 Alpha virt. eigenvalues --    7.05240   7.06005   7.06953   7.07710   7.07808
 Alpha virt. eigenvalues --    7.08821   7.09805   7.10433   7.10955   7.11849
 Alpha virt. eigenvalues --    7.12828   7.13039   7.14535   7.16302   7.18592
 Alpha virt. eigenvalues --    7.20842   7.21656   7.23671   7.25939   7.26888
 Alpha virt. eigenvalues --    7.31726   7.32547   7.34535   7.34648   7.37669
 Alpha virt. eigenvalues --    7.38641   7.39101   7.42061   7.42237   7.43844
 Alpha virt. eigenvalues --    7.46310   7.47016   7.48263   7.50564   7.55688
 Alpha virt. eigenvalues --    7.55948   7.58322   7.58575   7.59575   7.60323
 Alpha virt. eigenvalues --   23.78699  23.81694  23.83004  23.88312  24.01173
 Alpha virt. eigenvalues --   24.03675  24.06525  24.06934  24.07415  24.09444
 Alpha virt. eigenvalues --   24.09975  24.12011  24.12360  24.12827  24.13040
 Alpha virt. eigenvalues --   24.13884  24.14456  24.17773  24.17868  24.20806
 Alpha virt. eigenvalues --   24.22443  24.23009  24.24468  24.25527  24.29412
 Alpha virt. eigenvalues --   24.30182  24.31136  24.31483  24.34082  24.34424
 Alpha virt. eigenvalues --   24.36665  24.39269  24.41417  24.51666  50.10381
 Alpha virt. eigenvalues --   50.12403  50.12611  50.15153  50.16766  50.17428
 Alpha virt. eigenvalues --   50.20324  50.21732  50.22521  50.23280
          Condensed to atoms (all electrons):
 Mulliken charges:
               1
     1  C    0.054681
     2  C   -0.203218
     3  C    0.031442
     4  C    1.225095
     5  C   -0.273475
     6  C   -0.885516
     7  C   -0.961113
     8  C    0.060861
     9  C   -0.241574
    10  O   -0.313459
    11  C    0.779594
    12  C   -0.248414
    13  C    0.237202
    14  C   -0.090186
    15  C   -0.094961
    16  C   -0.071344
    17  O   -0.366924
    18  O   -0.496196
    19  O   -0.475142
    20  O   -0.444116
    21  C   -0.479290
    22  C   -0.703921
    23  C    0.100276
    24  C    0.308254
    25  C   -0.488071
    26  C    1.012991
    27  O   -0.372348
    28  C   -0.732189
    29  C    0.817757
    30  C   -0.660678
    31  C   -0.450677
    32  C   -0.419337
    33  C    0.939476
    34  C   -0.421834
    35  C    0.105254
    36  C    0.008688
    37  O   -0.436568
    38  C   -0.302675
    39  O   -0.381016
    40  C   -0.227273
    41  O   -0.287959
    42  C   -0.267329
    43  O   -0.454065
    44  C   -0.252783
    45  H    0.177839
    46  H    0.149998
    47  H    0.150290
    48  H    0.210446
    49  H    0.203055
    50  H    0.148670
    51  H    0.187634
    52  H    0.188815
    53  H    0.206831
    54  H    0.317574
    55  H    0.347774
    56  H    0.349533
    57  H    0.320049
    58  H    0.189071
    59  H    0.203886
    60  H    0.208932
    61  H    0.152060
    62  H    0.190121
    63  H    0.211676
    64  H    0.153534
    65  H    0.154128
    66  H    0.152669
    67  H    0.182385
    68  H    0.189376
    69  H    0.192499
    70  H    0.187815
    71  H    0.179335
    72  H    0.174348
    73  H    0.183345
    74  H    0.199084
    75  H    0.194380
    76  H    0.196312
    77  H    0.189126
    78  H    0.179489
 Sum of Mulliken charges =  -0.00000
 Mulliken charges with hydrogens summed into heavy atoms:
               1
     1  C    0.054681
     2  C   -0.025379
     3  C    0.181441
     4  C    1.225095
     5  C   -0.273475
     6  C   -0.735227
     7  C   -0.547612
     8  C    0.209531
     9  C    0.134875
    10  O   -0.313459
    11  C    0.779594
    12  C   -0.041582
    13  C    0.237202
    14  C   -0.090186
    15  C   -0.094961
    16  C   -0.071344
    17  O   -0.049350
    18  O   -0.148422
    19  O   -0.125609
    20  O   -0.124067
    21  C   -0.479290
    22  C   -0.703921
    23  C    0.100276
    24  C    0.308254
    25  C   -0.299000
    26  C    1.012991
    27  O   -0.372348
    28  C   -0.319371
    29  C    0.969817
    30  C   -0.258881
    31  C   -0.297143
    32  C   -0.419337
    33  C    0.939476
    34  C   -0.267706
    35  C    0.257923
    36  C    0.008688
    37  O   -0.436568
    38  C    0.261585
    39  O   -0.381016
    40  C    0.314225
    41  O   -0.287959
    42  C    0.309479
    43  O   -0.454065
    44  C    0.312144
 Electronic spatial extent (au):  <R**2>=          26530.0312
 Charge=              0.0000 electrons
 Dipole moment (field-independent basis, Debye):
    X=             -5.8785    Y=              5.1050    Z=             -2.8425  Tot=              8.2884
 Quadrupole moment (field-independent basis, Debye-Ang):
   XX=           -243.0310   YY=           -231.7654   ZZ=           -237.2211
   XY=             -3.1400   XZ=            -18.3666   YZ=              6.6412
 Traceless Quadrupole moment (field-independent basis, Debye-Ang):
   XX=             -5.6919   YY=              5.5738   ZZ=              0.1181
   XY=             -3.1400   XZ=            -18.3666   YZ=              6.6412
 Octapole moment (field-independent basis, Debye-Ang**2):
  XXX=           -234.5685  YYY=            227.9900  ZZZ=             18.2638  XYY=            -80.8966
  XXY=            -34.5849  XXZ=            -19.9346  XZZ=            -75.3909  YZZ=             15.5557
  YYZ=            -38.0848  XYZ=             42.4184
 Hexadecapole moment (field-independent basis, Debye-Ang**3):
 XXXX=         -22043.8776 YYYY=          -9011.6789 ZZZZ=          -2600.0524 XXXY=           -793.0814
 XXXZ=          -1404.2529 YYYX=            -32.9356 YYYZ=           -102.0877 ZZZX=           -199.8913
 ZZZY=            -26.5490 XXYY=          -4927.1535 XXZZ=          -3767.8021 YYZZ=          -2080.4842
 XXYZ=            213.2568 YYXZ=             21.4307 ZZXY=             65.1853
 N-N= 5.576617195836D+03 E-N=-1.598721359556D+04  KE= 2.059492196605D+03
 Unable to Open any file for archive entry.
 1\1\GINC-C08B01N05\SP\RmPW1PW91\6-311+G(2d,p)\C34H34O10\ROOT\25-Sep-20
 25\0\\# mPW1PW91/6-311+g(2d,p) NMR scrf(SMD,solvent=dmso) geom=connect
 ivity\\58RS\\0,1\C,0,1.744152,-2.899916,-0.456362\C,0,1.523393,-2.6890
 5,-1.825365\C,0,0.243794,-2.882003,-2.343047\C,0,-0.830061,-3.298324,-
 1.550539\C,0,-0.576395,-3.531466,-0.186665\C,0,0.697175,-3.335159,0.35
 7672\C,0,-2.244789,-3.366546,-2.08794\C,0,-3.269721,-3.227456,-0.94972
 7\C,0,-2.843491,-4.210848,0.149679\O,0,-1.553193,-3.891641,0.696179\C,
 0,-3.405846,-1.822514,-0.388858\C,0,-2.43094,-0.840238,-0.557577\C,0,-
 2.487759,0.425881,0.040309\C,0,-3.597696,0.741355,0.842136\C,0,-4.6002
 45,-0.222371,1.015844\C,0,-4.504797,-1.486329,0.413421\O,0,2.961192,-2
 .698464,0.126485\O,0,-5.493784,-2.397365,0.636168\O,0,2.154384,3.51619
 ,-0.90644\O,0,8.478615,-1.222531,1.106535\C,0,1.044751,2.776697,-0.619
 922\C,0,-0.217153,3.346668,-0.852852\C,0,-1.392702,2.620407,-0.629748\
 C,0,-1.310566,1.313442,-0.124968\C,0,-0.037213,0.781734,0.123612\C,0,1
 .152504,1.472592,-0.117279\O,0,4.266545,-0.467187,-0.994994\C,0,3.1812
 28,0.464787,-1.206901\C,0,2.469466,0.767082,0.113391\C,0,3.459661,1.48
 7074,1.04168\C,0,6.348423,-0.829817,0.033334\C,0,5.130981,-0.144068,0.
 032629\C,0,4.798325,0.77959,1.033188\C,0,5.753071,0.9998,2.035259\C,0,
 6.97626,0.338744,2.058954\C,0,7.271753,-0.587631,1.050167\O,0,-5.71915
 ,-0.015233,1.803928\C,0,-5.433502,0.019947,3.216923\O,0,-3.628637,1.93
 7788,1.506289\C,0,-4.758667,2.779866,1.233526\O,0,-2.614975,3.175916,-
 0.920786\C,0,-2.87962,3.306407,-2.325495\O,0,-0.206231,4.620372,-1.387
 723\C,0,-0.80334,5.630006,-0.549338\H,0,2.339549,-2.373527,-2.468849\H
 ,0,0.064053,-2.680425,-3.396708\H,0,0.85876,-3.491282,1.41923\H,0,-2.3
 92806,-2.58586,-2.842111\H,0,-2.423067,-4.325914,-2.590553\H,0,-4.2498
 57,-3.563437,-1.304914\H,0,-3.526284,-4.190571,1.000285\H,0,-2.815654,
 -5.230247,-0.258019\H,0,-1.570058,-1.052703,-1.176184\H,0,3.49254,-2.0
 95344,-0.435914\H,0,-6.152037,-1.94088,1.197542\H,0,1.820266,4.366767,
 -1.256437\H,0,8.545828,-1.83686,0.354232\H,0,0.029434,-0.232894,0.5053
 66\H,0,2.518386,-0.026975,-1.919351\H,0,3.586311,1.376615,-1.659089\H,
 0,2.234862,-0.204203,0.561972\H,0,3.060522,1.516488,2.061967\H,0,3.578
 366,2.526329,0.717304\H,0,6.559146,-1.538844,-0.763067\H,0,5.518542,1.
 707589,2.826887\H,0,7.699726,0.520518,2.847116\H,0,-6.396824,0.122138,
 3.720801\H,0,-4.945956,-0.909392,3.533567\H,0,-4.792836,0.871633,3.462
 247\H,0,-4.946174,2.83244,0.157653\H,0,-5.656874,2.427619,1.749184\H,0
 ,-4.489615,3.772483,1.601229\H,0,-3.883497,3.72847,-2.408961\H,0,-2.15
 9013,3.974987,-2.807173\H,0,-2.85434,2.324632,-2.813617\H,0,-1.874357,
 5.448895,-0.430336\H,0,-0.318384,5.647149,0.433404\H,0,-0.63939,6.5817
 79,-1.058672\\Version=ES64L-G16RevC.02\State=1-A\HF=-2068.4200449\RMSD
 =3.703e-09\Dipole=-2.312777,2.0084454,-1.1183091\Quadrupole=-4.2317653
 ,4.1439706,0.0877947,-2.3345092,-13.6551304,4.9375889\PG=C01 [X(C34H34
 O10)]\\@
 The archive entry for this job was punched.


 FLOATING POINT NUMBERS ARE LIKE SANDPILES:
 EVERY TIME THAT YOU MOVE ONE, YOU LOSE A LITTLE SAND 
 AND YOU PICK UP A LITTLE DIRT.
 Job cpu time:       0 days 11 hours  7 minutes 39.3 seconds.
 Elapsed time:       0 days  0 hours 14 minutes 18.5 seconds.
 File lengths (MBytes):  RWF=   1559 Int=      0 D2E=      0 Chk=    151 Scr=      1
 Normal termination of Gaussian 16 at Thu Sep 25 21:24:35 2025.
