 Entering Gaussian System, Link 0=/home/tupf/tupf_yangsy/lustre1/g16/Gaussian16_AVX2/g16/g16
 Input=58RS_12.gjf
 Output=58RS_12.log
 Initial command:
 /home/tupf/tupf_yangsy/lustre1/g16/Gaussian16_AVX2/g16/l1.exe "/home/tupf/tupf_yangsy/lustre1/g16/tmp/Gau-1622801.inp" -scrdir="/home/tupf/tupf_yangsy/lustre1/g16/tmp/"
 Entering Link 1 = /home/tupf/tupf_yangsy/lustre1/g16/Gaussian16_AVX2/g16/l1.exe PID=   1622802.
  
 Copyright (c) 1988-2021, Gaussian, Inc.  All Rights Reserved.
  
 This is part of the Gaussian(R) 16 program.  It is based on
 the Gaussian(R) 09 system (copyright 2009, Gaussian, Inc.),
 the Gaussian(R) 03 system (copyright 2003, Gaussian, Inc.),
 the Gaussian(R) 98 system (copyright 1998, Gaussian, Inc.),
 the Gaussian(R) 94 system (copyright 1995, Gaussian, Inc.),
 the Gaussian 92(TM) system (copyright 1992, Gaussian, Inc.),
 the Gaussian 90(TM) system (copyright 1990, Gaussian, Inc.),
 the Gaussian 88(TM) system (copyright 1988, Gaussian, Inc.),
 the Gaussian 86(TM) system (copyright 1986, Carnegie Mellon
 University), and the Gaussian 82(TM) system (copyright 1983,
 Carnegie Mellon University). Gaussian is a federally registered
 trademark of Gaussian, Inc.
  
 This software contains proprietary and confidential information,
 including trade secrets, belonging to Gaussian, Inc.
  
 This software is provided under written license and may be
 used, copied, transmitted, or stored only in accord with that
 written license.
  
 The following legend is applicable only to US Government
 contracts under FAR:
  
                    RESTRICTED RIGHTS LEGEND
  
 Use, reproduction and disclosure by the US Government is
 subject to restrictions as set forth in subparagraphs (a)
 and (c) of the Commercial Computer Software - Restricted
 Rights clause in FAR 52.227-19.
  
 Gaussian, Inc.
 340 Quinnipiac St., Bldg. 40, Wallingford CT 06492
  
  
 ---------------------------------------------------------------
 Warning -- This program may not be used in any manner that
 competes with the business of Gaussian, Inc. or will provide
 assistance to any competitor of Gaussian, Inc.  The licensee
 of this program is prohibited from giving any competitor of
 Gaussian, Inc. access to this program.  By using this program,
 the user acknowledges that Gaussian, Inc. is engaged in the
 business of creating and licensing software in the field of
 computational chemistry and represents and warrants to the
 licensee that it is not a competitor of Gaussian, Inc. and that
 it will not use this program in any manner prohibited above.
 ---------------------------------------------------------------
  

 Cite this work as:
 Gaussian 16, Revision C.02,
 M. J. Frisch, G. W. Trucks, H. B. Schlegel, G. E. Scuseria, 
 M. A. Robb, J. R. Cheeseman, G. Scalmani, V. Barone, 
 G. A. Petersson, H. Nakatsuji, X. Li, M. Caricato, A. V. Marenich, 
 J. Bloino, B. G. Janesko, R. Gomperts, B. Mennucci, H. P. Hratchian, 
 J. V. Ortiz, A. F. Izmaylov, J. L. Sonnenberg, D. Williams-Young, 
 F. Ding, F. Lipparini, F. Egidi, J. Goings, B. Peng, A. Petrone, 
 T. Henderson, D. Ranasinghe, V. G. Zakrzewski, J. Gao, N. Rega, 
 G. Zheng, W. Liang, M. Hada, M. Ehara, K. Toyota, R. Fukuda, 
 J. Hasegawa, M. Ishida, T. Nakajima, Y. Honda, O. Kitao, H. Nakai, 
 T. Vreven, K. Throssell, J. A. Montgomery, Jr., J. E. Peralta, 
 F. Ogliaro, M. J. Bearpark, J. J. Heyd, E. N. Brothers, K. N. Kudin, 
 V. N. Staroverov, T. A. Keith, R. Kobayashi, J. Normand, 
 K. Raghavachari, A. P. Rendell, J. C. Burant, S. S. Iyengar, 
 J. Tomasi, M. Cossi, J. M. Millam, M. Klene, C. Adamo, R. Cammi, 
 J. W. Ochterski, R. L. Martin, K. Morokuma, O. Farkas, 
 J. B. Foresman, and D. J. Fox, Gaussian, Inc., Wallingford CT, 2019.
 
 ******************************************
 Gaussian 16:  ES64L-G16RevC.02  7-Dec-2021
                25-Sep-2025 
 ******************************************
 %mem=400GB
 %nprocshared=64
 Will use up to   64 processors via shared memory.
 ---------------------------------------------------------------------
 # mPW1PW91/6-311+g(2d,p) NMR scrf(SMD,solvent=dmso) geom=connectivity
 ---------------------------------------------------------------------
 1/38=1,57=2,172=1/1;
 2/12=2,17=6,18=5,40=1/2;
 3/5=4,6=6,7=112,11=2,25=1,30=1,70=32201,72=21,74=-7/1,2,3,8;
 4//1;
 5/5=2,38=5,53=21/2;
 8/6=1,10=90,11=11/1;
 10/13=100,45=16/2;
 6/7=2,8=2,9=2,10=2,28=1/1;
 99/9=1/99;
 ----
 58RS
 ----
 Symbolic Z-matrix:
 Charge =  0 Multiplicity = 1
 C                     2.77672  -2.54787  -0.09183 
 C                     2.65096  -2.31744  -1.46949 
 C                     1.45324  -2.64176  -2.1039 
 C                     0.37396  -3.21215  -1.42223 
 C                     0.53309  -3.44996  -0.04493 
 C                     1.71724  -3.11344   0.61858 
 C                    -0.94031  -3.51564  -2.11116 
 C                    -2.0821   -3.66288  -1.09378 
 C                    -1.56552  -4.57064   0.03091 
 O                    -0.45653  -3.98363   0.72978 
 C                    -2.60111  -2.35471  -0.52473 
 C                    -1.93129  -1.13773  -0.65833 
 C                    -2.37014   0.05137  -0.05729 
 C                    -3.54176   0.01896   0.71679 
 C                    -4.26264  -1.17625   0.81826 
 C                    -3.79523  -2.3495    0.21046 
 O                     3.91388  -2.25638   0.60219 
 O                    -4.51806  -3.49708   0.35138 
 O                     0.9169    4.63038  -0.52273 
 O                     8.00734  -0.39549   1.05945 
 C                     0.13987   3.51834  -0.4038 
 C                    -1.22735   3.61412  -0.70843 
 C                    -2.06463   2.49777  -0.61817 
 C                    -1.53857   1.273    -0.16951 
 C                    -0.16905   1.20396   0.11863 
 C                     0.6939    2.29806   0.00087 
 O                     3.82464   1.53777   1.99211 
 C                     2.4239    1.56725   1.67385 
 C                     2.17268   2.16227   0.28629 
 C                     2.87201   1.27303  -0.75752 
 C                     5.90126   0.57759   1.48146 
 C                     4.63808   0.98702   1.04532 
 C                     4.24672   0.84793  -0.29844 
 C                     5.166     0.26741  -1.1792 
 C                     6.42351  -0.17217  -0.76284 
 C                     6.79186  -0.00327   0.57952 
 O                    -5.41801  -1.30778   1.56394 
 C                    -6.52801  -0.51305   1.10243 
 O                    -3.96561   1.14369   1.38147 
 C                    -3.81106   1.06482   2.80582 
 O                    -3.38619   2.59055  -0.97971 
 C                    -3.59028   2.74136  -2.39194 
 O                    -1.65428   4.84933  -1.15613 
 C                    -2.63827   5.48706  -0.31783 
 H                     3.47452  -1.88507  -2.02893 
 H                     1.34768  -2.43873  -3.16736 
 H                     1.808    -3.29613   1.68427 
 H                    -1.16896  -2.73508  -2.84515 
 H                    -0.86379  -4.45568  -2.67267 
 H                    -2.91581  -4.19512  -1.56555 
 H                    -2.32496  -4.74496   0.7933 
 H                    -1.25305  -5.53706  -0.38754 
 H                    -1.01529  -1.09758  -1.23487 
 H                     4.50498  -1.72708   0.03632 
 H                    -5.28588  -3.25811   0.9082 
 H                     0.31702   5.33715  -0.83443 
 H                     8.51837  -0.7873    0.32931 
 H                     0.23412   0.24777   0.43875 
 H                     1.96219   2.17146   2.45752 
 H                     2.03101   0.54477   1.73847 
 H                     2.63103   3.1554    0.27265 
 H                     2.93636   1.80105  -1.71616 
 H                     2.25601   0.3824   -0.93566 
 H                     6.17533   0.6956    2.52441 
 H                     4.88648   0.1535   -2.22356 
 H                     7.11516  -0.62357  -1.46956 
 H                    -7.38054  -0.79396   1.72424 
 H                    -6.31546   0.55256   1.21784 
 H                    -6.74711  -0.73519   0.05164 
 H                    -4.42062   0.26159   3.23269 
 H                    -4.14447   2.02674   3.20215 
 H                    -2.75836   0.90616   3.07091 
 H                    -3.16466   1.88893  -2.93588 
 H                    -4.67206   2.7648   -2.54259 
 H                    -3.14834   3.67094  -2.76523 
 H                    -2.26239   5.58427   0.70724 
 H                    -2.80339   6.47802  -0.74556 
 H                    -3.57188   4.91934  -0.31646 
 
 Stoichiometry    C34H34O10
 Framework group  C1[X(C34H34O10)]
 Deg. of freedom   228
 Full point group                 C1      NOp   1
 Largest Abelian subgroup         C1      NOp   1
 Largest concise Abelian subgroup C1      NOp   1
                         Standard orientation:                         
 ---------------------------------------------------------------------
 Center     Atomic      Atomic             Coordinates (Angstroms)
 Number     Number       Type             X           Y           Z
 ---------------------------------------------------------------------
      1          6           0        2.776715   -2.547868   -0.091830
      2          6           0        2.650956   -2.317443   -1.469492
      3          6           0        1.453237   -2.641757   -2.103901
      4          6           0        0.373959   -3.212145   -1.422232
      5          6           0        0.533091   -3.449957   -0.044925
      6          6           0        1.717236   -3.113441    0.618579
      7          6           0       -0.940305   -3.515635   -2.111161
      8          6           0       -2.082097   -3.662880   -1.093780
      9          6           0       -1.565524   -4.570640    0.030905
     10          8           0       -0.456530   -3.983631    0.729780
     11          6           0       -2.601110   -2.354710   -0.524725
     12          6           0       -1.931288   -1.137728   -0.658328
     13          6           0       -2.370142    0.051370   -0.057287
     14          6           0       -3.541764    0.018957    0.716789
     15          6           0       -4.262639   -1.176250    0.818264
     16          6           0       -3.795230   -2.349497    0.210464
     17          8           0        3.913876   -2.256381    0.602191
     18          8           0       -4.518058   -3.497078    0.351382
     19          8           0        0.916903    4.630384   -0.522729
     20          8           0        8.007342   -0.395485    1.059454
     21          6           0        0.139866    3.518342   -0.403804
     22          6           0       -1.227348    3.614115   -0.708427
     23          6           0       -2.064627    2.497767   -0.618168
     24          6           0       -1.538566    1.273002   -0.169506
     25          6           0       -0.169052    1.203963    0.118626
     26          6           0        0.693901    2.298055    0.000870
     27          8           0        3.824643    1.537771    1.992114
     28          6           0        2.423899    1.567252    1.673847
     29          6           0        2.172680    2.162265    0.286294
     30          6           0        2.872009    1.273033   -0.757522
     31          6           0        5.901262    0.577590    1.481455
     32          6           0        4.638078    0.987023    1.045324
     33          6           0        4.246720    0.847932   -0.298436
     34          6           0        5.166003    0.267406   -1.179196
     35          6           0        6.423513   -0.172166   -0.762838
     36          6           0        6.791859   -0.003274    0.579520
     37          8           0       -5.418013   -1.307775    1.563942
     38          6           0       -6.528005   -0.513054    1.102432
     39          8           0       -3.965606    1.143691    1.381468
     40          6           0       -3.811059    1.064821    2.805824
     41          8           0       -3.386192    2.590545   -0.979711
     42          6           0       -3.590283    2.741358   -2.391939
     43          8           0       -1.654282    4.849335   -1.156133
     44          6           0       -2.638266    5.487058   -0.317832
     45          1           0        3.474524   -1.885065   -2.028925
     46          1           0        1.347682   -2.438728   -3.167355
     47          1           0        1.807998   -3.296133    1.684267
     48          1           0       -1.168958   -2.735081   -2.845154
     49          1           0       -0.863787   -4.455684   -2.672665
     50          1           0       -2.915806   -4.195120   -1.565551
     51          1           0       -2.324959   -4.744958    0.793298
     52          1           0       -1.253048   -5.537056   -0.387543
     53          1           0       -1.015287   -1.097578   -1.234871
     54          1           0        4.504977   -1.727081    0.036322
     55          1           0       -5.285880   -3.258112    0.908201
     56          1           0        0.317024    5.337152   -0.834433
     57          1           0        8.518365   -0.787304    0.329314
     58          1           0        0.234121    0.247768    0.438753
     59          1           0        1.962187    2.171457    2.457522
     60          1           0        2.031013    0.544774    1.738466
     61          1           0        2.631029    3.155400    0.272653
     62          1           0        2.936358    1.801048   -1.716161
     63          1           0        2.256010    0.382397   -0.935656
     64          1           0        6.175330    0.695595    2.524409
     65          1           0        4.886484    0.153499   -2.223559
     66          1           0        7.115161   -0.623574   -1.469559
     67          1           0       -7.380538   -0.793958    1.724244
     68          1           0       -6.315459    0.552556    1.217835
     69          1           0       -6.747106   -0.735188    0.051641
     70          1           0       -4.420624    0.261587    3.232693
     71          1           0       -4.144473    2.026744    3.202148
     72          1           0       -2.758360    0.906159    3.070911
     73          1           0       -3.164658    1.888932   -2.935878
     74          1           0       -4.672057    2.764802   -2.542593
     75          1           0       -3.148345    3.670938   -2.765228
     76          1           0       -2.262389    5.584269    0.707236
     77          1           0       -2.803390    6.478020   -0.745561
     78          1           0       -3.571877    4.919337   -0.316456
 ---------------------------------------------------------------------
 Rotational constants (GHZ):           0.1009716           0.0576342           0.0417450
 Standard basis: 6-311+G(2d,p) (5D, 7F)
 There are  1480 symmetry adapted cartesian basis functions of A   symmetry.
 There are  1392 symmetry adapted basis functions of A   symmetry.
  1392 basis functions,  2120 primitive gaussians,  1480 cartesian basis functions
   159 alpha electrons      159 beta electrons
       nuclear repulsion energy      5605.6586314660 Hartrees.
 NAtoms=   78 NActive=   78 NUniq=   78 SFac= 1.00D+00 NAtFMM=   60 NAOKFM=T Big=T
 Integral buffers will be    131072 words long.
 Raffenetti 2 integral format.
 Two-electron integral symmetry is turned on.
 ------------------------------------------------------------------------------
 Polarizable Continuum Model (PCM)
 =================================
 Model                : PCM.
 Atomic radii         : SMD-Coulomb.
 Polarization charges : Total charges.
 Charge compensation  : None.
 Solution method      : On-the-fly selection.
 Cavity type          : VdW (van der Waals Surface) (Alpha=1.000).
 Cavity algorithm     : GePol (No added spheres)
                        Default sphere list used, NSphG=   78.
                        Lebedev-Laikov grids with approx.  5.0 points / Ang**2.
                        Smoothing algorithm: York/Karplus (Gamma=1.0000).
                        Polarization charges: spherical gaussians, with
                                              point-specific exponents (IZeta= 3).
                        Self-potential: point-specific (ISelfS= 7).
                        Self-field    : sphere-specific E.n sum rule (ISelfD= 2).
 Solvent              : DiMethylSulfoxide, Eps=  46.826000 Eps(inf)=   2.185371
 ------------------------------------------------------------------------------
 ------------------------------------------------------------------------------
 Atomic radii for non-electrostatic terms: SMD-CDS.
 ------------------------------------------------------------------------------
 Nuclear repulsion after PCM non-electrostatic terms =     5605.6544240001 Hartrees.
 One-electron integrals computed using PRISM.
 NBasis=  1392 RedAO= T EigKep=  1.10D-06  NBF=  1392
 NBsUse=  1378 1.00D-06 EigRej=  9.37D-07 NBFU=  1378
 ExpMin= 4.38D-02 ExpMax= 8.59D+03 ExpMxC= 1.30D+03 IAcc=3 IRadAn=         5 AccDes= 0.00D+00
 Harris functional with IExCor=  908 and IRadAn=       5 diagonalized for initial guess.
 HarFok:  IExCor=  908 AccDes= 0.00D+00 IRadAn=         5 IDoV= 1 UseB2=F ITyADJ=14
 ICtDFT=  3500011 ScaDFX=  1.000000  1.000000  1.000000  1.000000
 FoFCou: FMM=F IPFlag=           0 FMFlag=      100000 FMFlg1=        2001
         NFxFlg=           0 DoJE=T BraDBF=F KetDBF=T FulRan=T
         wScrn=  0.000000 ICntrl=       500 IOpCl=  0 I1Cent=   200000004 NGrid=           0
         NMat0=    1 NMatS0=      1 NMatT0=    0 NMatD0=    1 NMtDS0=    0 NMtDT0=    0
 Petite list used in FoFCou.
 Requested convergence on RMS density matrix=1.00D-08 within 128 cycles.
 Requested convergence on MAX density matrix=1.00D-06.
 Requested convergence on             energy=1.00D-06.
 No special actions if energy rises.
 Inv3:  Mode=1 IEnd=    87869232.
 Iteration    1 A*A^-1 deviation from unit magnitude is 3.33D-15 for   2256.
 Iteration    1 A*A^-1 deviation from orthogonality  is 2.81D-15 for   2192     47.
 Iteration    1 A^-1*A deviation from unit magnitude is 3.33D-15 for   2256.
 Iteration    1 A^-1*A deviation from orthogonality  is 1.38D-13 for   2207   2172.
 Error on total polarization charges =  0.04864
 SCF Done:  E(RmPW1PW91) =  -2068.42212858     A.U. after   14 cycles
            NFock= 14  Conv=0.36D-08     -V/T= 2.0043
 SMD-CDS (non-electrostatic) energy       (kcal/mol) =      -2.64
 (included in total energy above)
 DoSCS=F DFT=T ScalE2(SS,OS)=  1.000000  1.000000
 Range of M.O.s used for correlation:     1  1378
 NBasis=  1392 NAE=   159 NBE=   159 NFC=     0 NFV=     0
 NROrb=   1378 NOA=   159 NOB=   159 NVA=  1219 NVB=  1219

 **** Warning!!: The largest alpha MO coefficient is  0.95434045D+02

 NEqPCM:  Using equilibrium solvation (IEInf=0, Eps=  46.8260, EpsInf=   2.1854)
          Differentiating once with respect to magnetic field using GIAOs.
          Electric field/nuclear overlap derivatives assumed to be zero.
 FoFJK:  IHMeth= 1 ICntrl=    6127 DoSepK=F KAlg= 0 I1Cent=           0 FoldK=F
 IRaf=         1 NMat=       1 IRICut=       1 DoRegI=T DoRafI=F ISym2E= 0 IDoP0=0 IntGTp=1.
          There are     3 degrees of freedom in the 1st order CPHF.  IDoFFX=0 NUNeed=     3.
      3 vectors produced by pass  0 Test12= 6.46D-12 3.33D-08 XBig12= 3.86D+03 6.11D+00.
 AX will form     3 AO Fock derivatives at one time.
      3 vectors produced by pass  1 Test12= 6.46D-12 3.33D-08 XBig12= 1.05D+01 4.68D-01.
      3 vectors produced by pass  2 Test12= 6.46D-12 3.33D-08 XBig12= 4.53D-02 4.80D-02.
      3 vectors produced by pass  3 Test12= 6.46D-12 3.33D-08 XBig12= 2.31D-04 3.05D-03.
      3 vectors produced by pass  4 Test12= 6.46D-12 3.33D-08 XBig12= 8.13D-07 1.53D-04.
      3 vectors produced by pass  5 Test12= 6.46D-12 3.33D-08 XBig12= 3.07D-09 9.00D-06.
      3 vectors produced by pass  6 Test12= 6.46D-12 3.33D-08 XBig12= 1.54D-11 4.81D-07.
      1 vectors produced by pass  7 Test12= 6.46D-12 3.33D-08 XBig12= 2.26D-14 3.60D-08.
 InvSVY:  IOpt=1 It=  1 EMax= 7.11D-15
 Solved reduced A of dimension    22 with     3 vectors.
 Calculating GIAO nuclear magnetic shielding tensors.
 SCF GIAO Magnetic shielding tensor (ppm):
      1  C    Isotropic =    23.7161   Anisotropy =   142.6667
   XX=   -26.3284   YX=   -48.9322   ZX=   -36.8786
   XY=   -48.8226   YY=    98.1071   ZY=     9.4762
   XZ=   -39.8874   YZ=     7.8425   ZZ=    -0.6305
   Eigenvalues:   -62.1574    14.4783   118.8272
      2  C    Isotropic =    75.8752   Anisotropy =   133.7227
   XX=    36.5048   YX=   -53.6645   ZX=    24.9202
   XY=   -51.5523   YY=   137.7444   ZY=    35.3364
   XZ=    18.7903   YZ=    32.3552   ZZ=    53.3763
   Eigenvalues:    -5.7431    68.3451   165.0236
      3  C    Isotropic =    50.8069   Anisotropy =   171.0712
   XX=    56.1682   YX=   -39.6149   ZX=   -17.2544
   XY=   -41.2866   YY=   138.4171   ZY=    43.0588
   XZ=   -23.6209   YZ=    37.9077   ZZ=   -42.1645
   Eigenvalues:   -52.1703    39.7367   164.8544
      4  C    Isotropic =    67.2898   Anisotropy =   165.4593
   XX=    16.7337   YX=   -52.9566   ZX=   -32.3027
   XY=   -43.0356   YY=   158.7752   ZY=     8.2443
   XZ=   -23.6463   YZ=    26.3936   ZZ=    26.3606
   Eigenvalues:   -11.5465    35.8199   177.5960
      5  C    Isotropic =    23.5939   Anisotropy =   141.6331
   XX=   -16.1093   YX=   -58.1003   ZX=    17.5048
   XY=   -55.7697   YY=    88.8454   ZY=    30.6744
   XZ=    25.2433   YZ=    35.7655   ZZ=    -1.9544
   Eigenvalues:   -60.4787    13.2444   118.0160
      6  C    Isotropic =    81.0978   Anisotropy =   114.7076
   XX=    80.8758   YX=   -28.6231   ZX=   -12.1704
   XY=   -24.2437   YY=   143.6269   ZY=    21.0252
   XZ=   -10.0123   YZ=    22.8206   ZZ=    18.7907
   Eigenvalues:    14.3581    71.3657   157.5696
      7  C    Isotropic =   156.7259   Anisotropy =     8.9948
   XX=   161.4842   YX=    -2.3005   ZX=    -8.4001
   XY=     3.0246   YY=   158.2397   ZY=    -3.3612
   XZ=     0.9009   YZ=     1.5547   ZZ=   150.4538
   Eigenvalues:   149.2361   158.2192   162.7224
      8  C    Isotropic =   152.1653   Anisotropy =    19.0365
   XX=   141.5023   YX=    -8.5967   ZX=    -1.1897
   XY=     0.9491   YY=   162.7561   ZY=     7.5516
   XZ=     6.9394   YZ=     1.8940   ZZ=   152.2377
   Eigenvalues:   139.7100   151.9297   164.8564
      9  C    Isotropic =   116.3309   Anisotropy =    51.2949
   XX=   129.3262   YX=    13.8397   ZX=    21.7476
   XY=    13.1382   YY=   113.0806   ZY=    11.4703
   XZ=    24.3375   YZ=     5.9200   ZZ=   106.5859
   Eigenvalues:    92.2565   106.2087   150.5275
     10  O    Isotropic =   218.3746   Anisotropy =   114.4224
   XX=   191.2418   YX=   -36.4938   ZX=   -59.0977
   XY=   -42.9625   YY=   263.8335   ZY=    33.7428
   XZ=   -69.1389   YZ=   -24.5757   ZZ=   200.0486
   Eigenvalues:   126.2375   234.2302   294.6562
     11  C    Isotropic =    58.0650   Anisotropy =   155.7574
   XX=    52.1944   YX=   -14.1039   ZX=    62.9558
   XY=     1.1204   YY=     6.1775   ZY=   -40.4414
   XZ=    59.4053   YZ=   -38.5320   ZZ=   115.8231
   Eigenvalues:   -10.8542    23.1459   161.9033
     12  C    Isotropic =    56.3000   Anisotropy =   159.3736
   XX=    20.2084   YX=   -18.1321   ZX=    91.9478
   XY=   -12.8699   YY=    54.8641   ZY=   -20.5444
   XZ=    84.9673   YZ=   -36.5417   ZZ=    93.8275
   Eigenvalues:   -38.8908    45.2417   162.5490
     13  C    Isotropic =    57.9420   Anisotropy =   145.0965
   XX=    57.0020   YX=   -37.4354   ZX=    52.2736
   XY=   -46.7803   YY=     8.2700   ZY=   -16.3250
   XZ=    49.2299   YZ=   -40.5645   ZZ=   108.5539
   Eigenvalues:   -16.0192    35.1722   154.6730
     14  C    Isotropic =    31.6367   Anisotropy =   118.2055
   XX=    39.8202   YX=     1.6050   ZX=    52.3011
   XY=   -13.1368   YY=    -2.9032   ZY=   -35.8337
   XZ=    45.9992   YZ=   -46.8877   ZZ=    57.9932
   Eigenvalues:   -29.6626    14.1324   110.4404
     15  C    Isotropic =    42.1881   Anisotropy =   104.7167
   XX=    32.0966   YX=    -9.7714   ZX=    45.4798
   XY=    -9.1776   YY=    23.5771   ZY=   -20.3562
   XZ=    59.1717   YZ=   -16.1143   ZZ=    70.8907
   Eigenvalues:    -4.5961    19.1612   111.9993
     16  C    Isotropic =    33.3945   Anisotropy =   125.8045
   XX=    28.6052   YX=   -35.0100   ZX=    45.4224
   XY=   -32.3635   YY=   -15.9228   ZY=   -16.0449
   XZ=    45.7914   YZ=    -4.3883   ZZ=    87.5010
   Eigenvalues:   -35.6494    18.5686   117.2642
     17  O    Isotropic =   212.8280   Anisotropy =    48.0055
   XX=   230.2322   YX=   -16.3640   ZX=    32.3245
   XY=    -1.5401   YY=   235.2266   ZY=    23.6370
   XZ=    24.7445   YZ=    27.6049   ZZ=   173.0253
   Eigenvalues:   152.3623   241.2901   244.8317
     18  O    Isotropic =   229.1909   Anisotropy =   118.6972
   XX=   231.9895   YX=    28.2611   ZX=    59.7469
   XY=   -23.7231   YY=   200.4618   ZY=   -11.3429
   XZ=    64.4250   YZ=   -26.4860   ZZ=   255.1214
   Eigenvalues:   173.0716   206.1787   308.3224
     19  O    Isotropic =   231.6439   Anisotropy =   110.1355
   XX=   193.1824   YX=    -6.0991   ZX=   -24.0533
   XY=    33.3799   YY=   212.8298   ZY=    32.8926
   XZ=   -23.7892   YZ=    36.1657   ZZ=   288.9195
   Eigenvalues:   173.3879   216.4763   305.0676
     20  O    Isotropic =   211.2756   Anisotropy =    64.0131
   XX=   245.7927   YX=    -1.8783   ZX=    24.4516
   XY=    -5.3279   YY=   221.9782   ZY=   -21.5664
   XZ=    18.3904   YZ=   -21.5316   ZZ=   166.0559
   Eigenvalues:   154.6433   225.2324   253.9510
     21  C    Isotropic =    33.7635   Anisotropy =   126.3448
   XX=     4.8672   YX=   -24.0546   ZX=   -16.7623
   XY=   -34.1062   YY=   -12.4532   ZY=    26.4584
   XZ=   -13.5238   YZ=    24.8104   ZZ=   108.8764
   Eigenvalues:   -35.1388    18.4360   117.9933
     22  C    Isotropic =    42.0372   Anisotropy =   104.8787
   XX=    16.0422   YX=     6.3613   ZX=   -22.2377
   XY=     3.6101   YY=    10.5057   ZY=    23.8183
   XZ=   -22.9749   YZ=    32.0058   ZZ=    99.5638
   Eigenvalues:    -4.6743    18.8296   111.9564
     23  C    Isotropic =    31.5717   Anisotropy =   118.5280
   XX=   -16.3083   YX=   -10.4291   ZX=   -37.0385
   XY=     6.9189   YY=    19.6649   ZY=    27.6454
   XZ=   -41.1441   YZ=    22.4032   ZZ=    91.3583
   Eigenvalues:   -29.8195    13.9442   110.5903
     24  C    Isotropic =    56.3819   Anisotropy =   148.0032
   XX=    23.3768   YX=   -39.0552   ZX=   -19.5099
   XY=   -26.5719   YY=     6.9479   ZY=    32.6314
   XZ=   -41.0738   YZ=    24.2668   ZZ=   138.8210
   Eigenvalues:   -18.7723    32.8672   155.0507
     25  C    Isotropic =    56.3543   Anisotropy =   160.7730
   XX=    37.0859   YX=    24.6050   ZX=   -31.4785
   XY=    23.5476   YY=    -8.8710   ZY=    52.1489
   XZ=   -51.2629   YZ=    41.9916   ZZ=   140.8479
   Eigenvalues:   -39.3462    44.8728   163.5363
     26  C    Isotropic =    57.9997   Anisotropy =   156.8077
   XX=    -0.4626   YX=     1.9242   ZX=   -32.3396
   XY=   -12.0046   YY=    30.4078   ZY=    34.0896
   XZ=   -28.2206   YZ=    46.4293   ZZ=   144.0539
   Eigenvalues:    -6.8844    18.3453   162.5381
     27  O    Isotropic =   206.0119   Anisotropy =   109.2040
   XX=   149.4729   YX=    28.6233   ZX=    -9.5181
   XY=    31.3121   YY=   271.8312   ZY=    29.6040
   XZ=   -52.2443   YZ=   -11.8368   ZZ=   196.7315
   Eigenvalues:   127.6232   211.5979   278.8146
     28  C    Isotropic =   114.9391   Anisotropy =    65.8098
   XX=   154.4172   YX=     5.6247   ZX=    15.4987
   XY=    -3.0616   YY=    94.9949   ZY=    -2.9218
   XZ=    17.8819   YZ=    -9.4002   ZZ=    95.4052
   Eigenvalues:    86.4105    99.5945   158.8123
     29  C    Isotropic =   154.2519   Anisotropy =    15.0656
   XX=   161.5704   YX=     1.4808   ZX=     1.4744
   XY=    11.6857   YY=   144.8286   ZY=     3.2838
   XZ=     1.9280   YZ=    -1.6020   ZZ=   156.3567
   Eigenvalues:   142.5459   155.9142   164.2956
     30  C    Isotropic =   150.8429   Anisotropy =    27.0631
   XX=   163.6463   YX=    -9.4025   ZX=    -5.9873
   XY=    -2.5501   YY=   152.2786   ZY=     3.9647
   XZ=    -8.8615   YZ=     8.2841   ZZ=   136.6038
   Eigenvalues:   133.5406   150.1031   168.8849
     31  C    Isotropic =    80.2102   Anisotropy =   117.1490
   XX=    77.4489   YX=    29.2683   ZX=   -18.5023
   XY=    31.2148   YY=   141.5698   ZY=   -17.1063
   XZ=   -20.1473   YZ=   -21.9978   ZZ=    21.6120
   Eigenvalues:    14.7251    67.5960   158.3096
     32  C    Isotropic =    22.5725   Anisotropy =   144.4113
   XX=    -7.1096   YX=    53.6614   ZX=    20.7371
   XY=    52.4762   YY=    90.6772   ZY=   -38.6001
   XZ=    28.1549   YZ=   -36.9556   ZZ=   -15.8500
   Eigenvalues:   -62.8113    11.6821   118.8468
     33  C    Isotropic =    64.5418   Anisotropy =   167.7760
   XX=    21.2732   YX=    54.2486   ZX=   -33.0040
   XY=    71.2399   YY=   141.0200   ZY=   -31.4194
   XZ=   -21.1409   YZ=   -21.5760   ZZ=    31.3322
   Eigenvalues:   -11.4071    28.6400   176.3924
     34  C    Isotropic =    50.6425   Anisotropy =   172.8468
   XX=    46.2966   YX=    43.7375   ZX=   -29.9739
   XY=    39.1868   YY=   142.2903   ZY=   -32.1320
   XZ=   -34.6824   YZ=   -29.9293   ZZ=   -36.6593
   Eigenvalues:   -49.2620    35.3158   165.8737
     35  C    Isotropic =    77.0421   Anisotropy =   127.0924
   XX=    53.5491   YX=    53.6728   ZX=    27.1943
   XY=    49.8077   YY=   132.2507   ZY=   -33.4366
   XZ=    20.4875   YZ=   -35.4818   ZZ=    45.3264
   Eigenvalues:    -2.0864    71.4422   161.7703
     36  C    Isotropic =    23.8718   Anisotropy =   141.2607
   XX=   -32.1561   YX=    57.2791   ZX=   -28.6705
   XY=    55.8226   YY=    91.2341   ZY=   -12.5568
   XZ=   -31.3775   YZ=   -11.7087   ZZ=    12.5373
   Eigenvalues:   -61.9160    15.4858   118.0456
     37  O    Isotropic =   277.7380   Anisotropy =    94.4919
   XX=   279.5029   YX=    -2.7290   ZX=    14.7072
   XY=    29.7188   YY=   225.2426   ZY=   -27.1022
   XZ=    12.5428   YZ=   -43.3639   ZZ=   328.4684
   Eigenvalues:   210.1976   282.2837   340.7326
     38  C    Isotropic =   126.3571   Anisotropy =    92.6569
   XX=   157.5816   YX=   -36.0139   ZX=    20.9821
   XY=   -41.9023   YY=   114.6830   ZY=   -14.8182
   XZ=    18.2598   YZ=   -15.9489   ZZ=   106.8068
   Eigenvalues:    90.5385   100.4045   188.1284
     39  O    Isotropic =   263.3222   Anisotropy =    90.1332
   XX=   246.0588   YX=   -43.6185   ZX=    59.4326
   XY=   -31.9254   YY=   284.3776   ZY=     3.4791
   XZ=    31.7628   YZ=   -14.1498   ZZ=   259.5302
   Eigenvalues:   198.5762   267.9794   323.4110
     40  C    Isotropic =   127.7701   Anisotropy =    90.0646
   XX=    98.3749   YX=    -2.5077   ZX=     8.0809
   XY=    -2.9722   YY=    98.0070   ZY=     1.3292
   XZ=     8.7376   YZ=     5.0008   ZZ=   186.9283
   Eigenvalues:    94.7211   100.7759   187.8132
     41  O    Isotropic =   262.4288   Anisotropy =    89.7492
   XX=   292.3291   YX=     0.0073   ZX=   -24.1264
   XY=    -3.3137   YY=   210.5156   ZY=    49.6008
   XZ=   -33.3979   YZ=    14.6580   ZZ=   284.4417
   Eigenvalues:   197.6684   267.3565   322.2616
     42  C    Isotropic =   127.6951   Anisotropy =    90.0287
   XX=   104.4393   YX=    -3.4798   ZX=    17.8437
   XY=    -4.1667   YY=    96.1105   ZY=    -8.3698
   XZ=    20.6444   YZ=    -6.2204   ZZ=   182.5355
   Eigenvalues:    94.6209   100.7501   187.7142
     43  O    Isotropic =   276.4866   Anisotropy =    95.3147
   XX=   211.5837   YX=     7.9810   ZX=    -2.0202
   XY=   -17.1599   YY=   280.7366   ZY=    -1.7667
   XZ=   -22.9414   YZ=   -19.0440   ZZ=   337.1395
   Eigenvalues:   209.9096   279.5204   340.0297
     44  C    Isotropic =   126.4752   Anisotropy =    92.4546
   XX=   132.6220   YX=   -36.9766   ZX=   -34.4212
   XY=   -30.8725   YY=   119.7639   ZY=    23.8988
   XZ=   -33.2018   YZ=    22.5458   ZZ=   127.0395
   Eigenvalues:    90.5919   100.7221   188.1116
     45  H    Isotropic =    24.8614   Anisotropy =     6.5834
   XX=    26.0969   YX=     1.9786   ZX=     2.5854
   XY=     2.8992   YY=    23.6166   ZY=     3.5395
   XZ=     0.7482   YZ=     1.1240   ZZ=    24.8708
   Eigenvalues:    21.5468    23.7871    29.2503
     46  H    Isotropic =    24.2078   Anisotropy =     6.9307
   XX=    27.5763   YX=     2.5608   ZX=    -0.9115
   XY=     3.0477   YY=    22.5145   ZY=     0.5760
   XZ=    -0.4006   YZ=     1.4803   ZZ=    22.5327
   Eigenvalues:    20.5375    23.2577    28.8283
     47  H    Isotropic =    25.3298   Anisotropy =     7.0780
   XX=    28.9644   YX=     2.4959   ZX=     0.4872
   XY=     2.6366   YY=    23.9295   ZY=    -1.4790
   XZ=     1.2134   YZ=    -1.4920   ZZ=    23.0956
   Eigenvalues:    21.2683    24.6727    30.0485
     48  H    Isotropic =    28.5842   Anisotropy =     5.3719
   XX=    27.3847   YX=     0.5227   ZX=     1.1345
   XY=    -0.4714   YY=    27.5950   ZY=    -3.7070
   XZ=    -1.5220   YZ=    -1.3221   ZZ=    30.7730
   Eigenvalues:    26.2052    27.3821    32.1655
     49  H    Isotropic =    28.3343   Anisotropy =    10.2277
   XX=    26.4502   YX=     0.7260   ZX=    -0.8417
   XY=     2.6563   YY=    29.2237   ZY=     6.0346
   XZ=    -1.0670   YZ=     5.6553   ZZ=    29.3290
   Eigenvalues:    22.5313    27.3188    35.1528
     50  H    Isotropic =    28.0662   Anisotropy =     8.9694
   XX=    31.3898   YX=     2.7989   ZX=     0.4653
   XY=     4.0325   YY=    26.4370   ZY=     3.4687
   XZ=     0.9342   YZ=     4.5472   ZZ=    26.3717
   Eigenvalues:    21.9635    28.1892    34.0457
     51  H    Isotropic =    27.0088   Anisotropy =     6.7400
   XX=    30.3346   YX=     0.3578   ZX=    -2.0722
   XY=     1.9011   YY=    25.9191   ZY=    -2.6532
   XZ=    -0.5061   YZ=    -4.6154   ZZ=    24.7729
   Eigenvalues:    21.6594    27.8649    31.5022
     52  H    Isotropic =    27.3767   Anisotropy =     9.2691
   XX=    25.1276   YX=     1.1893   ZX=     1.7766
   XY=     1.5716   YY=    33.2899   ZY=     0.3665
   XZ=     1.3248   YZ=     0.3631   ZZ=    23.7126
   Eigenvalues:    22.6964    25.8776    33.5561
     53  H    Isotropic =    24.7080   Anisotropy =    12.9514
   XX=    23.4484   YX=    -0.5929   ZX=     0.1215
   XY=    -3.0799   YY=    32.1297   ZY=     1.0441
   XZ=    -1.3139   YZ=     5.9089   ZZ=    18.5461
   Eigenvalues:    17.7040    23.0779    33.3423
     54  H    Isotropic =    28.6616   Anisotropy =    23.1804
   XX=    30.5600   YX=    10.5975   ZX=    -3.3993
   XY=    11.4258   YY=    32.6448   ZY=    -4.7360
   XZ=    -2.0582   YZ=    -5.3201   ZZ=    22.7801
   Eigenvalues:    19.5550    22.3146    44.1152
     55  H    Isotropic =    25.3036   Anisotropy =    15.3062
   XX=    28.5332   YX=    -2.5982   ZX=    -9.2987
   XY=    -0.5729   YY=    27.4622   ZY=     3.6779
   XZ=    -8.4577   YZ=     3.7705   ZZ=    19.9154
   Eigenvalues:    13.9427    26.4604    35.5078
     56  H    Isotropic =    25.3948   Anisotropy =    15.4858
   XX=    31.0972   YX=    -2.3843   ZX=     3.8420
   XY=    -5.0004   YY=    29.3296   ZY=    -4.7729
   XZ=     3.5862   YZ=    -4.5739   ZZ=    15.7575
   Eigenvalues:    13.9264    26.5392    35.7187
     57  H    Isotropic =    26.8931   Anisotropy =    13.4222
   XX=    30.7909   YX=    -5.3647   ZX=    -4.4000
   XY=    -4.8684   YY=    21.6077   ZY=     4.3055
   XZ=    -2.0294   YZ=     3.3091   ZZ=    28.2808
   Eigenvalues:    18.7469    26.0912    35.8412
     58  H    Isotropic =    25.2702   Anisotropy =    12.1867
   XX=    31.3678   YX=     3.9312   ZX=     0.0418
   XY=     2.6505   YY=    25.8988   ZY=     2.0726
   XZ=     3.5176   YZ=     2.8449   ZZ=    18.5439
   Eigenvalues:    17.7516    24.6643    33.3946
     59  H    Isotropic =    27.5747   Anisotropy =     4.5313
   XX=    28.8355   YX=    -2.3913   ZX=    -1.1156
   XY=    -1.0361   YY=    24.1281   ZY=     3.0845
   XZ=     2.5114   YZ=     1.5482   ZZ=    29.7606
   Eigenvalues:    22.7374    29.3912    30.5956
     60  H    Isotropic =    27.7866   Anisotropy =     7.5018
   XX=    30.9933   YX=     3.2025   ZX=     0.4762
   XY=     2.9040   YY=    27.5148   ZY=    -1.4864
   XZ=     2.2291   YZ=    -1.6474   ZZ=    24.8516
   Eigenvalues:    23.2043    27.3677    32.7878
     61  H    Isotropic =    28.0675   Anisotropy =    10.0288
   XX=    26.9708   YX=    -0.1238   ZX=     1.3481
   XY=    -1.6989   YY=    34.5381   ZY=    -0.7817
   XZ=     1.9941   YZ=    -1.0807   ZZ=    22.6936
   Eigenvalues:    22.0902    27.3590    34.7534
     62  H    Isotropic =    28.8624   Anisotropy =     5.9045
   XX=    27.5860   YX=    -2.1248   ZX=    -1.6997
   XY=    -2.8824   YY=    27.8301   ZY=    -3.4982
   XZ=    -3.5177   YZ=    -1.2104   ZZ=    31.1712
   Eigenvalues:    23.5765    30.2120    32.7988
     63  H    Isotropic =    29.1244   Anisotropy =    10.0488
   XX=    30.9073   YX=    -0.2409   ZX=     1.6157
   XY=     3.8023   YY=    33.9245   ZY=     2.9176
   XZ=    -0.9048   YZ=     4.9797   ZZ=    22.5413
   Eigenvalues:    21.3017    30.2478    35.8236
     64  H    Isotropic =    24.8729   Anisotropy =     6.0894
   XX=    28.1870   YX=    -2.1357   ZX=     0.2972
   XY=    -2.2290   YY=    22.5122   ZY=     1.0331
   XZ=     0.6761   YZ=     1.0535   ZZ=    23.9193
   Eigenvalues:    21.2745    24.4117    28.9324
     65  H    Isotropic =    23.9486   Anisotropy =     6.7316
   XX=    27.4844   YX=    -2.0102   ZX=    -2.2156
   XY=    -0.8789   YY=    21.8107   ZY=    -0.2026
   XZ=    -1.5852   YZ=     0.5259   ZZ=    22.5506
   Eigenvalues:    21.3404    22.0690    28.4363
     66  H    Isotropic =    24.8065   Anisotropy =     4.5401
   XX=    27.1031   YX=    -0.8517   ZX=     1.4996
   XY=    -1.2124   YY=    21.6095   ZY=     0.3076
   XZ=     0.8017   YZ=     0.5023   ZZ=    25.7070
   Eigenvalues:    21.3348    25.2515    27.8333
     67  H    Isotropic =    27.6028   Anisotropy =    10.1756
   XX=    33.8335   YX=    -0.0591   ZX=    -3.4717
   XY=    -2.2750   YY=    25.1652   ZY=     0.3925
   XZ=    -0.7197   YZ=    -0.7961   ZZ=    23.8097
   Eigenvalues:    23.2859    25.1360    34.3865
     68  H    Isotropic =    26.8660   Anisotropy =     7.5035
   XX=    30.4689   YX=    -3.0733   ZX=    -0.5239
   XY=    -0.6010   YY=    29.3749   ZY=     0.6272
   XZ=     1.3411   YZ=    -1.4515   ZZ=    20.7544
   Eigenvalues:    20.7237    28.0061    31.8683
     69  H    Isotropic =    28.1132   Anisotropy =     9.4972
   XX=    31.3496   YX=    -0.9471   ZX=     4.6481
   XY=    -2.0747   YY=    26.0028   ZY=    -1.4840
   XZ=     4.3001   YZ=     0.3289   ZZ=    26.9872
   Eigenvalues:    24.1312    25.7637    34.4447
     70  H    Isotropic =    27.5118   Anisotropy =     8.5539
   XX=    24.7717   YX=     3.2189   ZX=     0.3560
   XY=     2.5251   YY=    25.1521   ZY=     0.1526
   XZ=    -4.2199   YZ=    -0.9727   ZZ=    32.6115
   Eigenvalues:    21.9585    27.3625    33.2143
     71  H    Isotropic =    28.0843   Anisotropy =     9.9224
   XX=    24.8985   YX=     0.0438   ZX=    -1.0149
   XY=    -0.8601   YY=    27.4359   ZY=     2.3815
   XZ=    -3.6318   YZ=     5.4645   ZZ=    31.9187
   Eigenvalues:    23.8979    25.6558    34.6993
     72  H    Isotropic =    28.7342   Anisotropy =     8.2165
   XX=    28.9956   YX=     1.8013   ZX=     1.2242
   XY=    -0.0157   YY=    23.7550   ZY=     0.4284
   XZ=     2.6475   YZ=     0.2160   ZZ=    33.4520
   Eigenvalues:    23.6070    28.3836    34.2119
     73  H    Isotropic =    28.6676   Anisotropy =     8.5778
   XX=    24.0233   YX=    -1.3973   ZX=     1.8945
   XY=    -0.1214   YY=    28.0348   ZY=     0.2852
   XZ=     1.5142   YZ=     1.9789   ZZ=    33.9447
   Eigenvalues:    23.5399    28.0768    34.3861
     74  H    Isotropic =    28.0084   Anisotropy =    10.0308
   XX=    29.6288   YX=    -0.7601   ZX=     3.0865
   XY=    -0.4630   YY=    25.2611   ZY=    -1.2900
   XZ=     6.8774   YZ=    -2.4859   ZZ=    29.1352
   Eigenvalues:    23.6952    25.6343    34.6956
     75  H    Isotropic =    27.5221   Anisotropy =     8.7208
   XX=    23.8687   YX=     0.6924   ZX=     2.2475
   XY=     2.1454   YY=    27.5969   ZY=    -1.1269
   XZ=     2.9908   YZ=    -5.4369   ZZ=    31.1006
   Eigenvalues:    21.8998    27.3305    33.3359
     76  H    Isotropic =    28.1269   Anisotropy =     9.3881
   XX=    26.7142   YX=    -1.8167   ZX=    -3.1733
   XY=    -1.2745   YY=    28.1163   ZY=     4.2680
   XZ=    -1.1211   YZ=     4.9123   ZZ=    29.5501
   Eigenvalues:    24.1601    25.8350    34.3856
     77  H    Isotropic =    27.6439   Anisotropy =    10.1933
   XX=    26.9855   YX=    -4.9007   ZX=    -0.0312
   XY=    -2.9962   YY=    32.2784   ZY=    -0.9523
   XZ=    -1.7355   YZ=     1.7383   ZZ=    23.6679
   Eigenvalues:    23.3794    25.1129    34.4394
     78  H    Isotropic =    26.9027   Anisotropy =     7.4757
   XX=    29.9150   YX=    -0.0335   ZX=    -1.3403
   XY=    -2.3168   YY=    28.6795   ZY=     1.6916
   XZ=    -4.4968   YZ=     2.2230   ZZ=    22.1137
   Eigenvalues:    20.8494    27.9722    31.8866
 End of Minotr F.D. properties file   721 does not exist.
 End of Minotr F.D. properties file   722 does not exist.
 End of Minotr F.D. properties file   788 does not exist.

 **********************************************************************

            Population analysis using the SCF Density.

 **********************************************************************

 Orbital symmetries:
       Occupied  (A) (A) (A) (A) (A) (A) (A) (A) (A) (A) (A) (A)
                 (A) (A) (A) (A) (A) (A) (A) (A) (A) (A) (A) (A)
                 (A) (A) (A) (A) (A) (A) (A) (A) (A) (A) (A) (A)
                 (A) (A) (A) (A) (A) (A) (A) (A) (A) (A) (A) (A)
                 (A) (A) (A) (A) (A) (A) (A) (A) (A) (A) (A) (A)
                 (A) (A) (A) (A) (A) (A) (A) (A) (A) (A) (A) (A)
                 (A) (A) (A) (A) (A) (A) (A) (A) (A) (A) (A) (A)
                 (A) (A) (A) (A) (A) (A) (A) (A) (A) (A) (A) (A)
                 (A) (A) (A) (A) (A) (A) (A) (A) (A) (A) (A) (A)
                 (A) (A) (A) (A) (A) (A) (A) (A) (A) (A) (A) (A)
                 (A) (A) (A) (A) (A) (A) (A) (A) (A) (A) (A) (A)
                 (A) (A) (A) (A) (A) (A) (A) (A) (A) (A) (A) (A)
                 (A) (A) (A) (A) (A) (A) (A) (A) (A) (A) (A) (A)
                 (A) (A) (A)
       Virtual   (A) (A) (A) (A) (A) (A) (A) (A) (A) (A) (A) (A)
                 (A) (A) (A) (A) (A) (A) (A) (A) (A) (A) (A) (A)
                 (A) (A) (A) (A) (A) (A) (A) (A) (A) (A) (A) (A)
                 (A) (A) (A) (A) (A) (A) (A) (A) (A) (A) (A) (A)
                 (A) (A) (A) (A) (A) (A) (A) (A) (A) (A) (A) (A)
                 (A) (A) (A) (A) (A) (A) (A) (A) (A) (A) (A) (A)
                 (A) (A) (A) (A) (A) (A) (A) (A) (A) (A) (A) (A)
                 (A) (A) (A) (A) (A) (A) (A) (A) (A) (A) (A) (A)
                 (A) (A) (A) (A) (A) (A) (A) (A) (A) (A) (A) (A)
                 (A) (A) (A) (A) (A) (A) (A) (A) (A) (A) (A) (A)
                 (A) (A) (A) (A) (A) (A) (A) (A) (A) (A) (A) (A)
                 (A) (A) (A) (A) (A) (A) (A) (A) (A) (A) (A) (A)
                 (A) (A) (A) (A) (A) (A) (A) (A) (A) (A) (A) (A)
                 (A) (A) (A) (A) (A) (A) (A) (A) (A) (A) (A) (A)
                 (A) (A) (A) (A) (A) (A) (A) (A) (A) (A) (A) (A)
                 (A) (A) (A) (A) (A) (A) (A) (A) (A) (A) (A) (A)
                 (A) (A) (A) (A) (A) (A) (A) (A) (A) (A) (A) (A)
                 (A) (A) (A) (A) (A) (A) (A) (A) (A) (A) (A) (A)
                 (A) (A) (A) (A) (A) (A) (A) (A) (A) (A) (A) (A)
                 (A) (A) (A) (A) (A) (A) (A) (A) (A) (A) (A) (A)
                 (A) (A) (A) (A) (A) (A) (A) (A) (A) (A) (A) (A)
                 (A) (A) (A) (A) (A) (A) (A) (A) (A) (A) (A) (A)
                 (A) (A) (A) (A) (A) (A) (A) (A) (A) (A) (A) (A)
                 (A) (A) (A) (A) (A) (A) (A) (A) (A) (A) (A) (A)
                 (A) (A) (A) (A) (A) (A) (A) (A) (A) (A) (A) (A)
                 (A) (A) (A) (A) (A) (A) (A) (A) (A) (A) (A) (A)
                 (A) (A) (A) (A) (A) (A) (A) (A) (A) (A) (A) (A)
                 (A) (A) (A) (A) (A) (A) (A) (A) (A) (A) (A) (A)
                 (A) (A) (A) (A) (A) (A) (A) (A) (A) (A) (A) (A)
                 (A) (A) (A) (A) (A) (A) (A) (A) (A) (A) (A) (A)
                 (A) (A) (A) (A) (A) (A) (A) (A) (A) (A) (A) (A)
                 (A) (A) (A) (A) (A) (A) (A) (A) (A) (A) (A) (A)
                 (A) (A) (A) (A) (A) (A) (A) (A) (A) (A) (A) (A)
                 (A) (A) (A) (A) (A) (A) (A) (A) (A) (A) (A) (A)
                 (A) (A) (A) (A) (A) (A) (A) (A) (A) (A) (A) (A)
                 (A) (A) (A) (A) (A) (A) (A) (A) (A) (A) (A) (A)
                 (A) (A) (A) (A) (A) (A) (A) (A) (A) (A) (A) (A)
                 (A) (A) (A) (A) (A) (A) (A) (A) (A) (A) (A) (A)
                 (A) (A) (A) (A) (A) (A) (A) (A) (A) (A) (A) (A)
                 (A) (A) (A) (A) (A) (A) (A) (A) (A) (A) (A) (A)
                 (A) (A) (A) (A) (A) (A) (A) (A) (A) (A) (A) (A)
                 (A) (A) (A) (A) (A) (A) (A) (A) (A) (A) (A) (A)
                 (A) (A) (A) (A) (A) (A) (A) (A) (A) (A) (A) (A)
                 (A) (A) (A) (A) (A) (A) (A) (A) (A) (A) (A) (A)
                 (A) (A) (A) (A) (A) (A) (A) (A) (A) (A) (A) (A)
                 (A) (A) (A) (A) (A) (A) (A) (A) (A) (A) (A) (A)
                 (A) (A) (A) (A) (A) (A) (A) (A) (A) (A) (A) (A)
                 (A) (A) (A) (A) (A) (A) (A) (A) (A) (A) (A) (A)
                 (A) (A) (A) (A) (A) (A) (A) (A) (A) (A) (A) (A)
                 (A) (A) (A) (A) (A) (A) (A) (A) (A) (A) (A) (A)
                 (A) (A) (A) (A) (A) (A) (A) (A) (A) (A) (A) (A)
                 (A) (A) (A) (A) (A) (A) (A) (A) (A) (A) (A) (A)
                 (A) (A) (A) (A) (A) (A) (A) (A) (A) (A) (A) (A)
                 (A) (A) (A) (A) (A) (A) (A) (A) (A) (A) (A) (A)
                 (A) (A) (A) (A) (A) (A) (A) (A) (A) (A) (A) (A)
                 (A) (A) (A) (A) (A) (A) (A) (A) (A) (A) (A) (A)
                 (A) (A) (A) (A) (A) (A) (A) (A) (A) (A) (A) (A)
                 (A) (A) (A) (A) (A) (A) (A) (A) (A) (A) (A) (A)
                 (A) (A) (A) (A) (A) (A) (A) (A) (A) (A) (A) (A)
                 (A) (A) (A) (A) (A) (A) (A) (A) (A) (A) (A) (A)
                 (A) (A) (A) (A) (A) (A) (A) (A) (A) (A) (A) (A)
                 (A) (A) (A) (A) (A) (A) (A) (A) (A) (A) (A) (A)
                 (A) (A) (A) (A) (A) (A) (A) (A) (A) (A) (A) (A)
                 (A) (A) (A) (A) (A) (A) (A) (A) (A) (A) (A) (A)
                 (A) (A) (A) (A) (A) (A) (A) (A) (A) (A) (A) (A)
                 (A) (A) (A) (A) (A) (A) (A) (A) (A) (A) (A) (A)
                 (A) (A) (A) (A) (A) (A) (A) (A) (A) (A) (A) (A)
                 (A) (A) (A) (A) (A) (A) (A) (A) (A) (A) (A) (A)
                 (A) (A) (A) (A) (A) (A) (A) (A) (A) (A) (A) (A)
                 (A) (A) (A) (A) (A) (A) (A) (A) (A) (A) (A) (A)
                 (A) (A) (A) (A) (A) (A) (A) (A) (A) (A) (A) (A)
                 (A) (A) (A) (A) (A) (A) (A) (A) (A) (A) (A) (A)
                 (A) (A) (A) (A) (A) (A) (A) (A) (A) (A) (A) (A)
                 (A) (A) (A) (A) (A) (A) (A) (A) (A) (A) (A) (A)
                 (A) (A) (A) (A) (A) (A) (A) (A) (A) (A) (A) (A)
                 (A) (A) (A) (A) (A) (A) (A) (A) (A) (A) (A) (A)
                 (A) (A) (A) (A) (A) (A) (A) (A) (A) (A) (A) (A)
                 (A) (A) (A) (A) (A) (A) (A) (A) (A) (A) (A) (A)
                 (A) (A) (A) (A) (A) (A) (A) (A) (A) (A) (A) (A)
                 (A) (A) (A) (A) (A) (A) (A) (A) (A) (A) (A) (A)
                 (A) (A) (A) (A) (A) (A) (A) (A) (A) (A) (A) (A)
                 (A) (A) (A) (A) (A) (A) (A) (A) (A) (A) (A) (A)
                 (A) (A) (A) (A) (A) (A) (A) (A) (A) (A) (A) (A)
                 (A) (A) (A) (A) (A) (A) (A) (A) (A) (A) (A) (A)
                 (A) (A) (A) (A) (A) (A) (A) (A) (A) (A) (A) (A)
                 (A) (A) (A) (A) (A) (A) (A) (A) (A) (A) (A) (A)
                 (A) (A) (A) (A) (A) (A) (A) (A) (A) (A) (A) (A)
                 (A) (A) (A) (A) (A) (A) (A) (A) (A) (A) (A) (A)
                 (A) (A) (A) (A) (A) (A) (A) (A) (A) (A) (A) (A)
                 (A) (A) (A) (A) (A) (A) (A) (A) (A) (A) (A) (A)
                 (A) (A) (A) (A) (A) (A) (A) (A) (A) (A) (A) (A)
                 (A) (A) (A) (A) (A) (A) (A) (A) (A) (A) (A) (A)
                 (A) (A) (A) (A) (A) (A) (A) (A) (A) (A) (A) (A)
                 (A) (A) (A) (A) (A) (A) (A) (A) (A) (A) (A) (A)
                 (A) (A) (A) (A) (A) (A) (A) (A) (A) (A) (A) (A)
                 (A) (A) (A) (A) (A) (A) (A) (A) (A) (A) (A) (A)
                 (A) (A) (A) (A) (A) (A) (A) (A) (A) (A) (A) (A)
                 (A) (A) (A) (A) (A) (A) (A) (A) (A) (A) (A) (A)
                 (A) (A) (A) (A) (A) (A) (A) (A) (A) (A) (A) (A)
                 (A) (A) (A) (A) (A) (A) (A) (A) (A) (A) (A) (A)
                 (A) (A) (A) (A) (A) (A) (A) (A) (A) (A) (A) (A)
                 (A) (A) (A) (A) (A) (A) (A)
 The electronic state is 1-A.
 Alpha  occ. eigenvalues --  -19.25138 -19.25100 -19.25075 -19.25011 -19.24981
 Alpha  occ. eigenvalues --  -19.24681 -19.24487 -19.24146 -19.23525 -19.23489
 Alpha  occ. eigenvalues --  -10.30433 -10.30083 -10.30035 -10.29908 -10.29847
 Alpha  occ. eigenvalues --  -10.29683 -10.29596 -10.29508 -10.29239 -10.29166
 Alpha  occ. eigenvalues --  -10.28087 -10.28005 -10.27280 -10.27263 -10.26903
 Alpha  occ. eigenvalues --  -10.26869 -10.24710 -10.24669 -10.24594 -10.24586
 Alpha  occ. eigenvalues --  -10.24480 -10.24453 -10.24333 -10.24182 -10.23807
 Alpha  occ. eigenvalues --  -10.23746 -10.23744 -10.23546 -10.23526 -10.23401
 Alpha  occ. eigenvalues --  -10.23326 -10.23180 -10.22815 -10.22750  -1.11069
 Alpha  occ. eigenvalues --   -1.11009  -1.09660  -1.09416  -1.09388  -1.08843
 Alpha  occ. eigenvalues --   -1.08570  -1.08548  -1.07257  -1.07033  -0.89633
 Alpha  occ. eigenvalues --   -0.88356  -0.88067  -0.87698  -0.84374  -0.83540
 Alpha  occ. eigenvalues --   -0.79895  -0.78642  -0.78110  -0.77873  -0.77547
 Alpha  occ. eigenvalues --   -0.75750  -0.75653  -0.75024  -0.72634  -0.71297
 Alpha  occ. eigenvalues --   -0.69777  -0.69644  -0.68840  -0.68499  -0.66391
 Alpha  occ. eigenvalues --   -0.66158  -0.65462  -0.63516  -0.63048  -0.62060
 Alpha  occ. eigenvalues --   -0.61839  -0.60742  -0.59200  -0.58258  -0.58064
 Alpha  occ. eigenvalues --   -0.56891  -0.55786  -0.55428  -0.54015  -0.53522
 Alpha  occ. eigenvalues --   -0.52415  -0.51956  -0.51621  -0.50998  -0.50887
 Alpha  occ. eigenvalues --   -0.50407  -0.50150  -0.49338  -0.49150  -0.48771
 Alpha  occ. eigenvalues --   -0.48688  -0.47932  -0.47258  -0.46941  -0.46829
 Alpha  occ. eigenvalues --   -0.46512  -0.46304  -0.45274  -0.45133  -0.44851
 Alpha  occ. eigenvalues --   -0.44625  -0.44433  -0.44411  -0.44102  -0.43628
 Alpha  occ. eigenvalues --   -0.43488  -0.43139  -0.42413  -0.42314  -0.41990
 Alpha  occ. eigenvalues --   -0.41725  -0.41463  -0.41217  -0.40834  -0.40575
 Alpha  occ. eigenvalues --   -0.40424  -0.40246  -0.39660  -0.39594  -0.39225
 Alpha  occ. eigenvalues --   -0.38873  -0.37203  -0.37162  -0.36932  -0.36755
 Alpha  occ. eigenvalues --   -0.36593  -0.36499  -0.35093  -0.34754  -0.34579
 Alpha  occ. eigenvalues --   -0.34301  -0.34194  -0.33807  -0.33108  -0.32688
 Alpha  occ. eigenvalues --   -0.32401  -0.32071  -0.31603  -0.31066  -0.28690
 Alpha  occ. eigenvalues --   -0.28418  -0.25107  -0.24875  -0.24696  -0.24546
 Alpha  occ. eigenvalues --   -0.24352  -0.23039  -0.22149  -0.21652
 Alpha virt. eigenvalues --   -0.01772  -0.01535  -0.01113  -0.00798  -0.00328
 Alpha virt. eigenvalues --    0.00295   0.00502   0.00661   0.00968   0.01183
 Alpha virt. eigenvalues --    0.01491   0.01833   0.02170   0.02413   0.02689
 Alpha virt. eigenvalues --    0.02936   0.02975   0.03173   0.03770   0.03981
 Alpha virt. eigenvalues --    0.04133   0.04342   0.04396   0.04625   0.04877
 Alpha virt. eigenvalues --    0.05200   0.05467   0.05839   0.05983   0.06344
 Alpha virt. eigenvalues --    0.06437   0.06671   0.06922   0.07082   0.07279
 Alpha virt. eigenvalues --    0.07690   0.08021   0.08207   0.08657   0.08776
 Alpha virt. eigenvalues --    0.09074   0.09285   0.09416   0.09748   0.09900
 Alpha virt. eigenvalues --    0.10400   0.10632   0.10761   0.10895   0.11240
 Alpha virt. eigenvalues --    0.11317   0.11473   0.11648   0.12266   0.12444
 Alpha virt. eigenvalues --    0.12540   0.12866   0.12983   0.13088   0.13186
 Alpha virt. eigenvalues --    0.13350   0.13467   0.13748   0.13889   0.14167
 Alpha virt. eigenvalues --    0.14313   0.14483   0.14676   0.14974   0.15061
 Alpha virt. eigenvalues --    0.15261   0.15389   0.15691   0.15787   0.16000
 Alpha virt. eigenvalues --    0.16089   0.16197   0.16546   0.16584   0.16881
 Alpha virt. eigenvalues --    0.16964   0.17042   0.17361   0.17516   0.17622
 Alpha virt. eigenvalues --    0.17855   0.17953   0.18063   0.18184   0.18479
 Alpha virt. eigenvalues --    0.18720   0.19073   0.19133   0.19391   0.19418
 Alpha virt. eigenvalues --    0.19622   0.19794   0.19936   0.20164   0.20243
 Alpha virt. eigenvalues --    0.20468   0.20629   0.20793   0.21104   0.21234
 Alpha virt. eigenvalues --    0.21283   0.21453   0.21670   0.21742   0.21884
 Alpha virt. eigenvalues --    0.22029   0.22284   0.22406   0.22481   0.22530
 Alpha virt. eigenvalues --    0.22648   0.22857   0.23269   0.23440   0.23489
 Alpha virt. eigenvalues --    0.23709   0.23885   0.24020   0.24090   0.24235
 Alpha virt. eigenvalues --    0.24339   0.24606   0.24725   0.24953   0.25052
 Alpha virt. eigenvalues --    0.25312   0.25539   0.25643   0.25678   0.25976
 Alpha virt. eigenvalues --    0.26043   0.26343   0.26496   0.26657   0.26776
 Alpha virt. eigenvalues --    0.26858   0.27248   0.27414   0.27514   0.27799
 Alpha virt. eigenvalues --    0.27909   0.28113   0.28221   0.28409   0.28471
 Alpha virt. eigenvalues --    0.28685   0.28814   0.28841   0.29188   0.29248
 Alpha virt. eigenvalues --    0.29517   0.29557   0.29631   0.29955   0.30232
 Alpha virt. eigenvalues --    0.30331   0.30613   0.30630   0.30691   0.30956
 Alpha virt. eigenvalues --    0.31056   0.31371   0.31667   0.31735   0.31850
 Alpha virt. eigenvalues --    0.32001   0.32111   0.32302   0.32560   0.32644
 Alpha virt. eigenvalues --    0.32874   0.32969   0.33269   0.33496   0.33599
 Alpha virt. eigenvalues --    0.33891   0.33978   0.34227   0.34342   0.34547
 Alpha virt. eigenvalues --    0.34693   0.34818   0.35245   0.35304   0.35340
 Alpha virt. eigenvalues --    0.35670   0.36037   0.36340   0.36558   0.36792
 Alpha virt. eigenvalues --    0.36900   0.36983   0.37256   0.37293   0.37574
 Alpha virt. eigenvalues --    0.37790   0.37954   0.38225   0.38406   0.38572
 Alpha virt. eigenvalues --    0.38852   0.39077   0.39293   0.39588   0.39595
 Alpha virt. eigenvalues --    0.40014   0.40128   0.40213   0.40373   0.40608
 Alpha virt. eigenvalues --    0.40825   0.41028   0.41275   0.41381   0.41461
 Alpha virt. eigenvalues --    0.41833   0.42060   0.42206   0.42635   0.42670
 Alpha virt. eigenvalues --    0.43011   0.43364   0.43834   0.44004   0.44415
 Alpha virt. eigenvalues --    0.44659   0.45116   0.45170   0.45244   0.45855
 Alpha virt. eigenvalues --    0.46180   0.46336   0.46448   0.46796   0.47121
 Alpha virt. eigenvalues --    0.47449   0.47716   0.47910   0.48620   0.48825
 Alpha virt. eigenvalues --    0.49247   0.49478   0.49883   0.50541   0.50716
 Alpha virt. eigenvalues --    0.51182   0.51824   0.51932   0.52260   0.52671
 Alpha virt. eigenvalues --    0.52889   0.53691   0.53811   0.54245   0.54663
 Alpha virt. eigenvalues --    0.54887   0.55253   0.55452   0.55535   0.55764
 Alpha virt. eigenvalues --    0.56610   0.56852   0.57013   0.57243   0.57342
 Alpha virt. eigenvalues --    0.57760   0.58288   0.58431   0.58651   0.58818
 Alpha virt. eigenvalues --    0.59165   0.59505   0.59600   0.59835   0.60058
 Alpha virt. eigenvalues --    0.60364   0.60824   0.60994   0.61315   0.61416
 Alpha virt. eigenvalues --    0.61655   0.62203   0.62428   0.62567   0.63089
 Alpha virt. eigenvalues --    0.63182   0.63346   0.63646   0.63977   0.64177
 Alpha virt. eigenvalues --    0.64268   0.64825   0.64947   0.65235   0.65674
 Alpha virt. eigenvalues --    0.65868   0.66087   0.66265   0.66511   0.66798
 Alpha virt. eigenvalues --    0.67090   0.67189   0.67254   0.67488   0.67817
 Alpha virt. eigenvalues --    0.67984   0.68256   0.68390   0.68634   0.68925
 Alpha virt. eigenvalues --    0.69006   0.69490   0.69610   0.69808   0.69921
 Alpha virt. eigenvalues --    0.70236   0.70386   0.70590   0.70735   0.70947
 Alpha virt. eigenvalues --    0.71171   0.71458   0.71937   0.72122   0.72261
 Alpha virt. eigenvalues --    0.72449   0.72701   0.73006   0.73090   0.73221
 Alpha virt. eigenvalues --    0.73437   0.73861   0.74164   0.74419   0.74512
 Alpha virt. eigenvalues --    0.74856   0.75098   0.75273   0.75409   0.75819
 Alpha virt. eigenvalues --    0.75886   0.76297   0.76672   0.76741   0.76932
 Alpha virt. eigenvalues --    0.77067   0.77372   0.77568   0.77881   0.78158
 Alpha virt. eigenvalues --    0.78493   0.78581   0.78909   0.79146   0.79323
 Alpha virt. eigenvalues --    0.79513   0.79880   0.80278   0.80339   0.80689
 Alpha virt. eigenvalues --    0.80797   0.81064   0.81499   0.81768   0.81935
 Alpha virt. eigenvalues --    0.82270   0.82467   0.82813   0.82977   0.83178
 Alpha virt. eigenvalues --    0.83482   0.83914   0.84138   0.84448   0.84522
 Alpha virt. eigenvalues --    0.84836   0.85121   0.85279   0.85638   0.85852
 Alpha virt. eigenvalues --    0.86163   0.86727   0.86945   0.87166   0.87238
 Alpha virt. eigenvalues --    0.87922   0.88030   0.88526   0.88762   0.88936
 Alpha virt. eigenvalues --    0.89317   0.89659   0.89724   0.90131   0.90486
 Alpha virt. eigenvalues --    0.90864   0.91440   0.91626   0.91648   0.92171
 Alpha virt. eigenvalues --    0.92458   0.92614   0.93026   0.93549   0.93642
 Alpha virt. eigenvalues --    0.93727   0.94142   0.94308   0.94603   0.95464
 Alpha virt. eigenvalues --    0.95894   0.96113   0.96349   0.96742   0.96959
 Alpha virt. eigenvalues --    0.97061   0.97775   0.98301   0.98540   0.98892
 Alpha virt. eigenvalues --    0.99364   0.99780   1.00313   1.00688   1.01274
 Alpha virt. eigenvalues --    1.01418   1.01944   1.02017   1.02520   1.03133
 Alpha virt. eigenvalues --    1.03336   1.03732   1.04017   1.04329   1.04757
 Alpha virt. eigenvalues --    1.05569   1.05803   1.06246   1.06740   1.07015
 Alpha virt. eigenvalues --    1.07566   1.07734   1.08119   1.08451   1.08715
 Alpha virt. eigenvalues --    1.09290   1.09403   1.09768   1.10216   1.10351
 Alpha virt. eigenvalues --    1.10973   1.11658   1.11719   1.12082   1.12286
 Alpha virt. eigenvalues --    1.12417   1.12759   1.13161   1.13467   1.13830
 Alpha virt. eigenvalues --    1.14231   1.14794   1.14987   1.15384   1.15560
 Alpha virt. eigenvalues --    1.15599   1.16310   1.16608   1.16880   1.17125
 Alpha virt. eigenvalues --    1.17267   1.17833   1.18445   1.18520   1.18645
 Alpha virt. eigenvalues --    1.19077   1.19126   1.19632   1.19848   1.20292
 Alpha virt. eigenvalues --    1.20644   1.21251   1.21433   1.21585   1.21928
 Alpha virt. eigenvalues --    1.22284   1.22576   1.23067   1.23165   1.23590
 Alpha virt. eigenvalues --    1.23690   1.24334   1.24778   1.25130   1.25251
 Alpha virt. eigenvalues --    1.25491   1.26047   1.26575   1.27313   1.27379
 Alpha virt. eigenvalues --    1.27698   1.27937   1.28142   1.28515   1.28781
 Alpha virt. eigenvalues --    1.29291   1.29470   1.30251   1.30425   1.30696
 Alpha virt. eigenvalues --    1.31253   1.31586   1.31907   1.32320   1.32719
 Alpha virt. eigenvalues --    1.33087   1.33574   1.33791   1.34045   1.34308
 Alpha virt. eigenvalues --    1.34724   1.35107   1.35413   1.35764   1.35967
 Alpha virt. eigenvalues --    1.36740   1.36954   1.37295   1.37407   1.37679
 Alpha virt. eigenvalues --    1.38240   1.38636   1.39019   1.39474   1.39583
 Alpha virt. eigenvalues --    1.39872   1.40097   1.40404   1.41219   1.41639
 Alpha virt. eigenvalues --    1.41822   1.42220   1.42627   1.43273   1.43481
 Alpha virt. eigenvalues --    1.43878   1.44176   1.44449   1.45034   1.45312
 Alpha virt. eigenvalues --    1.45558   1.46419   1.46523   1.46861   1.47233
 Alpha virt. eigenvalues --    1.47427   1.47629   1.48499   1.48660   1.48883
 Alpha virt. eigenvalues --    1.49259   1.49579   1.49861   1.50204   1.50749
 Alpha virt. eigenvalues --    1.50983   1.51263   1.51476   1.51712   1.52520
 Alpha virt. eigenvalues --    1.52877   1.53453   1.53641   1.53893   1.54010
 Alpha virt. eigenvalues --    1.54893   1.55475   1.55998   1.56104   1.56847
 Alpha virt. eigenvalues --    1.57703   1.58042   1.58738   1.59334   1.59494
 Alpha virt. eigenvalues --    1.60336   1.60915   1.60922   1.61785   1.62567
 Alpha virt. eigenvalues --    1.63062   1.63500   1.64131   1.64855   1.65483
 Alpha virt. eigenvalues --    1.66058   1.67209   1.67348   1.67925   1.68277
 Alpha virt. eigenvalues --    1.69215   1.69595   1.70320   1.70904   1.71322
 Alpha virt. eigenvalues --    1.71828   1.72669   1.72868   1.73579   1.74212
 Alpha virt. eigenvalues --    1.74531   1.75432   1.75671   1.76061   1.76490
 Alpha virt. eigenvalues --    1.76683   1.77574   1.77796   1.78113   1.78376
 Alpha virt. eigenvalues --    1.78746   1.79498   1.79976   1.80464   1.80607
 Alpha virt. eigenvalues --    1.81114   1.81615   1.82409   1.82846   1.83701
 Alpha virt. eigenvalues --    1.83787   1.84150   1.84723   1.85373   1.86183
 Alpha virt. eigenvalues --    1.86765   1.87315   1.88266   1.88581   1.89123
 Alpha virt. eigenvalues --    1.89600   1.90370   1.90930   1.91396   1.92230
 Alpha virt. eigenvalues --    1.92497   1.93132   1.94182   1.95013   1.95644
 Alpha virt. eigenvalues --    1.96088   1.96267   1.96798   1.97361   1.97954
 Alpha virt. eigenvalues --    1.98345   1.98722   1.99025   1.99538   1.99748
 Alpha virt. eigenvalues --    2.00036   2.00660   2.01323   2.01647   2.02089
 Alpha virt. eigenvalues --    2.02384   2.03049   2.03570   2.04320   2.04979
 Alpha virt. eigenvalues --    2.05779   2.05973   2.06147   2.06894   2.07426
 Alpha virt. eigenvalues --    2.07847   2.08516   2.08857   2.09150   2.10199
 Alpha virt. eigenvalues --    2.10490   2.11760   2.12303   2.12999   2.13828
 Alpha virt. eigenvalues --    2.15426   2.15661   2.16783   2.17246   2.19543
 Alpha virt. eigenvalues --    2.19592   2.20514   2.21567   2.22229   2.22463
 Alpha virt. eigenvalues --    2.23776   2.24467   2.25401   2.26008   2.26517
 Alpha virt. eigenvalues --    2.27056   2.27289   2.28100   2.28299   2.29062
 Alpha virt. eigenvalues --    2.29250   2.29379   2.30139   2.30374   2.31107
 Alpha virt. eigenvalues --    2.31905   2.32060   2.32434   2.33503   2.34144
 Alpha virt. eigenvalues --    2.34880   2.35330   2.35635   2.35777   2.36388
 Alpha virt. eigenvalues --    2.37269   2.37845   2.37988   2.39190   2.39602
 Alpha virt. eigenvalues --    2.40605   2.41228   2.41284   2.41509   2.42036
 Alpha virt. eigenvalues --    2.42786   2.43139   2.43806   2.44347   2.44714
 Alpha virt. eigenvalues --    2.45182   2.45805   2.46183   2.46532   2.47182
 Alpha virt. eigenvalues --    2.47600   2.47849   2.47994   2.48908   2.49183
 Alpha virt. eigenvalues --    2.49955   2.51076   2.51776   2.53241   2.53977
 Alpha virt. eigenvalues --    2.54373   2.55058   2.55590   2.57282   2.57588
 Alpha virt. eigenvalues --    2.58810   2.59019   2.59448   2.60226   2.60828
 Alpha virt. eigenvalues --    2.62172   2.63088   2.63686   2.64633   2.65597
 Alpha virt. eigenvalues --    2.66233   2.67392   2.68228   2.68884   2.69687
 Alpha virt. eigenvalues --    2.70672   2.70876   2.72009   2.72624   2.73656
 Alpha virt. eigenvalues --    2.74320   2.74790   2.75485   2.76176   2.76749
 Alpha virt. eigenvalues --    2.77659   2.78029   2.78785   2.79153   2.80240
 Alpha virt. eigenvalues --    2.80668   2.81276   2.81836   2.82423   2.83031
 Alpha virt. eigenvalues --    2.83296   2.83819   2.85325   2.86201   2.87002
 Alpha virt. eigenvalues --    2.88168   2.88521   2.89230   2.90685   2.91190
 Alpha virt. eigenvalues --    2.91478   2.92620   2.93079   2.94485   2.95818
 Alpha virt. eigenvalues --    2.96386   2.96926   2.97117   2.97307   2.98169
 Alpha virt. eigenvalues --    2.98322   2.98892   2.99677   2.99781   3.00535
 Alpha virt. eigenvalues --    3.01348   3.01790   3.02624   3.02887   3.03379
 Alpha virt. eigenvalues --    3.03680   3.04309   3.04641   3.04777   3.05181
 Alpha virt. eigenvalues --    3.05519   3.06291   3.06983   3.07696   3.08002
 Alpha virt. eigenvalues --    3.08935   3.09532   3.10057   3.10675   3.11110
 Alpha virt. eigenvalues --    3.11544   3.11752   3.13288   3.14125   3.15174
 Alpha virt. eigenvalues --    3.15686   3.15988   3.16688   3.17571   3.18422
 Alpha virt. eigenvalues --    3.19145   3.19795   3.20367   3.21076   3.21686
 Alpha virt. eigenvalues --    3.22176   3.23022   3.23620   3.24187   3.24446
 Alpha virt. eigenvalues --    3.25159   3.25995   3.26274   3.26554   3.27155
 Alpha virt. eigenvalues --    3.27592   3.28120   3.28932   3.29497   3.29862
 Alpha virt. eigenvalues --    3.30363   3.30900   3.31759   3.32311   3.33115
 Alpha virt. eigenvalues --    3.34035   3.34457   3.34618   3.34838   3.35374
 Alpha virt. eigenvalues --    3.36215   3.36924   3.37390   3.37740   3.38206
 Alpha virt. eigenvalues --    3.38600   3.38892   3.39277   3.40227   3.40601
 Alpha virt. eigenvalues --    3.40807   3.41330   3.41719   3.42080   3.42275
 Alpha virt. eigenvalues --    3.42469   3.43220   3.43596   3.44001   3.44717
 Alpha virt. eigenvalues --    3.44938   3.45502   3.45988   3.46280   3.46684
 Alpha virt. eigenvalues --    3.46817   3.47725   3.48102   3.48190   3.48961
 Alpha virt. eigenvalues --    3.49266   3.49826   3.50325   3.50520   3.50959
 Alpha virt. eigenvalues --    3.51584   3.52068   3.52396   3.52700   3.53453
 Alpha virt. eigenvalues --    3.53686   3.53955   3.54745   3.55232   3.55549
 Alpha virt. eigenvalues --    3.55910   3.56263   3.56872   3.57324   3.57792
 Alpha virt. eigenvalues --    3.57972   3.58092   3.58813   3.59646   3.60154
 Alpha virt. eigenvalues --    3.60211   3.61037   3.61824   3.61993   3.62131
 Alpha virt. eigenvalues --    3.62709   3.62831   3.63413   3.63925   3.64153
 Alpha virt. eigenvalues --    3.64266   3.64766   3.65322   3.65650   3.65848
 Alpha virt. eigenvalues --    3.66372   3.66803   3.67224   3.67535   3.68012
 Alpha virt. eigenvalues --    3.68093   3.68875   3.69193   3.69854   3.69891
 Alpha virt. eigenvalues --    3.70477   3.71099   3.71673   3.71872   3.71984
 Alpha virt. eigenvalues --    3.72640   3.72858   3.73024   3.73657   3.74153
 Alpha virt. eigenvalues --    3.74286   3.75661   3.75960   3.76192   3.76530
 Alpha virt. eigenvalues --    3.77111   3.77617   3.78246   3.78840   3.79064
 Alpha virt. eigenvalues --    3.79440   3.80434   3.80566   3.81363   3.81758
 Alpha virt. eigenvalues --    3.82059   3.82468   3.83007   3.83535   3.83880
 Alpha virt. eigenvalues --    3.84155   3.84912   3.85531   3.86050   3.86643
 Alpha virt. eigenvalues --    3.87052   3.87450   3.87669   3.88554   3.88990
 Alpha virt. eigenvalues --    3.89340   3.89940   3.90367   3.91428   3.91843
 Alpha virt. eigenvalues --    3.92436   3.92736   3.93059   3.93873   3.94564
 Alpha virt. eigenvalues --    3.94779   3.95430   3.95820   3.97181   3.97694
 Alpha virt. eigenvalues --    3.97966   3.98324   3.99157   3.99973   4.01095
 Alpha virt. eigenvalues --    4.01372   4.02092   4.02870   4.04109   4.05613
 Alpha virt. eigenvalues --    4.06593   4.07267   4.08124   4.08466   4.09340
 Alpha virt. eigenvalues --    4.10240   4.10698   4.12114   4.12506   4.13376
 Alpha virt. eigenvalues --    4.13532   4.14876   4.16199   4.16619   4.17998
 Alpha virt. eigenvalues --    4.19599   4.20243   4.21156   4.21734   4.21910
 Alpha virt. eigenvalues --    4.22157   4.22934   4.23628   4.24089   4.24214
 Alpha virt. eigenvalues --    4.25790   4.26679   4.27782   4.28252   4.28424
 Alpha virt. eigenvalues --    4.29468   4.29918   4.31716   4.32144   4.32633
 Alpha virt. eigenvalues --    4.33953   4.34961   4.35549   4.37091   4.37782
 Alpha virt. eigenvalues --    4.43077   4.44738   4.45429   4.46441   4.46919
 Alpha virt. eigenvalues --    4.49177   4.50325   4.52472   4.53773   4.55827
 Alpha virt. eigenvalues --    4.56289   4.58873   4.61435   4.65137   4.68503
 Alpha virt. eigenvalues --    4.70007   4.72001   4.79111   4.79915   4.82572
 Alpha virt. eigenvalues --    4.83273   4.83812   4.87519   4.92979   4.95073
 Alpha virt. eigenvalues --    5.06808   5.07734   5.10163   5.10281   5.17788
 Alpha virt. eigenvalues --    5.18879   5.22851   5.24250   5.24997   5.28185
 Alpha virt. eigenvalues --    5.29314   5.30099   5.30370   5.41702   5.42388
 Alpha virt. eigenvalues --    5.46788   5.51294   5.55838   5.57098   5.60333
 Alpha virt. eigenvalues --    5.61052   5.61337   5.65755   5.71951   5.72219
 Alpha virt. eigenvalues --    5.84709   5.85612   5.94507   5.96237   5.97091
 Alpha virt. eigenvalues --    5.98323   6.02962   6.04953   6.05222   6.06339
 Alpha virt. eigenvalues --    6.87173   6.89420   6.90149   6.92435   6.98428
 Alpha virt. eigenvalues --    6.99316   6.99498   7.00542   7.04389   7.04799
 Alpha virt. eigenvalues --    7.06159   7.06342   7.07018   7.07526   7.07630
 Alpha virt. eigenvalues --    7.08396   7.09694   7.11107   7.11515   7.11978
 Alpha virt. eigenvalues --    7.12543   7.12962   7.14151   7.15272   7.17913
 Alpha virt. eigenvalues --    7.18625   7.20249   7.21408   7.26512   7.26706
 Alpha virt. eigenvalues --    7.31717   7.33297   7.34806   7.35437   7.38021
 Alpha virt. eigenvalues --    7.38602   7.38969   7.41992   7.42541   7.42612
 Alpha virt. eigenvalues --    7.45790   7.46415   7.49355   7.50544   7.55514
 Alpha virt. eigenvalues --    7.55789   7.58710   7.59068   7.59794   7.60418
 Alpha virt. eigenvalues --   23.81104  23.83350  23.83705  23.88419  24.01246
 Alpha virt. eigenvalues --   24.02927  24.06534  24.07313  24.07955  24.09107
 Alpha virt. eigenvalues --   24.09289  24.12021  24.12398  24.12947  24.13261
 Alpha virt. eigenvalues --   24.13644  24.14027  24.17815  24.17968  24.20652
 Alpha virt. eigenvalues --   24.22065  24.24233  24.25292  24.25818  24.29156
 Alpha virt. eigenvalues --   24.29503  24.31230  24.32602  24.33875  24.34478
 Alpha virt. eigenvalues --   24.36700  24.40284  24.41730  24.52598  50.10650
 Alpha virt. eigenvalues --   50.12353  50.12692  50.14346  50.16948  50.17853
 Alpha virt. eigenvalues --   50.20815  50.21583  50.22349  50.23325
          Condensed to atoms (all electrons):
 Mulliken charges:
               1
     1  C    0.075024
     2  C   -0.223353
     3  C    0.105253
     4  C    1.335934
     5  C   -0.476069
     6  C   -0.809053
     7  C   -1.008579
     8  C    0.103625
     9  C   -0.288659
    10  O   -0.303668
    11  C    0.783428
    12  C   -0.337639
    13  C    0.129630
    14  C    0.045893
    15  C   -0.179446
    16  C   -0.140648
    17  O   -0.372902
    18  O   -0.488373
    19  O   -0.510654
    20  O   -0.422821
    21  C   -0.321542
    22  C   -0.377121
    23  C   -0.003084
    24  C    0.454629
    25  C   -0.382449
    26  C    0.602182
    27  O   -0.360960
    28  C   -0.551194
    29  C    0.389571
    30  C   -0.246249
    31  C   -0.710588
    32  C   -0.310159
    33  C    0.941083
    34  C   -0.395870
    35  C   -0.162855
    36  C    0.063285
    37  O   -0.452426
    38  C   -0.266217
    39  O   -0.308266
    40  C   -0.262002
    41  O   -0.295016
    42  C   -0.249005
    43  O   -0.438401
    44  C   -0.253322
    45  H    0.183185
    46  H    0.150172
    47  H    0.150414
    48  H    0.212750
    49  H    0.204582
    50  H    0.153806
    51  H    0.191682
    52  H    0.189379
    53  H    0.193521
    54  H    0.360901
    55  H    0.347026
    56  H    0.345920
    57  H    0.313454
    58  H    0.207473
    59  H    0.188412
    60  H    0.198770
    61  H    0.156133
    62  H    0.186511
    63  H    0.208838
    64  H    0.151955
    65  H    0.172743
    66  H    0.156436
    67  H    0.179033
    68  H    0.194026
    69  H    0.185946
    70  H    0.196047
    71  H    0.180893
    72  H    0.188528
    73  H    0.187099
    74  H    0.180596
    75  H    0.199436
    76  H    0.187806
    77  H    0.179442
    78  H    0.196135
 Sum of Mulliken charges =  -0.00000
 Mulliken charges with hydrogens summed into heavy atoms:
               1
     1  C    0.075024
     2  C   -0.040168
     3  C    0.255425
     4  C    1.335934
     5  C   -0.476069
     6  C   -0.658639
     7  C   -0.591247
     8  C    0.257431
     9  C    0.092403
    10  O   -0.303668
    11  C    0.783428
    12  C   -0.144117
    13  C    0.129630
    14  C    0.045893
    15  C   -0.179446
    16  C   -0.140648
    17  O   -0.012002
    18  O   -0.141348
    19  O   -0.164734
    20  O   -0.109367
    21  C   -0.321542
    22  C   -0.377121
    23  C   -0.003084
    24  C    0.454629
    25  C   -0.174976
    26  C    0.602182
    27  O   -0.360960
    28  C   -0.164012
    29  C    0.545704
    30  C    0.149101
    31  C   -0.558633
    32  C   -0.310159
    33  C    0.941083
    34  C   -0.223127
    35  C   -0.006419
    36  C    0.063285
    37  O   -0.452426
    38  C    0.292788
    39  O   -0.308266
    40  C    0.303466
    41  O   -0.295016
    42  C    0.318125
    43  O   -0.438401
    44  C    0.310061
 Electronic spatial extent (au):  <R**2>=          25376.2151
 Charge=             -0.0000 electrons
 Dipole moment (field-independent basis, Debye):
    X=             -5.9591    Y=              2.0948    Z=             -5.1659  Tot=              8.1600
 Quadrupole moment (field-independent basis, Debye-Ang):
   XX=           -219.3687   YY=           -244.0009   ZZ=           -243.0994
   XY=            -12.3436   XZ=            -26.5964   YZ=              9.2515
 Traceless Quadrupole moment (field-independent basis, Debye-Ang):
   XX=             16.1210   YY=             -8.5113   ZZ=             -7.6098
   XY=            -12.3436   XZ=            -26.5964   YZ=              9.2515
 Octapole moment (field-independent basis, Debye-Ang**2):
  XXX=           -140.1501  YYY=            154.1250  ZZZ=              0.3567  XYY=           -146.9112
  XXY=            -59.2632  XXZ=           -124.4370  XZZ=            -53.9574  YZZ=             10.9074
  YYZ=            -26.6613  XYZ=             14.3396
 Hexadecapole moment (field-independent basis, Debye-Ang**3):
 XXXX=         -16776.4810 YYYY=          -9700.3960 ZZZZ=          -2357.8016 XXXY=           -653.5371
 XXXZ=          -1325.7608 YYYX=           -236.6562 YYYZ=              3.5770 ZZZX=            -77.0514
 ZZZY=             -2.9324 XXYY=          -5109.7009 XXZZ=          -3683.6774 YYZZ=          -2160.0525
 XXYZ=             -2.8136 YYXZ=             15.5892 ZZXY=            -67.9014
 N-N= 5.605654424000D+03 E-N=-1.604525184000D+04  KE= 2.059485388058D+03
 Unable to Open any file for archive entry.
 1\1\GINC-C04B60N01\SP\RmPW1PW91\6-311+G(2d,p)\C34H34O10\ROOT\25-Sep-20
 25\0\\# mPW1PW91/6-311+g(2d,p) NMR scrf(SMD,solvent=dmso) geom=connect
 ivity\\58RS\\0,1\C,0,2.776715,-2.547868,-0.09183\C,0,2.650956,-2.31744
 3,-1.469492\C,0,1.453237,-2.641757,-2.103901\C,0,0.373959,-3.212145,-1
 .422232\C,0,0.533091,-3.449957,-0.044925\C,0,1.717236,-3.113441,0.6185
 79\C,0,-0.940305,-3.515635,-2.111161\C,0,-2.082097,-3.66288,-1.09378\C
 ,0,-1.565524,-4.57064,0.030905\O,0,-0.45653,-3.983631,0.72978\C,0,-2.6
 0111,-2.35471,-0.524725\C,0,-1.931288,-1.137728,-0.658328\C,0,-2.37014
 2,0.05137,-0.057287\C,0,-3.541764,0.018957,0.716789\C,0,-4.262639,-1.1
 7625,0.818264\C,0,-3.79523,-2.349497,0.210464\O,0,3.913876,-2.256381,0
 .602191\O,0,-4.518058,-3.497078,0.351382\O,0,0.916903,4.630384,-0.5227
 29\O,0,8.007342,-0.395485,1.059454\C,0,0.139866,3.518342,-0.403804\C,0
 ,-1.227348,3.614115,-0.708427\C,0,-2.064627,2.497767,-0.618168\C,0,-1.
 538566,1.273002,-0.169506\C,0,-0.169052,1.203963,0.118626\C,0,0.693901
 ,2.298055,0.00087\O,0,3.824643,1.537771,1.992114\C,0,2.423899,1.567252
 ,1.673847\C,0,2.17268,2.162265,0.286294\C,0,2.872009,1.273033,-0.75752
 2\C,0,5.901262,0.57759,1.481455\C,0,4.638078,0.987023,1.045324\C,0,4.2
 4672,0.847932,-0.298436\C,0,5.166003,0.267406,-1.179196\C,0,6.423513,-
 0.172166,-0.762838\C,0,6.791859,-0.003274,0.57952\O,0,-5.418013,-1.307
 775,1.563942\C,0,-6.528005,-0.513054,1.102432\O,0,-3.965606,1.143691,1
 .381468\C,0,-3.811059,1.064821,2.805824\O,0,-3.386192,2.590545,-0.9797
 11\C,0,-3.590283,2.741358,-2.391939\O,0,-1.654282,4.849335,-1.156133\C
 ,0,-2.638266,5.487058,-0.317832\H,0,3.474524,-1.885065,-2.028925\H,0,1
 .347682,-2.438728,-3.167355\H,0,1.807998,-3.296133,1.684267\H,0,-1.168
 958,-2.735081,-2.845154\H,0,-0.863787,-4.455684,-2.672665\H,0,-2.91580
 6,-4.19512,-1.565551\H,0,-2.324959,-4.744958,0.793298\H,0,-1.253048,-5
 .537056,-0.387543\H,0,-1.015287,-1.097578,-1.234871\H,0,4.504977,-1.72
 7081,0.036322\H,0,-5.28588,-3.258112,0.908201\H,0,0.317024,5.337152,-0
 .834433\H,0,8.518365,-0.787304,0.329314\H,0,0.234121,0.247768,0.438753
 \H,0,1.962187,2.171457,2.457522\H,0,2.031013,0.544774,1.738466\H,0,2.6
 31029,3.1554,0.272653\H,0,2.936358,1.801048,-1.716161\H,0,2.25601,0.38
 2397,-0.935656\H,0,6.17533,0.695595,2.524409\H,0,4.886484,0.153499,-2.
 223559\H,0,7.115161,-0.623574,-1.469559\H,0,-7.380538,-0.793958,1.7242
 44\H,0,-6.315459,0.552556,1.217835\H,0,-6.747106,-0.735188,0.051641\H,
 0,-4.420624,0.261587,3.232693\H,0,-4.144473,2.026744,3.202148\H,0,-2.7
 5836,0.906159,3.070911\H,0,-3.164658,1.888932,-2.935878\H,0,-4.672057,
 2.764802,-2.542593\H,0,-3.148345,3.670938,-2.765228\H,0,-2.262389,5.58
 4269,0.707236\H,0,-2.80339,6.47802,-0.745561\H,0,-3.571877,4.919337,-0
 .316456\\Version=ES64L-G16RevC.02\State=1-A\HF=-2068.4221286\RMSD=3.56
 2e-09\Dipole=-2.3444911,0.8241677,-2.0324243\Quadrupole=11.9855851,-6.
 3279165,-5.6576686,-9.1771396,-19.773785,6.8782442\PG=C01 [X(C34H34O10
 )]\\@
 The archive entry for this job was punched.


 VIRTUE IS LEARNED AT YOUR MOTHER'S KNEE,
 VICES ARE PICKED UP AT SOME OTHER JOINT.
 Job cpu time:       0 days 11 hours 34 minutes 19.6 seconds.
 Elapsed time:       0 days  0 hours 14 minutes 46.2 seconds.
 File lengths (MBytes):  RWF=   1581 Int=      0 D2E=      0 Chk=    151 Scr=      1
 Normal termination of Gaussian 16 at Thu Sep 25 21:24:49 2025.
