 Entering Gaussian System, Link 0=/home/tupf/tupf_yangsy/lustre1/g16/Gaussian16_AVX2/g16/g16
 Input=58RS_19.gjf
 Output=58RS_19.log
 Initial command:
 /home/tupf/tupf_yangsy/lustre1/g16/Gaussian16_AVX2/g16/l1.exe "/home/tupf/tupf_yangsy/lustre1/g16/tmp/Gau-2622767.inp" -scrdir="/home/tupf/tupf_yangsy/lustre1/g16/tmp/"
 Entering Link 1 = /home/tupf/tupf_yangsy/lustre1/g16/Gaussian16_AVX2/g16/l1.exe PID=   2622768.
  
 Copyright (c) 1988-2021, Gaussian, Inc.  All Rights Reserved.
  
 This is part of the Gaussian(R) 16 program.  It is based on
 the Gaussian(R) 09 system (copyright 2009, Gaussian, Inc.),
 the Gaussian(R) 03 system (copyright 2003, Gaussian, Inc.),
 the Gaussian(R) 98 system (copyright 1998, Gaussian, Inc.),
 the Gaussian(R) 94 system (copyright 1995, Gaussian, Inc.),
 the Gaussian 92(TM) system (copyright 1992, Gaussian, Inc.),
 the Gaussian 90(TM) system (copyright 1990, Gaussian, Inc.),
 the Gaussian 88(TM) system (copyright 1988, Gaussian, Inc.),
 the Gaussian 86(TM) system (copyright 1986, Carnegie Mellon
 University), and the Gaussian 82(TM) system (copyright 1983,
 Carnegie Mellon University). Gaussian is a federally registered
 trademark of Gaussian, Inc.
  
 This software contains proprietary and confidential information,
 including trade secrets, belonging to Gaussian, Inc.
  
 This software is provided under written license and may be
 used, copied, transmitted, or stored only in accord with that
 written license.
  
 The following legend is applicable only to US Government
 contracts under FAR:
  
                    RESTRICTED RIGHTS LEGEND
  
 Use, reproduction and disclosure by the US Government is
 subject to restrictions as set forth in subparagraphs (a)
 and (c) of the Commercial Computer Software - Restricted
 Rights clause in FAR 52.227-19.
  
 Gaussian, Inc.
 340 Quinnipiac St., Bldg. 40, Wallingford CT 06492
  
  
 ---------------------------------------------------------------
 Warning -- This program may not be used in any manner that
 competes with the business of Gaussian, Inc. or will provide
 assistance to any competitor of Gaussian, Inc.  The licensee
 of this program is prohibited from giving any competitor of
 Gaussian, Inc. access to this program.  By using this program,
 the user acknowledges that Gaussian, Inc. is engaged in the
 business of creating and licensing software in the field of
 computational chemistry and represents and warrants to the
 licensee that it is not a competitor of Gaussian, Inc. and that
 it will not use this program in any manner prohibited above.
 ---------------------------------------------------------------
  

 Cite this work as:
 Gaussian 16, Revision C.02,
 M. J. Frisch, G. W. Trucks, H. B. Schlegel, G. E. Scuseria, 
 M. A. Robb, J. R. Cheeseman, G. Scalmani, V. Barone, 
 G. A. Petersson, H. Nakatsuji, X. Li, M. Caricato, A. V. Marenich, 
 J. Bloino, B. G. Janesko, R. Gomperts, B. Mennucci, H. P. Hratchian, 
 J. V. Ortiz, A. F. Izmaylov, J. L. Sonnenberg, D. Williams-Young, 
 F. Ding, F. Lipparini, F. Egidi, J. Goings, B. Peng, A. Petrone, 
 T. Henderson, D. Ranasinghe, V. G. Zakrzewski, J. Gao, N. Rega, 
 G. Zheng, W. Liang, M. Hada, M. Ehara, K. Toyota, R. Fukuda, 
 J. Hasegawa, M. Ishida, T. Nakajima, Y. Honda, O. Kitao, H. Nakai, 
 T. Vreven, K. Throssell, J. A. Montgomery, Jr., J. E. Peralta, 
 F. Ogliaro, M. J. Bearpark, J. J. Heyd, E. N. Brothers, K. N. Kudin, 
 V. N. Staroverov, T. A. Keith, R. Kobayashi, J. Normand, 
 K. Raghavachari, A. P. Rendell, J. C. Burant, S. S. Iyengar, 
 J. Tomasi, M. Cossi, J. M. Millam, M. Klene, C. Adamo, R. Cammi, 
 J. W. Ochterski, R. L. Martin, K. Morokuma, O. Farkas, 
 J. B. Foresman, and D. J. Fox, Gaussian, Inc., Wallingford CT, 2019.
 
 ******************************************
 Gaussian 16:  ES64L-G16RevC.02  7-Dec-2021
                25-Sep-2025 
 ******************************************
 %mem=400GB
 %nprocshared=64
 Will use up to   64 processors via shared memory.
 ---------------------------------------------------------------------
 # mPW1PW91/6-311+g(2d,p) NMR scrf(SMD,solvent=dmso) geom=connectivity
 ---------------------------------------------------------------------
 1/38=1,57=2,172=1/1;
 2/12=2,17=6,18=5,40=1/2;
 3/5=4,6=6,7=112,11=2,25=1,30=1,70=32201,72=21,74=-7/1,2,3,8;
 4//1;
 5/5=2,38=5,53=21/2;
 8/6=1,10=90,11=11/1;
 10/13=100,45=16/2;
 6/7=2,8=2,9=2,10=2,28=1/1;
 99/9=1/99;
 ----
 58RS
 ----
 Symbolic Z-matrix:
 Charge =  0 Multiplicity = 1
 C                     4.19918  -3.61354  -0.00087 
 C                     3.62947  -3.72254   1.27349 
 C                     3.71488  -2.63745   2.144 
 C                     4.35353  -1.44499   1.79088 
 C                     4.92752  -1.37139   0.50903 
 C                     4.86505  -2.44953  -0.37686 
 C                     4.35704  -0.23885   2.70599 
 C                     4.61701   1.05665   1.92061 
 C                     5.81049   0.78999   0.99336 
 O                     5.53566  -0.24383   0.03578 
 C                     3.42484   1.57454   1.13681 
 C                     2.34089   0.77683   0.77367 
 C                     1.26428   1.24096   0.00292 
 C                     1.27345   2.58202  -0.4204 
 C                     2.35443   3.40228  -0.07346 
 C                     3.41616   2.9053    0.69343 
 O                     4.12707  -4.62282  -0.92275 
 O                     4.4537    3.73474   0.99891 
 O                    -2.81011  -2.46002  -1.32969 
 O                    -9.87033   0.55755   1.1243 
 C                    -1.85845  -1.53343  -1.01484 
 C                    -0.51253  -1.85864  -1.25048 
 C                     0.50169  -0.94758  -0.94764 
 C                     0.18094   0.30108  -0.37856 
 C                    -1.17075   0.59944  -0.16937 
 C                    -2.20876  -0.28615  -0.47872 
 O                    -5.79861   0.69039  -1.22101 
 C                    -4.50399   0.11592  -1.46977 
 C                    -3.64349   0.1083   -0.20329 
 C                    -4.33622  -0.77686   0.84743 
 C                    -7.80843   0.58985  -0.02154 
 C                    -6.45185   0.25905  -0.10175 
 C                    -5.81035  -0.4488    0.93109 
 C                    -6.58374  -0.81278   2.03791 
 C                    -7.93786  -0.50067   2.13796 
 C                    -8.54895   0.21053   1.09709 
 O                     2.45257   4.72886  -0.45363 
 C                     2.66926   4.91987  -1.86631 
 O                     0.26656   3.04867  -1.22919 
 C                    -0.52759   4.10712  -0.67327 
 O                     1.80185  -1.31966  -1.19621 
 C                     2.3713   -0.72921  -2.36801 
 O                    -0.30504  -3.08748  -1.83379 
 C                     0.66084  -3.95978  -1.21283 
 H                     3.11573  -4.63416   1.56903 
 H                     3.25129  -2.70863   3.12542 
 H                     5.3084   -2.36377  -1.36309 
 H                     3.40704  -0.17862   3.24843 
 H                     5.1437   -0.33891   3.4652 
 H                     4.93738   1.83802   2.6182 
 H                     6.06712   1.66901   0.40039 
 H                     6.6847    0.4992    1.59174 
 H                     2.32168  -0.2577    1.08546 
 H                     3.61523  -5.35579  -0.53744 
 H                     4.22194   4.60185   0.6102 
 H                    -2.31702  -3.23484  -1.66749 
 H                    -10.26003   0.2254    1.95206 
 H                    -1.4309    1.55506   0.27362 
 H                    -4.0596    0.73957  -2.24862 
 H                    -4.63267  -0.9      -1.85861 
 H                    -3.63301   1.13887   0.17151 
 H                    -3.86247  -0.6331    1.82538 
 H                    -4.1945   -1.83021   0.57929 
 H                    -8.27809   1.13809  -0.83153 
 H                    -6.10448  -1.35321   2.8512 
 H                    -8.51283  -0.79478   3.01279 
 H                     3.56788   4.38356  -2.1925 
 H                     1.80592   4.57422  -2.44116 
 H                     2.80701   5.9934   -2.01075 
 H                    -1.35961   4.25538  -1.36526 
 H                    -0.91869   3.82304   0.31091 
 H                     0.04519   5.03451  -0.58019 
 H                     2.4078    0.36308  -2.28603 
 H                     3.38653  -1.12148  -2.44386 
 H                     1.79882  -1.00766  -3.26175 
 H                     0.61941  -3.86902  -0.12248 
 H                     0.3805   -4.97438  -1.50691 
 H                     1.66841  -3.73247  -1.56123 
 
 Stoichiometry    C34H34O10
 Framework group  C1[X(C34H34O10)]
 Deg. of freedom   228
 Full point group                 C1      NOp   1
 Largest Abelian subgroup         C1      NOp   1
 Largest concise Abelian subgroup C1      NOp   1
                         Standard orientation:                         
 ---------------------------------------------------------------------
 Center     Atomic      Atomic             Coordinates (Angstroms)
 Number     Number       Type             X           Y           Z
 ---------------------------------------------------------------------
      1          6           0        4.199177   -3.613537   -0.000865
      2          6           0        3.629467   -3.722542    1.273487
      3          6           0        3.714882   -2.637446    2.143996
      4          6           0        4.353525   -1.444992    1.790881
      5          6           0        4.927523   -1.371387    0.509025
      6          6           0        4.865053   -2.449529   -0.376858
      7          6           0        4.357036   -0.238851    2.705991
      8          6           0        4.617008    1.056650    1.920607
      9          6           0        5.810494    0.789987    0.993362
     10          8           0        5.535662   -0.243832    0.035782
     11          6           0        3.424835    1.574544    1.136805
     12          6           0        2.340886    0.776830    0.773670
     13          6           0        1.264276    1.240964    0.002920
     14          6           0        1.273448    2.582018   -0.420397
     15          6           0        2.354434    3.402276   -0.073461
     16          6           0        3.416158    2.905299    0.693427
     17          8           0        4.127073   -4.622820   -0.922751
     18          8           0        4.453703    3.734739    0.998905
     19          8           0       -2.810110   -2.460023   -1.329688
     20          8           0       -9.870329    0.557551    1.124298
     21          6           0       -1.858453   -1.533426   -1.014841
     22          6           0       -0.512527   -1.858638   -1.250482
     23          6           0        0.501692   -0.947582   -0.947637
     24          6           0        0.180940    0.301081   -0.378557
     25          6           0       -1.170752    0.599441   -0.169374
     26          6           0       -2.208756   -0.286148   -0.478717
     27          8           0       -5.798613    0.690392   -1.221011
     28          6           0       -4.503989    0.115924   -1.469766
     29          6           0       -3.643491    0.108303   -0.203285
     30          6           0       -4.336221   -0.776861    0.847433
     31          6           0       -7.808431    0.589847   -0.021541
     32          6           0       -6.451847    0.259052   -0.101746
     33          6           0       -5.810352   -0.448798    0.931091
     34          6           0       -6.583740   -0.812782    2.037912
     35          6           0       -7.937863   -0.500668    2.137965
     36          6           0       -8.548952    0.210525    1.097087
     37          8           0        2.452573    4.728855   -0.453634
     38          6           0        2.669258    4.919871   -1.866305
     39          8           0        0.266556    3.048672   -1.229190
     40          6           0       -0.527591    4.107125   -0.673265
     41          8           0        1.801852   -1.319664   -1.196212
     42          6           0        2.371302   -0.729212   -2.368014
     43          8           0       -0.305036   -3.087482   -1.833785
     44          6           0        0.660838   -3.959776   -1.212825
     45          1           0        3.115728   -4.634161    1.569030
     46          1           0        3.251289   -2.708631    3.125420
     47          1           0        5.308402   -2.363773   -1.363087
     48          1           0        3.407039   -0.178617    3.248433
     49          1           0        5.143699   -0.338912    3.465197
     50          1           0        4.937381    1.838018    2.618203
     51          1           0        6.067118    1.669007    0.400394
     52          1           0        6.684696    0.499195    1.591742
     53          1           0        2.321683   -0.257696    1.085461
     54          1           0        3.615225   -5.355788   -0.537441
     55          1           0        4.221940    4.601851    0.610195
     56          1           0       -2.317015   -3.234836   -1.667487
     57          1           0      -10.260031    0.225404    1.952056
     58          1           0       -1.430899    1.555059    0.273619
     59          1           0       -4.059600    0.739570   -2.248618
     60          1           0       -4.632668   -0.900004   -1.858607
     61          1           0       -3.633012    1.138867    0.171514
     62          1           0       -3.862470   -0.633101    1.825382
     63          1           0       -4.194504   -1.830207    0.579294
     64          1           0       -8.278092    1.138094   -0.831525
     65          1           0       -6.104480   -1.353205    2.851197
     66          1           0       -8.512826   -0.794783    3.012790
     67          1           0        3.567881    4.383557   -2.192503
     68          1           0        1.805920    4.574217   -2.441164
     69          1           0        2.807007    5.993396   -2.010748
     70          1           0       -1.359612    4.255384   -1.365263
     71          1           0       -0.918688    3.823042    0.310910
     72          1           0        0.045188    5.034509   -0.580188
     73          1           0        2.407795    0.363083   -2.286027
     74          1           0        3.386533   -1.121478   -2.443864
     75          1           0        1.798822   -1.007657   -3.261746
     76          1           0        0.619407   -3.869023   -0.122481
     77          1           0        0.380497   -4.974378   -1.506912
     78          1           0        1.668408   -3.732472   -1.561226
 ---------------------------------------------------------------------
 Rotational constants (GHZ):           0.1158044           0.0405464           0.0339510
 Standard basis: 6-311+G(2d,p) (5D, 7F)
 There are  1480 symmetry adapted cartesian basis functions of A   symmetry.
 There are  1392 symmetry adapted basis functions of A   symmetry.
  1392 basis functions,  2120 primitive gaussians,  1480 cartesian basis functions
   159 alpha electrons      159 beta electrons
       nuclear repulsion energy      5449.7114628794 Hartrees.
 NAtoms=   78 NActive=   78 NUniq=   78 SFac= 1.00D+00 NAtFMM=   60 NAOKFM=T Big=T
 Integral buffers will be    131072 words long.
 Raffenetti 2 integral format.
 Two-electron integral symmetry is turned on.
 ------------------------------------------------------------------------------
 Polarizable Continuum Model (PCM)
 =================================
 Model                : PCM.
 Atomic radii         : SMD-Coulomb.
 Polarization charges : Total charges.
 Charge compensation  : None.
 Solution method      : On-the-fly selection.
 Cavity type          : VdW (van der Waals Surface) (Alpha=1.000).
 Cavity algorithm     : GePol (No added spheres)
                        Default sphere list used, NSphG=   78.
                        Lebedev-Laikov grids with approx.  5.0 points / Ang**2.
                        Smoothing algorithm: York/Karplus (Gamma=1.0000).
                        Polarization charges: spherical gaussians, with
                                              point-specific exponents (IZeta= 3).
                        Self-potential: point-specific (ISelfS= 7).
                        Self-field    : sphere-specific E.n sum rule (ISelfD= 2).
 Solvent              : DiMethylSulfoxide, Eps=  46.826000 Eps(inf)=   2.185371
 ------------------------------------------------------------------------------
 ------------------------------------------------------------------------------
 Atomic radii for non-electrostatic terms: SMD-CDS.
 ------------------------------------------------------------------------------
 Nuclear repulsion after PCM non-electrostatic terms =     5449.7067941575 Hartrees.
 One-electron integrals computed using PRISM.
 NBasis=  1392 RedAO= T EigKep=  1.05D-06  NBF=  1392
 NBsUse=  1379 1.00D-06 EigRej=  8.66D-07 NBFU=  1379
 ExpMin= 4.38D-02 ExpMax= 8.59D+03 ExpMxC= 1.30D+03 IAcc=3 IRadAn=         5 AccDes= 0.00D+00
 Harris functional with IExCor=  908 and IRadAn=       5 diagonalized for initial guess.
 HarFok:  IExCor=  908 AccDes= 0.00D+00 IRadAn=         5 IDoV= 1 UseB2=F ITyADJ=14
 ICtDFT=  3500011 ScaDFX=  1.000000  1.000000  1.000000  1.000000
 FoFCou: FMM=F IPFlag=           0 FMFlag=      100000 FMFlg1=        2001
         NFxFlg=           0 DoJE=T BraDBF=F KetDBF=T FulRan=T
         wScrn=  0.000000 ICntrl=       500 IOpCl=  0 I1Cent=   200000004 NGrid=           0
         NMat0=    1 NMatS0=      1 NMatT0=    0 NMatD0=    1 NMtDS0=    0 NMtDT0=    0
 Petite list used in FoFCou.
 Requested convergence on RMS density matrix=1.00D-08 within 128 cycles.
 Requested convergence on MAX density matrix=1.00D-06.
 Requested convergence on             energy=1.00D-06.
 No special actions if energy rises.
 Inv3:  Mode=1 IEnd=    86704128.
 Iteration    1 A*A^-1 deviation from unit magnitude is 3.11D-15 for     20.
 Iteration    1 A*A^-1 deviation from orthogonality  is 3.55D-15 for   2875    529.
 Iteration    1 A^-1*A deviation from unit magnitude is 3.33D-15 for   5239.
 Iteration    1 A^-1*A deviation from orthogonality  is 7.20D-13 for   4941   4939.
 Error on total polarization charges =  0.04966
 SCF Done:  E(RmPW1PW91) =  -2068.41744624     A.U. after   14 cycles
            NFock= 14  Conv=0.40D-08     -V/T= 2.0043
 SMD-CDS (non-electrostatic) energy       (kcal/mol) =      -2.93
 (included in total energy above)
 DoSCS=F DFT=T ScalE2(SS,OS)=  1.000000  1.000000
 Range of M.O.s used for correlation:     1  1379
 NBasis=  1392 NAE=   159 NBE=   159 NFC=     0 NFV=     0
 NROrb=   1379 NOA=   159 NOB=   159 NVA=  1220 NVB=  1220

 **** Warning!!: The largest alpha MO coefficient is  0.11485833D+03

 NEqPCM:  Using equilibrium solvation (IEInf=0, Eps=  46.8260, EpsInf=   2.1854)
          Differentiating once with respect to magnetic field using GIAOs.
          Electric field/nuclear overlap derivatives assumed to be zero.
 FoFJK:  IHMeth= 1 ICntrl=    6127 DoSepK=F KAlg= 0 I1Cent=           0 FoldK=F
 IRaf=         1 NMat=       1 IRICut=       1 DoRegI=T DoRafI=F ISym2E= 0 IDoP0=0 IntGTp=1.
          There are     3 degrees of freedom in the 1st order CPHF.  IDoFFX=0 NUNeed=     3.
      3 vectors produced by pass  0 Test12= 6.47D-12 3.33D-08 XBig12= 2.17D+03 3.86D+00.
 AX will form     3 AO Fock derivatives at one time.
      3 vectors produced by pass  1 Test12= 6.47D-12 3.33D-08 XBig12= 6.33D+00 5.09D-01.
      3 vectors produced by pass  2 Test12= 6.47D-12 3.33D-08 XBig12= 3.66D-02 5.01D-02.
      3 vectors produced by pass  3 Test12= 6.47D-12 3.33D-08 XBig12= 1.41D-04 2.97D-03.
      3 vectors produced by pass  4 Test12= 6.47D-12 3.33D-08 XBig12= 4.38D-07 1.56D-04.
      3 vectors produced by pass  5 Test12= 6.47D-12 3.33D-08 XBig12= 1.71D-09 1.02D-05.
      3 vectors produced by pass  6 Test12= 6.47D-12 3.33D-08 XBig12= 7.10D-12 5.80D-07.
 InvSVY:  IOpt=1 It=  1 EMax= 3.55D-15
 Solved reduced A of dimension    21 with     3 vectors.
 Calculating GIAO nuclear magnetic shielding tensors.
 SCF GIAO Magnetic shielding tensor (ppm):
      1  C    Isotropic =    24.1243   Anisotropy =   142.6517
   XX=    92.1582   YX=   -38.3529   ZX=    23.9304
   XY=   -39.4111   YY=   -13.3997   ZY=   -51.7019
   XZ=    25.6762   YZ=   -54.7848   ZZ=    -6.3856
   Eigenvalues:   -64.1994    17.3468   119.2254
      2  C    Isotropic =    76.6519   Anisotropy =   128.8096
   XX=   118.0490   YX=   -62.0272   ZX=    41.3556
   XY=   -58.5922   YY=    30.9213   ZY=     5.5448
   XZ=    35.5332   YZ=     0.5962   ZZ=    80.9855
   Eigenvalues:    -5.0907    72.5215   162.5250
      3  C    Isotropic =    51.5553   Anisotropy =   169.9663
   XX=   111.3026   YX=   -43.7401   ZX=    78.7328
   XY=   -40.8890   YY=    58.9050   ZY=   -11.9658
   XZ=    70.6025   YZ=   -18.8670   ZZ=   -15.5416
   Eigenvalues:   -50.2312    40.0310   164.8662
      4  C    Isotropic =    66.7980   Anisotropy =   167.0550
   XX=   147.8322   YX=   -30.0456   ZX=    38.7685
   XY=   -40.9444   YY=    19.3722   ZY=   -45.9379
   XZ=    53.9664   YZ=   -31.9969   ZZ=    33.1894
   Eigenvalues:   -13.3508    35.5767   178.1680
      5  C    Isotropic =    23.2572   Anisotropy =   143.6245
   XX=    79.5822   YX=   -57.1601   ZX=    40.3581
   XY=   -59.5950   YY=   -30.3037   ZY=     1.0899
   XZ=    44.6689   YZ=     9.7255   ZZ=    20.4930
   Eigenvalues:   -61.9410    12.7057   119.0069
      6  C    Isotropic =    80.0076   Anisotropy =   119.4562
   XX=   128.9741   YX=   -27.8692   ZX=    43.8256
   XY=   -31.9398   YY=    79.7727   ZY=    -8.1701
   XZ=    50.1335   YZ=    -7.1920   ZZ=    31.2760
   Eigenvalues:    12.0814    68.2964   159.6451
      7  C    Isotropic =   155.9621   Anisotropy =     8.7381
   XX=   158.0376   YX=     3.2125   ZX=     0.1712
   XY=    -1.5973   YY=   160.8452   ZY=    -8.9558
   XZ=     3.0699   YZ=     2.1633   ZZ=   149.0037
   Eigenvalues:   147.7914   158.3075   161.7876
      8  C    Isotropic =   152.5178   Anisotropy =    19.3011
   XX=   161.2386   YX=     0.6958   ZX=     9.3592
   XY=    -6.5460   YY=   139.7141   ZY=    -4.5905
   XZ=     2.2421   YZ=     4.8197   ZZ=   156.6008
   Eigenvalues:   139.2747   152.8936   165.3852
      9  C    Isotropic =   115.5281   Anisotropy =    49.2364
   XX=   107.4553   YX=     3.7492   ZX=     9.7555
   XY=     4.9401   YY=   122.6551   ZY=    26.1736
   XZ=     3.5494   YZ=    28.1684   ZZ=   116.4738
   Eigenvalues:    91.9221   106.3097   148.3523
     10  O    Isotropic =   217.7718   Anisotropy =   115.3016
   XX=   261.9967   YX=   -26.5757   ZX=    48.0609
   XY=   -14.8519   YY=   204.6819   ZY=   -61.4910
   XZ=    -4.4833   YZ=   -80.3133   ZZ=   186.6366
   Eigenvalues:   124.1316   234.5442   294.6395
     11  C    Isotropic =    58.5579   Anisotropy =   154.9592
   XX=    40.0251   YX=     0.9644   ZX=   -70.1126
   XY=   -16.2468   YY=    26.4348   ZY=    31.4699
   XZ=   -74.6721   YZ=    31.5761   ZZ=   109.2137
   Eigenvalues:    -9.1984    23.0080   161.8640
     12  C    Isotropic =    53.9037   Anisotropy =   168.9885
   XX=    68.3716   YX=   -15.1980   ZX=   -52.4753
   XY=   -19.2944   YY=   -23.9443   ZY=    54.2868
   XZ=   -52.8201   YZ=    52.8614   ZZ=   117.2839
   Eigenvalues:   -41.9694    37.1179   166.5628
     13  C    Isotropic =    61.1855   Anisotropy =   139.6798
   XX=    34.0536   YX=   -49.9562   ZX=   -57.6657
   XY=   -29.4671   YY=    32.0704   ZY=    20.9891
   XZ=   -52.7409   YZ=    13.4948   ZZ=   117.4325
   Eigenvalues:   -13.5169    42.7680   154.3054
     14  C    Isotropic =    32.2764   Anisotropy =   117.1595
   XX=    20.6102   YX=    -7.5478   ZX=   -49.1568
   XY=     1.0246   YY=    13.5762   ZY=    33.3211
   XZ=   -67.1319   YZ=    24.8938   ZZ=    62.6428
   Eigenvalues:   -25.9380    12.3844   110.3827
     15  C    Isotropic =    41.8577   Anisotropy =   103.3449
   XX=    42.6451   YX=   -10.5332   ZX=   -35.5375
   XY=   -16.2286   YY=     9.2270   ZY=    30.3356
   XZ=   -38.1149   YZ=    37.5419   ZZ=    73.7010
   Eigenvalues:    -5.5016    20.3204   110.7543
     16  C    Isotropic =    33.3144   Anisotropy =   127.1857
   XX=     4.1296   YX=   -42.2057   ZX=   -51.3929
   XY=   -36.0880   YY=     8.6149   ZY=    15.1423
   XZ=   -34.4278   YZ=    30.6604   ZZ=    87.1986
   Eigenvalues:   -35.3267    17.1649   118.1048
     17  O    Isotropic =   210.2408   Anisotropy =    60.9576
   XX=   208.6588   YX=   -15.4834   ZX=    21.2485
   XY=   -17.4355   YY=   223.3808   ZY=    42.1951
   XZ=    26.8396   YZ=    33.5333   ZZ=   198.6828
   Eigenvalues:   155.3024   224.5408   250.8792
     18  O    Isotropic =   229.7034   Anisotropy =   115.1870
   XX=   219.0607   YX=   -24.5550   ZX=   -35.7217
   XY=    23.6649   YY=   201.0946   ZY=    47.4614
   XZ=   -49.2818   YZ=    36.4641   ZZ=   268.9549
   Eigenvalues:   171.7885   210.8269   306.4947
     19  O    Isotropic =   227.1774   Anisotropy =   115.8686
   XX=   194.1715   YX=   -12.7518   ZX=     6.1958
   XY=    38.3538   YY=   216.0237   ZY=   -40.5329
   XZ=    12.5615   YZ=   -67.5937   ZZ=   271.3369
   Eigenvalues:   171.7790   205.3300   304.4231
     20  O    Isotropic =   212.7136   Anisotropy =    65.0332
   XX=   253.8158   YX=    -9.0294   ZX=     1.9105
   XY=    -7.7474   YY=   211.6127   ZY=    26.9018
   XZ=    -4.8328   YZ=    28.2514   ZZ=   172.7124
   Eigenvalues:   158.3472   223.7246   256.0691
     21  C    Isotropic =    33.9106   Anisotropy =   122.5873
   XX=    -3.7974   YX=   -20.3013   ZX=    -0.4069
   XY=   -33.7275   YY=     7.1483   ZY=   -43.4237
   XZ=    -1.5727   YZ=   -41.0627   ZZ=    98.3809
   Eigenvalues:   -32.5116    18.6079   115.6355
     22  C    Isotropic =    39.8066   Anisotropy =   110.1497
   XX=    13.9968   YX=     7.8333   ZX=    13.4607
   XY=     2.3731   YY=    15.3146   ZY=   -38.7215
   XZ=    14.7776   YZ=   -53.5689   ZZ=    90.1082
   Eigenvalues:   -11.3524    17.5324   113.2397
     23  C    Isotropic =    32.4646   Anisotropy =   114.8166
   XX=   -19.5389   YX=    -4.4755   ZX=    15.6432
   XY=    13.4507   YY=    28.0266   ZY=   -41.4153
   XZ=    26.9438   YZ=   -33.2763   ZZ=    88.9062
   Eigenvalues:   -26.5159    14.9007   109.0090
     24  C    Isotropic =    57.5212   Anisotropy =   146.5964
   XX=     6.5776   YX=   -37.5755   ZX=    -5.4742
   XY=   -21.8374   YY=    34.3736   ZY=   -53.1472
   XZ=     5.1833   YZ=   -51.1648   ZZ=   131.6123
   Eigenvalues:   -18.7215    36.0329   155.2521
     25  C    Isotropic =    54.3935   Anisotropy =   141.8609
   XX=    47.8991   YX=    16.6314   ZX=    14.4169
   XY=    12.8340   YY=     1.0249   ZY=   -69.1058
   XZ=    21.2729   YZ=   -71.7629   ZZ=   114.2565
   Eigenvalues:   -37.8967    52.1097   148.9674
     26  C    Isotropic =    60.5553   Anisotropy =   153.5828
   XX=    -0.2614   YX=    16.1351   ZX=    16.9833
   XY=    -6.2613   YY=    44.7357   ZY=   -52.2828
   XZ=    11.3074   YZ=   -56.1937   ZZ=   137.1914
   Eigenvalues:    -5.2917    24.0136   162.9438
     27  O    Isotropic =   208.1696   Anisotropy =    99.7271
   XX=   143.7692   YX=    47.0570   ZX=    13.1998
   XY=    41.6835   YY=   257.3697   ZY=   -15.6175
   XZ=   -12.2492   YZ=    36.7455   ZZ=   223.3698
   Eigenvalues:   128.3983   221.4560   274.6543
     28  C    Isotropic =   116.5864   Anisotropy =    62.4954
   XX=   148.7305   YX=   -25.0747   ZX=    -8.8601
   XY=   -17.4879   YY=   101.1155   ZY=     4.7154
   XZ=    -4.8986   YZ=     9.6981   ZZ=    99.9131
   Eigenvalues:    90.6990   100.8101   158.2500
     29  C    Isotropic =   143.1729   Anisotropy =    32.4046
   XX=   151.9072   YX=    -5.9964   ZX=    -2.1639
   XY=   -18.8945   YY=   146.0088   ZY=    10.5182
   XZ=    -5.4200   YZ=    11.5257   ZZ=   131.6027
   Eigenvalues:   125.3122   139.4305   164.7759
     30  C    Isotropic =   155.8332   Anisotropy =    21.4008
   XX=   166.4051   YX=     5.3088   ZX=    -7.2453
   XY=    -0.2114   YY=   147.1532   ZY=    -1.7014
   XZ=    -6.9926   YZ=    -2.8722   ZZ=   153.9413
   Eigenvalues:   146.4448   150.9544   170.1004
     31  C    Isotropic =    81.6313   Anisotropy =   113.7866
   XX=    64.5801   YX=    30.8927   ZX=    -9.1242
   XY=    27.3329   YY=   121.9841   ZY=    53.7412
   XZ=    -9.8554   YZ=    53.9998   ZZ=    58.3295
   Eigenvalues:    16.2273    71.1775   157.4890
     32  C    Isotropic =    24.1219   Anisotropy =   140.2715
   XX=    -0.6112   YX=    11.5959   ZX=    39.9413
   XY=    11.3773   YY=    85.7143   ZY=    57.1942
   XZ=    46.8725   YZ=    53.1236   ZZ=   -12.7374
   Eigenvalues:   -59.8089    14.5384   117.6362
     33  C    Isotropic =    66.7029   Anisotropy =   159.2493
   XX=     0.2364   YX=    39.6202   ZX=    10.4804
   XY=    28.2356   YY=   131.8078   ZY=    66.1324
   XZ=    14.7815   YZ=    48.4488   ZZ=    68.0646
   Eigenvalues:    -8.0261    35.2657   172.8691
     34  C    Isotropic =    50.7159   Anisotropy =   168.9385
   XX=    28.5909   YX=    45.3564   ZX=   -14.7999
   XY=    51.2243   YY=   110.0993   ZY=    76.6702
   XZ=   -19.2846   YZ=    81.2685   ZZ=    13.4576
   Eigenvalues:   -50.8428    39.6490   163.3416
     35  C    Isotropic =    77.2136   Anisotropy =   125.0159
   XX=    56.2668   YX=     5.5159   ZX=    44.7049
   XY=     8.0939   YY=   134.2545   ZY=    46.5932
   XZ=    40.2403   YZ=    50.6506   ZZ=    41.1194
   Eigenvalues:    -3.2176    74.3007   160.5575
     36  C    Isotropic =    24.1887   Anisotropy =   139.4079
   XX=   -51.7772   YX=    37.4991   ZX=    16.4204
   XY=    39.7122   YY=    86.4179   ZY=    37.8788
   XZ=    13.3679   YZ=    37.8870   ZZ=    37.9254
   Eigenvalues:   -62.0946    17.5333   117.1273
     37  O    Isotropic =   280.9945   Anisotropy =    95.9910
   XX=   250.3154   YX=    -9.3449   ZX=   -60.1274
   XY=    -7.4104   YY=   306.7680   ZY=    26.6706
   XZ=   -31.5415   YZ=    39.5928   ZZ=   285.9002
   Eigenvalues:   217.1849   280.8102   344.9886
     38  C    Isotropic =   126.4552   Anisotropy =    91.3976
   XX=    94.7623   YX=    -1.7958   ZX=   -15.9595
   XY=     2.2015   YY=   104.7495   ZY=   -16.3074
   XZ=   -19.9520   YZ=   -20.2132   ZZ=   179.8537
   Eigenvalues:    90.0842   101.8944   187.3869
     39  O    Isotropic =   260.9366   Anisotropy =   111.0206
   XX=   257.3613   YX=   -16.8756   ZX=   -10.1690
   XY=     8.5075   YY=   191.4844   ZY=     5.1071
   XZ=    18.8753   YZ=    15.9805   ZZ=   333.9642
   Eigenvalues:   190.4064   257.4531   334.9504
     40  C    Isotropic =   126.5697   Anisotropy =    89.7201
   XX=   130.0495   YX=   -38.4175   ZX=   -18.6709
   XY=   -43.8898   YY=   141.5970   ZY=    19.9922
   XZ=   -17.7630   YZ=    18.7001   ZZ=   108.0625
   Eigenvalues:    94.0662    99.2598   186.3831
     41  O    Isotropic =   272.6386   Anisotropy =    98.1111
   XX=   268.3072   YX=   -31.1675   ZX=    23.6399
   XY=   -32.7937   YY=   240.9055   ZY=   -32.0910
   XZ=     6.1204   YZ=   -47.1744   ZZ=   308.7032
   Eigenvalues:   212.1945   267.6754   338.0460
     42  C    Isotropic =   128.2669   Anisotropy =    85.4642
   XX=   119.8822   YX=     9.3822   ZX=   -29.8438
   XY=    14.9776   YY=   108.0673   ZY=   -26.6615
   XZ=   -33.5511   YZ=   -23.9833   ZZ=   156.8513
   Eigenvalues:    97.0793   102.4784   185.2431
     43  O    Isotropic =   272.5934   Anisotropy =   108.5385
   XX=   202.8908   YX=    25.2357   ZX=    -0.8864
   XY=    -2.6233   YY=   271.9809   ZY=    -8.6976
   XZ=    34.3629   YZ=     1.4864   ZZ=   342.9085
   Eigenvalues:   199.0555   273.7724   344.9524
     44  C    Isotropic =   122.9904   Anisotropy =    93.4217
   XX=   127.1084   YX=   -39.7013   ZX=    27.5210
   XY=   -37.4024   YY=   131.4668   ZY=   -26.0489
   XZ=    26.9430   YZ=   -21.6401   ZZ=   110.3961
   Eigenvalues:    88.5488    95.1509   185.2715
     45  H    Isotropic =    25.1186   Anisotropy =     2.7536
   XX=    22.6991   YX=     0.0477   ZX=    -0.0927
   XY=    -0.2185   YY=    25.8197   ZY=     0.6959
   XZ=    -0.3763   YZ=    -0.0172   ZZ=    26.8369
   Eigenvalues:    22.6844    25.7170    26.9543
     46  H    Isotropic =    24.3158   Anisotropy =     5.8834
   XX=    21.9123   YX=     2.1998   ZX=     0.3436
   XY=     1.9162   YY=    27.5177   ZY=    -0.2760
   XZ=     1.3936   YZ=     0.6779   ZZ=    23.5173
   Eigenvalues:    21.0036    23.7056    28.2381
     47  H    Isotropic =    24.9536   Anisotropy =     5.5891
   XX=    24.4197   YX=     0.5285   ZX=    -0.8070
   XY=     0.7319   YY=    27.9050   ZY=     1.8460
   XZ=    -0.5488   YZ=     2.4105   ZZ=    22.5361
   Eigenvalues:    21.5434    24.6378    28.6796
     48  H    Isotropic =    28.7139   Anisotropy =     5.9361
   XX=    28.8865   YX=     0.6724   ZX=    -4.6421
   XY=     0.6399   YY=    27.5554   ZY=     0.3421
   XZ=    -1.5669   YZ=    -2.1821   ZZ=    29.6997
   Eigenvalues:    26.1514    27.3190    32.6713
     49  H    Isotropic =    28.2746   Anisotropy =    10.2862
   XX=    26.1998   YX=     1.8490   ZX=     5.4975
   XY=    -0.0110   YY=    26.6956   ZY=    -1.1120
   XZ=     5.1793   YZ=    -0.6483   ZZ=    31.9284
   Eigenvalues:    22.6270    27.0648    35.1321
     50  H    Isotropic =    28.0513   Anisotropy =     8.7081
   XX=    24.0072   YX=     2.2520   ZX=     3.2171
   XY=     0.9105   YY=    31.4318   ZY=     1.7558
   XZ=     4.2339   YZ=     2.7413   ZZ=    28.7149
   Eigenvalues:    21.9438    28.3534    33.8567
     51  H    Isotropic =    27.0688   Anisotropy =     6.4590
   XX=    27.3555   YX=     1.8891   ZX=    -1.5374
   XY=     1.4524   YY=    30.4802   ZY=    -0.8126
   XZ=    -3.6894   YZ=     0.7387   ZZ=    23.3707
   Eigenvalues:    22.0150    27.8165    31.3748
     52  H    Isotropic =    27.2219   Anisotropy =     9.2870
   XX=    32.1871   YX=     1.3326   ZX=     2.5245
   XY=     1.0798   YY=    24.5277   ZY=     2.4355
   XZ=     2.6558   YZ=     2.0654   ZZ=    24.9511
   Eigenvalues:    22.3903    25.8622    33.4133
     53  H    Isotropic =    24.5484   Anisotropy =    13.6981
   XX=    29.5984   YX=    -3.4917   ZX=     4.2235
   XY=    -1.4898   YY=    22.4612   ZY=     0.7567
   XZ=     8.9628   YZ=    -0.2013   ZZ=    21.5855
   Eigenvalues:    17.4284    22.5363    33.6805
     54  H    Isotropic =    27.2524   Anisotropy =    12.3953
   XX=    24.4516   YX=     4.8176   ZX=    -2.9568
   XY=     4.9212   YY=    33.1072   ZY=    -1.7501
   XZ=    -1.5158   YZ=     0.3206   ZZ=    24.1983
   Eigenvalues:    21.1882    25.0530    35.5159
     55  H    Isotropic =    25.2842   Anisotropy =    15.0256
   XX=    24.3150   YX=    -0.7698   ZX=     6.0954
   XY=    -1.8440   YY=    31.9236   ZY=    -5.9994
   XZ=     7.2463   YZ=    -4.6603   ZZ=    19.6140
   Eigenvalues:    14.1156    26.4356    35.3013
     56  H    Isotropic =    25.5062   Anisotropy =    16.4977
   XX=    31.3458   YX=    -3.4100   ZX=    -2.2507
   XY=    -6.0211   YY=    28.7396   ZY=     6.4576
   XZ=    -1.7929   YZ=     6.1686   ZZ=    16.4333
   Eigenvalues:    13.7707    26.2433    36.5047
     57  H    Isotropic =    27.0601   Anisotropy =    13.6102
   XX=    29.8556   YX=     0.5548   ZX=    -6.5324
   XY=    -0.6492   YY=    21.2592   ZY=    -4.1678
   XZ=    -4.3842   YZ=    -4.7842   ZZ=    30.0656
   Eigenvalues:    18.8719    26.1749    36.1336
     58  H    Isotropic =    24.2967   Anisotropy =    12.2539
   XX=    30.9724   YX=     3.2334   ZX=     0.2925
   XY=     3.7086   YY=    23.7638   ZY=    -1.0166
   XZ=    -2.0283   YZ=    -0.8751   ZZ=    18.1539
   Eigenvalues:    17.9907    22.4334    32.4660
     59  H    Isotropic =    27.4135   Anisotropy =     4.3994
   XX=    29.8897   YX=    -0.2159   ZX=    -1.6287
   XY=    -2.3353   YY=    24.5981   ZY=    -3.0798
   XZ=     0.9471   YZ=    -3.3465   ZZ=    27.7527
   Eigenvalues:    22.3829    29.5111    30.3465
     60  H    Isotropic =    26.8775   Anisotropy =     8.4829
   XX=    28.7044   YX=    -4.8688   ZX=     0.6058
   XY=    -4.0356   YY=    26.5188   ZY=     3.9994
   XZ=     2.0456   YZ=     3.8055   ZZ=    25.4091
   Eigenvalues:    20.0960    28.0036    32.5327
     61  H    Isotropic =    28.4796   Anisotropy =     7.9318
   XX=    30.7204   YX=     1.6236   ZX=    -0.3751
   XY=     3.5394   YY=    31.2963   ZY=     1.2338
   XZ=     0.6889   YZ=     1.9287   ZZ=    23.4223
   Eigenvalues:    23.1001    28.5713    33.7675
     62  H    Isotropic =    28.9304   Anisotropy =     6.2853
   XX=    30.6153   YX=     0.3123   ZX=     1.0383
   XY=     1.9999   YY=    23.1091   ZY=    -0.3892
   XZ=    -0.6484   YZ=    -0.9982   ZZ=    33.0670
   Eigenvalues:    22.8848    30.7859    33.1206
     63  H    Isotropic =    28.0325   Anisotropy =     8.2505
   XX=    28.3989   YX=    -2.2193   ZX=    -3.0196
   XY=    -2.7509   YY=    30.9656   ZY=     0.3967
   XZ=    -6.2084   YZ=     0.1754   ZZ=    24.7331
   Eigenvalues:    21.4524    29.1123    33.5328
     64  H    Isotropic =    24.9572   Anisotropy =     6.8417
   XX=    28.7841   YX=    -0.7738   ZX=    -2.0827
   XY=    -0.6954   YY=    21.8945   ZY=    -1.0596
   XZ=    -1.8326   YZ=    -1.1484   ZZ=    24.1929
   Eigenvalues:    21.1626    24.1906    29.5183
     65  H    Isotropic =    24.2536   Anisotropy =     8.3263
   XX=    27.5850   YX=     0.1060   ZX=    -3.6559
   XY=    -0.3950   YY=    20.8433   ZY=    -0.6568
   XZ=    -3.2705   YZ=    -1.3542   ZZ=    24.3326
   Eigenvalues:    20.3450    22.6114    29.8045
     66  H    Isotropic =    25.0006   Anisotropy =     4.5985
   XX=    27.4639   YX=    -1.7513   ZX=     0.4460
   XY=    -1.3465   YY=    22.8520   ZY=    -2.0122
   XZ=    -0.3081   YZ=    -1.7084   ZZ=    24.6858
   Eigenvalues:    21.4164    25.5190    28.0663
     67  H    Isotropic =    28.1885   Anisotropy =     8.9112
   XX=    28.4371   YX=     0.4069   ZX=    -2.4594
   XY=    -0.0472   YY=    24.8434   ZY=    -1.3535
   XZ=    -5.1488   YZ=    -1.7547   ZZ=    31.2849
   Eigenvalues:    24.2861    26.1500    34.1293
     68  H    Isotropic =    27.1838   Anisotropy =     7.3181
   XX=    26.0908   YX=     2.9010   ZX=    -0.5808
   XY=     2.0395   YY=    24.5107   ZY=    -2.1744
   XZ=     2.8245   YZ=    -3.6072   ZZ=    30.9500
   Eigenvalues:    21.7232    27.7657    32.0625
     69  H    Isotropic =    27.6467   Anisotropy =    10.1300
   XX=    24.6906   YX=     1.9728   ZX=    -0.7483
   XY=     1.5335   YY=    30.0308   ZY=    -2.7775
   XZ=    -0.9476   YZ=    -6.8664   ZZ=    28.2188
   Eigenvalues:    23.8089    24.7312    34.4001
     70  H    Isotropic =    27.7527   Anisotropy =     9.4468
   XX=    31.1471   YX=    -2.8154   ZX=     2.8990
   XY=    -3.9639   YY=    28.8790   ZY=    -1.9328
   XZ=     0.5840   YZ=    -0.8913   ZZ=    23.2319
   Eigenvalues:    22.7645    26.4430    34.0506
     71  H    Isotropic =    28.0192   Anisotropy =     8.1493
   XX=    30.0813   YX=    -0.9651   ZX=    -3.9439
   XY=    -1.8518   YY=    28.5531   ZY=     2.9946
   XZ=    -4.3447   YZ=     0.6540   ZZ=    25.4233
   Eigenvalues:    22.8558    27.7499    33.4521
     72  H    Isotropic =    26.9487   Anisotropy =     8.0069
   XX=    28.7552   YX=    -2.9641   ZX=    -0.0691
   XY=     0.3528   YY=    31.5628   ZY=     0.6583
   XZ=    -1.1223   YZ=     2.2543   ZZ=    20.5281
   Eigenvalues:    20.3175    28.2420    32.2866
     73  H    Isotropic =    29.0358   Anisotropy =     4.2490
   XX=    25.1703   YX=    -0.1718   ZX=    -2.1290
   XY=     1.9186   YY=    31.3174   ZY=     0.8371
   XZ=    -3.0403   YZ=    -0.8261   ZZ=    30.6198
   Eigenvalues:    24.0483    31.1907    31.8685
     74  H    Isotropic =    28.3170   Anisotropy =     5.7782
   XX=    30.2540   YX=    -3.0321   ZX=     0.2542
   XY=     0.6812   YY=    25.4485   ZY=    -1.5378
   XZ=    -4.7699   YZ=     1.2587   ZZ=    29.2485
   Eigenvalues:    25.0517    27.7301    32.1691
     75  H    Isotropic =    28.7056   Anisotropy =     9.2231
   XX=    25.3883   YX=     0.5849   ZX=    -0.9257
   XY=     1.7879   YY=    25.9299   ZY=    -1.7281
   XZ=    -0.4861   YZ=     1.5731   ZZ=    34.7985
   Eigenvalues:    24.4175    26.8449    34.8543
     76  H    Isotropic =    28.3683   Anisotropy =     8.6195
   XX=    29.9665   YX=     0.0175   ZX=     4.0770
   XY=    -2.2215   YY=    27.6209   ZY=    -4.2857
   XZ=     3.1522   YZ=    -3.0411   ZZ=    27.5176
   Eigenvalues:    23.2923    27.6981    34.1147
     77  H    Isotropic =    27.6129   Anisotropy =     8.2237
   XX=    27.4080   YX=    -2.3246   ZX=     1.4817
   XY=    -0.8202   YY=    32.6415   ZY=     1.1358
   XZ=     1.9321   YZ=    -1.0590   ZZ=    22.7893
   Eigenvalues:    22.1993    27.5442    33.0954
     78  H    Isotropic =    26.8205   Anisotropy =     9.7261
   XX=    32.2332   YX=     0.1341   ZX=     1.9351
   XY=    -3.5712   YY=    27.3356   ZY=     0.1574
   XZ=     3.4577   YZ=    -0.0086   ZZ=    20.8927
   Eigenvalues:    20.2546    26.9024    33.3046
 End of Minotr F.D. properties file   721 does not exist.
 End of Minotr F.D. properties file   722 does not exist.
 End of Minotr F.D. properties file   788 does not exist.

 **********************************************************************

            Population analysis using the SCF Density.

 **********************************************************************

 Orbital symmetries:
       Occupied  (A) (A) (A) (A) (A) (A) (A) (A) (A) (A) (A) (A)
                 (A) (A) (A) (A) (A) (A) (A) (A) (A) (A) (A) (A)
                 (A) (A) (A) (A) (A) (A) (A) (A) (A) (A) (A) (A)
                 (A) (A) (A) (A) (A) (A) (A) (A) (A) (A) (A) (A)
                 (A) (A) (A) (A) (A) (A) (A) (A) (A) (A) (A) (A)
                 (A) (A) (A) (A) (A) (A) (A) (A) (A) (A) (A) (A)
                 (A) (A) (A) (A) (A) (A) (A) (A) (A) (A) (A) (A)
                 (A) (A) (A) (A) (A) (A) (A) (A) (A) (A) (A) (A)
                 (A) (A) (A) (A) (A) (A) (A) (A) (A) (A) (A) (A)
                 (A) (A) (A) (A) (A) (A) (A) (A) (A) (A) (A) (A)
                 (A) (A) (A) (A) (A) (A) (A) (A) (A) (A) (A) (A)
                 (A) (A) (A) (A) (A) (A) (A) (A) (A) (A) (A) (A)
                 (A) (A) (A) (A) (A) (A) (A) (A) (A) (A) (A) (A)
                 (A) (A) (A)
       Virtual   (A) (A) (A) (A) (A) (A) (A) (A) (A) (A) (A) (A)
                 (A) (A) (A) (A) (A) (A) (A) (A) (A) (A) (A) (A)
                 (A) (A) (A) (A) (A) (A) (A) (A) (A) (A) (A) (A)
                 (A) (A) (A) (A) (A) (A) (A) (A) (A) (A) (A) (A)
                 (A) (A) (A) (A) (A) (A) (A) (A) (A) (A) (A) (A)
                 (A) (A) (A) (A) (A) (A) (A) (A) (A) (A) (A) (A)
                 (A) (A) (A) (A) (A) (A) (A) (A) (A) (A) (A) (A)
                 (A) (A) (A) (A) (A) (A) (A) (A) (A) (A) (A) (A)
                 (A) (A) (A) (A) (A) (A) (A) (A) (A) (A) (A) (A)
                 (A) (A) (A) (A) (A) (A) (A) (A) (A) (A) (A) (A)
                 (A) (A) (A) (A) (A) (A) (A) (A) (A) (A) (A) (A)
                 (A) (A) (A) (A) (A) (A) (A) (A) (A) (A) (A) (A)
                 (A) (A) (A) (A) (A) (A) (A) (A) (A) (A) (A) (A)
                 (A) (A) (A) (A) (A) (A) (A) (A) (A) (A) (A) (A)
                 (A) (A) (A) (A) (A) (A) (A) (A) (A) (A) (A) (A)
                 (A) (A) (A) (A) (A) (A) (A) (A) (A) (A) (A) (A)
                 (A) (A) (A) (A) (A) (A) (A) (A) (A) (A) (A) (A)
                 (A) (A) (A) (A) (A) (A) (A) (A) (A) (A) (A) (A)
                 (A) (A) (A) (A) (A) (A) (A) (A) (A) (A) (A) (A)
                 (A) (A) (A) (A) (A) (A) (A) (A) (A) (A) (A) (A)
                 (A) (A) (A) (A) (A) (A) (A) (A) (A) (A) (A) (A)
                 (A) (A) (A) (A) (A) (A) (A) (A) (A) (A) (A) (A)
                 (A) (A) (A) (A) (A) (A) (A) (A) (A) (A) (A) (A)
                 (A) (A) (A) (A) (A) (A) (A) (A) (A) (A) (A) (A)
                 (A) (A) (A) (A) (A) (A) (A) (A) (A) (A) (A) (A)
                 (A) (A) (A) (A) (A) (A) (A) (A) (A) (A) (A) (A)
                 (A) (A) (A) (A) (A) (A) (A) (A) (A) (A) (A) (A)
                 (A) (A) (A) (A) (A) (A) (A) (A) (A) (A) (A) (A)
                 (A) (A) (A) (A) (A) (A) (A) (A) (A) (A) (A) (A)
                 (A) (A) (A) (A) (A) (A) (A) (A) (A) (A) (A) (A)
                 (A) (A) (A) (A) (A) (A) (A) (A) (A) (A) (A) (A)
                 (A) (A) (A) (A) (A) (A) (A) (A) (A) (A) (A) (A)
                 (A) (A) (A) (A) (A) (A) (A) (A) (A) (A) (A) (A)
                 (A) (A) (A) (A) (A) (A) (A) (A) (A) (A) (A) (A)
                 (A) (A) (A) (A) (A) (A) (A) (A) (A) (A) (A) (A)
                 (A) (A) (A) (A) (A) (A) (A) (A) (A) (A) (A) (A)
                 (A) (A) (A) (A) (A) (A) (A) (A) (A) (A) (A) (A)
                 (A) (A) (A) (A) (A) (A) (A) (A) (A) (A) (A) (A)
                 (A) (A) (A) (A) (A) (A) (A) (A) (A) (A) (A) (A)
                 (A) (A) (A) (A) (A) (A) (A) (A) (A) (A) (A) (A)
                 (A) (A) (A) (A) (A) (A) (A) (A) (A) (A) (A) (A)
                 (A) (A) (A) (A) (A) (A) (A) (A) (A) (A) (A) (A)
                 (A) (A) (A) (A) (A) (A) (A) (A) (A) (A) (A) (A)
                 (A) (A) (A) (A) (A) (A) (A) (A) (A) (A) (A) (A)
                 (A) (A) (A) (A) (A) (A) (A) (A) (A) (A) (A) (A)
                 (A) (A) (A) (A) (A) (A) (A) (A) (A) (A) (A) (A)
                 (A) (A) (A) (A) (A) (A) (A) (A) (A) (A) (A) (A)
                 (A) (A) (A) (A) (A) (A) (A) (A) (A) (A) (A) (A)
                 (A) (A) (A) (A) (A) (A) (A) (A) (A) (A) (A) (A)
                 (A) (A) (A) (A) (A) (A) (A) (A) (A) (A) (A) (A)
                 (A) (A) (A) (A) (A) (A) (A) (A) (A) (A) (A) (A)
                 (A) (A) (A) (A) (A) (A) (A) (A) (A) (A) (A) (A)
                 (A) (A) (A) (A) (A) (A) (A) (A) (A) (A) (A) (A)
                 (A) (A) (A) (A) (A) (A) (A) (A) (A) (A) (A) (A)
                 (A) (A) (A) (A) (A) (A) (A) (A) (A) (A) (A) (A)
                 (A) (A) (A) (A) (A) (A) (A) (A) (A) (A) (A) (A)
                 (A) (A) (A) (A) (A) (A) (A) (A) (A) (A) (A) (A)
                 (A) (A) (A) (A) (A) (A) (A) (A) (A) (A) (A) (A)
                 (A) (A) (A) (A) (A) (A) (A) (A) (A) (A) (A) (A)
                 (A) (A) (A) (A) (A) (A) (A) (A) (A) (A) (A) (A)
                 (A) (A) (A) (A) (A) (A) (A) (A) (A) (A) (A) (A)
                 (A) (A) (A) (A) (A) (A) (A) (A) (A) (A) (A) (A)
                 (A) (A) (A) (A) (A) (A) (A) (A) (A) (A) (A) (A)
                 (A) (A) (A) (A) (A) (A) (A) (A) (A) (A) (A) (A)
                 (A) (A) (A) (A) (A) (A) (A) (A) (A) (A) (A) (A)
                 (A) (A) (A) (A) (A) (A) (A) (A) (A) (A) (A) (A)
                 (A) (A) (A) (A) (A) (A) (A) (A) (A) (A) (A) (A)
                 (A) (A) (A) (A) (A) (A) (A) (A) (A) (A) (A) (A)
                 (A) (A) (A) (A) (A) (A) (A) (A) (A) (A) (A) (A)
                 (A) (A) (A) (A) (A) (A) (A) (A) (A) (A) (A) (A)
                 (A) (A) (A) (A) (A) (A) (A) (A) (A) (A) (A) (A)
                 (A) (A) (A) (A) (A) (A) (A) (A) (A) (A) (A) (A)
                 (A) (A) (A) (A) (A) (A) (A) (A) (A) (A) (A) (A)
                 (A) (A) (A) (A) (A) (A) (A) (A) (A) (A) (A) (A)
                 (A) (A) (A) (A) (A) (A) (A) (A) (A) (A) (A) (A)
                 (A) (A) (A) (A) (A) (A) (A) (A) (A) (A) (A) (A)
                 (A) (A) (A) (A) (A) (A) (A) (A) (A) (A) (A) (A)
                 (A) (A) (A) (A) (A) (A) (A) (A) (A) (A) (A) (A)
                 (A) (A) (A) (A) (A) (A) (A) (A) (A) (A) (A) (A)
                 (A) (A) (A) (A) (A) (A) (A) (A) (A) (A) (A) (A)
                 (A) (A) (A) (A) (A) (A) (A) (A) (A) (A) (A) (A)
                 (A) (A) (A) (A) (A) (A) (A) (A) (A) (A) (A) (A)
                 (A) (A) (A) (A) (A) (A) (A) (A) (A) (A) (A) (A)
                 (A) (A) (A) (A) (A) (A) (A) (A) (A) (A) (A) (A)
                 (A) (A) (A) (A) (A) (A) (A) (A) (A) (A) (A) (A)
                 (A) (A) (A) (A) (A) (A) (A) (A) (A) (A) (A) (A)
                 (A) (A) (A) (A) (A) (A) (A) (A) (A) (A) (A) (A)
                 (A) (A) (A) (A) (A) (A) (A) (A) (A) (A) (A) (A)
                 (A) (A) (A) (A) (A) (A) (A) (A) (A) (A) (A) (A)
                 (A) (A) (A) (A) (A) (A) (A) (A) (A) (A) (A) (A)
                 (A) (A) (A) (A) (A) (A) (A) (A) (A) (A) (A) (A)
                 (A) (A) (A) (A) (A) (A) (A) (A) (A) (A) (A) (A)
                 (A) (A) (A) (A) (A) (A) (A) (A) (A) (A) (A) (A)
                 (A) (A) (A) (A) (A) (A) (A) (A) (A) (A) (A) (A)
                 (A) (A) (A) (A) (A) (A) (A) (A) (A) (A) (A) (A)
                 (A) (A) (A) (A) (A) (A) (A) (A) (A) (A) (A) (A)
                 (A) (A) (A) (A) (A) (A) (A) (A) (A) (A) (A) (A)
                 (A) (A) (A) (A) (A) (A) (A) (A) (A) (A) (A) (A)
                 (A) (A) (A) (A) (A) (A) (A) (A) (A) (A) (A) (A)
                 (A) (A) (A) (A) (A) (A) (A) (A) (A) (A) (A) (A)
                 (A) (A) (A) (A) (A) (A) (A) (A) (A) (A) (A) (A)
                 (A) (A) (A) (A) (A) (A) (A) (A)
 The electronic state is 1-A.
 Alpha  occ. eigenvalues --  -19.25102 -19.25062 -19.25017 -19.24921 -19.24912
 Alpha  occ. eigenvalues --  -19.24770 -19.24544 -19.24418 -19.23964 -19.23237
 Alpha  occ. eigenvalues --  -10.30088 -10.30021 -10.29964 -10.29843 -10.29777
 Alpha  occ. eigenvalues --  -10.29744 -10.29513 -10.29456 -10.29338 -10.29121
 Alpha  occ. eigenvalues --  -10.28022 -10.27868 -10.27344 -10.27084 -10.27015
 Alpha  occ. eigenvalues --  -10.26731 -10.24727 -10.24652 -10.24596 -10.24594
 Alpha  occ. eigenvalues --  -10.24532 -10.24360 -10.23933 -10.23862 -10.23707
 Alpha  occ. eigenvalues --  -10.23653 -10.23618 -10.23372 -10.23341 -10.23160
 Alpha  occ. eigenvalues --  -10.23053 -10.22912 -10.22826 -10.22584  -1.11045
 Alpha  occ. eigenvalues --   -1.11021  -1.09409  -1.09298  -1.09151  -1.08928
 Alpha  occ. eigenvalues --   -1.08858  -1.08581  -1.07244  -1.07087  -0.89479
 Alpha  occ. eigenvalues --   -0.88138  -0.87894  -0.87619  -0.84292  -0.83500
 Alpha  occ. eigenvalues --   -0.79795  -0.78528  -0.78080  -0.77634  -0.77535
 Alpha  occ. eigenvalues --   -0.75906  -0.75473  -0.75104  -0.72479  -0.71517
 Alpha  occ. eigenvalues --   -0.69810  -0.69765  -0.68586  -0.68450  -0.66174
 Alpha  occ. eigenvalues --   -0.65939  -0.65263  -0.63171  -0.63068  -0.62384
 Alpha  occ. eigenvalues --   -0.61510  -0.60745  -0.59284  -0.58302  -0.57939
 Alpha  occ. eigenvalues --   -0.56899  -0.55782  -0.55193  -0.53788  -0.53326
 Alpha  occ. eigenvalues --   -0.52650  -0.51974  -0.51681  -0.51432  -0.50551
 Alpha  occ. eigenvalues --   -0.50052  -0.49406  -0.49325  -0.49069  -0.48806
 Alpha  occ. eigenvalues --   -0.48450  -0.48310  -0.47350  -0.46873  -0.46738
 Alpha  occ. eigenvalues --   -0.46481  -0.45779  -0.45277  -0.45163  -0.44991
 Alpha  occ. eigenvalues --   -0.44598  -0.44412  -0.44353  -0.44025  -0.43639
 Alpha  occ. eigenvalues --   -0.43210  -0.42993  -0.42611  -0.42160  -0.41734
 Alpha  occ. eigenvalues --   -0.41512  -0.41422  -0.41299  -0.40917  -0.40687
 Alpha  occ. eigenvalues --   -0.40310  -0.40083  -0.39795  -0.39510  -0.39021
 Alpha  occ. eigenvalues --   -0.38802  -0.37413  -0.37046  -0.36947  -0.36643
 Alpha  occ. eigenvalues --   -0.36477  -0.36243  -0.35489  -0.34871  -0.34375
 Alpha  occ. eigenvalues --   -0.34315  -0.33793  -0.33631  -0.32636  -0.32531
 Alpha  occ. eigenvalues --   -0.32216  -0.32009  -0.31770  -0.31242  -0.28836
 Alpha  occ. eigenvalues --   -0.28692  -0.25114  -0.24694  -0.24639  -0.24422
 Alpha  occ. eigenvalues --   -0.23994  -0.22546  -0.22168  -0.21491
 Alpha virt. eigenvalues --   -0.01882  -0.01029  -0.00830  -0.00514  -0.00417
 Alpha virt. eigenvalues --    0.00290   0.00388   0.01047   0.01173   0.01209
 Alpha virt. eigenvalues --    0.01530   0.01656   0.01927   0.02222   0.02561
 Alpha virt. eigenvalues --    0.02844   0.03044   0.03213   0.03496   0.03656
 Alpha virt. eigenvalues --    0.04005   0.04158   0.04433   0.04636   0.04983
 Alpha virt. eigenvalues --    0.05171   0.05313   0.05561   0.05982   0.06175
 Alpha virt. eigenvalues --    0.06334   0.06405   0.06636   0.07020   0.07392
 Alpha virt. eigenvalues --    0.07557   0.07799   0.07940   0.08450   0.08861
 Alpha virt. eigenvalues --    0.09013   0.09140   0.09360   0.09467   0.09684
 Alpha virt. eigenvalues --    0.10021   0.10113   0.10622   0.10878   0.11068
 Alpha virt. eigenvalues --    0.11211   0.11388   0.11595   0.12010   0.12151
 Alpha virt. eigenvalues --    0.12338   0.12722   0.12787   0.12835   0.12900
 Alpha virt. eigenvalues --    0.13151   0.13501   0.13695   0.13869   0.14083
 Alpha virt. eigenvalues --    0.14133   0.14367   0.14569   0.14796   0.14965
 Alpha virt. eigenvalues --    0.15241   0.15334   0.15505   0.15516   0.15713
 Alpha virt. eigenvalues --    0.15947   0.16190   0.16458   0.16593   0.16731
 Alpha virt. eigenvalues --    0.16918   0.17076   0.17125   0.17278   0.17654
 Alpha virt. eigenvalues --    0.17688   0.17886   0.17924   0.18027   0.18323
 Alpha virt. eigenvalues --    0.18442   0.18554   0.18722   0.18846   0.19006
 Alpha virt. eigenvalues --    0.19322   0.19411   0.19587   0.19776   0.20074
 Alpha virt. eigenvalues --    0.20177   0.20251   0.20373   0.20614   0.20751
 Alpha virt. eigenvalues --    0.20803   0.20880   0.21141   0.21301   0.21440
 Alpha virt. eigenvalues --    0.21726   0.21900   0.21990   0.22111   0.22289
 Alpha virt. eigenvalues --    0.22461   0.22521   0.22675   0.22916   0.22980
 Alpha virt. eigenvalues --    0.23050   0.23152   0.23518   0.23746   0.23885
 Alpha virt. eigenvalues --    0.23933   0.24089   0.24217   0.24241   0.24564
 Alpha virt. eigenvalues --    0.24846   0.24857   0.25111   0.25218   0.25486
 Alpha virt. eigenvalues --    0.25602   0.25691   0.25967   0.26152   0.26403
 Alpha virt. eigenvalues --    0.26504   0.26853   0.26865   0.26974   0.27092
 Alpha virt. eigenvalues --    0.27393   0.27568   0.27685   0.27687   0.27875
 Alpha virt. eigenvalues --    0.28230   0.28345   0.28445   0.28650   0.28757
 Alpha virt. eigenvalues --    0.28823   0.29254   0.29306   0.29417   0.29597
 Alpha virt. eigenvalues --    0.29762   0.29819   0.29970   0.30130   0.30349
 Alpha virt. eigenvalues --    0.30438   0.30595   0.30793   0.30945   0.31070
 Alpha virt. eigenvalues --    0.31243   0.31466   0.31659   0.31871   0.31974
 Alpha virt. eigenvalues --    0.32168   0.32373   0.32727   0.32859   0.33291
 Alpha virt. eigenvalues --    0.33420   0.33525   0.33666   0.33720   0.33933
 Alpha virt. eigenvalues --    0.34143   0.34278   0.34461   0.34563   0.35052
 Alpha virt. eigenvalues --    0.35161   0.35475   0.35728   0.36005   0.36062
 Alpha virt. eigenvalues --    0.36264   0.36429   0.36517   0.36780   0.36983
 Alpha virt. eigenvalues --    0.37182   0.37510   0.37731   0.37844   0.38089
 Alpha virt. eigenvalues --    0.38308   0.38451   0.38463   0.38706   0.38883
 Alpha virt. eigenvalues --    0.39461   0.39591   0.39837   0.39995   0.40115
 Alpha virt. eigenvalues --    0.40340   0.40561   0.40818   0.41037   0.41420
 Alpha virt. eigenvalues --    0.41639   0.41759   0.41922   0.42035   0.42285
 Alpha virt. eigenvalues --    0.42822   0.42959   0.43269   0.43355   0.43843
 Alpha virt. eigenvalues --    0.44141   0.44225   0.44563   0.44727   0.45200
 Alpha virt. eigenvalues --    0.45265   0.45430   0.45759   0.46559   0.46846
 Alpha virt. eigenvalues --    0.46908   0.47159   0.47862   0.48339   0.48527
 Alpha virt. eigenvalues --    0.48705   0.48834   0.49616   0.49776   0.49904
 Alpha virt. eigenvalues --    0.50948   0.51443   0.51613   0.52041   0.52395
 Alpha virt. eigenvalues --    0.52821   0.52962   0.53129   0.53421   0.54034
 Alpha virt. eigenvalues --    0.54086   0.54176   0.54510   0.55056   0.55301
 Alpha virt. eigenvalues --    0.55585   0.55775   0.55967   0.56356   0.56510
 Alpha virt. eigenvalues --    0.56762   0.57036   0.57412   0.57871   0.57955
 Alpha virt. eigenvalues --    0.58398   0.58490   0.58788   0.58966   0.59208
 Alpha virt. eigenvalues --    0.59507   0.59707   0.60175   0.60721   0.60988
 Alpha virt. eigenvalues --    0.61119   0.61306   0.61595   0.62253   0.62481
 Alpha virt. eigenvalues --    0.62620   0.62655   0.63184   0.63283   0.63577
 Alpha virt. eigenvalues --    0.63633   0.63941   0.64289   0.64623   0.64901
 Alpha virt. eigenvalues --    0.65138   0.65398   0.65613   0.65694   0.66167
 Alpha virt. eigenvalues --    0.66395   0.66568   0.66798   0.67048   0.67243
 Alpha virt. eigenvalues --    0.67444   0.67496   0.67941   0.68105   0.68306
 Alpha virt. eigenvalues --    0.68572   0.68656   0.68970   0.69159   0.69420
 Alpha virt. eigenvalues --    0.69477   0.69959   0.70037   0.70255   0.70709
 Alpha virt. eigenvalues --    0.71045   0.71075   0.71154   0.71516   0.71698
 Alpha virt. eigenvalues --    0.71853   0.71968   0.72307   0.72551   0.72970
 Alpha virt. eigenvalues --    0.73024   0.73167   0.73499   0.73621   0.73956
 Alpha virt. eigenvalues --    0.74033   0.74238   0.74413   0.74836   0.75115
 Alpha virt. eigenvalues --    0.75193   0.75623   0.75902   0.76012   0.76294
 Alpha virt. eigenvalues --    0.76578   0.76798   0.77088   0.77390   0.77465
 Alpha virt. eigenvalues --    0.77577   0.77703   0.78181   0.78299   0.78606
 Alpha virt. eigenvalues --    0.78712   0.79070   0.79270   0.79700   0.79849
 Alpha virt. eigenvalues --    0.80058   0.80513   0.80837   0.81158   0.81277
 Alpha virt. eigenvalues --    0.81603   0.81847   0.81932   0.82253   0.82801
 Alpha virt. eigenvalues --    0.82940   0.83063   0.83425   0.83493   0.83630
 Alpha virt. eigenvalues --    0.83812   0.84246   0.84390   0.84537   0.85280
 Alpha virt. eigenvalues --    0.85379   0.85676   0.85800   0.86033   0.86406
 Alpha virt. eigenvalues --    0.86474   0.86849   0.87292   0.87327   0.87434
 Alpha virt. eigenvalues --    0.87588   0.88271   0.88654   0.88850   0.89237
 Alpha virt. eigenvalues --    0.89844   0.90258   0.90271   0.90609   0.91073
 Alpha virt. eigenvalues --    0.91253   0.91656   0.91812   0.92388   0.92627
 Alpha virt. eigenvalues --    0.92788   0.93051   0.93342   0.93817   0.93894
 Alpha virt. eigenvalues --    0.94466   0.94667   0.95205   0.95620   0.96056
 Alpha virt. eigenvalues --    0.96492   0.96764   0.97278   0.97912   0.98255
 Alpha virt. eigenvalues --    0.98531   0.99247   0.99461   0.99920   1.00221
 Alpha virt. eigenvalues --    1.00471   1.00928   1.01526   1.01942   1.02083
 Alpha virt. eigenvalues --    1.02166   1.03074   1.03539   1.03847   1.04188
 Alpha virt. eigenvalues --    1.04236   1.04566   1.05136   1.05755   1.06500
 Alpha virt. eigenvalues --    1.06620   1.07232   1.07417   1.07841   1.08096
 Alpha virt. eigenvalues --    1.08385   1.09015   1.09056   1.09787   1.09819
 Alpha virt. eigenvalues --    1.09912   1.10322   1.10660   1.10919   1.11290
 Alpha virt. eigenvalues --    1.11760   1.12063   1.12494   1.12732   1.13138
 Alpha virt. eigenvalues --    1.13233   1.13721   1.14335   1.14749   1.14785
 Alpha virt. eigenvalues --    1.15570   1.15656   1.16054   1.16289   1.16561
 Alpha virt. eigenvalues --    1.17011   1.17459   1.17702   1.18395   1.18701
 Alpha virt. eigenvalues --    1.18923   1.19505   1.19678   1.19906   1.20395
 Alpha virt. eigenvalues --    1.20670   1.20830   1.21108   1.21331   1.21465
 Alpha virt. eigenvalues --    1.21807   1.22583   1.22771   1.23071   1.23403
 Alpha virt. eigenvalues --    1.23833   1.24115   1.24318   1.24752   1.25035
 Alpha virt. eigenvalues --    1.25097   1.26052   1.26067   1.26310   1.26516
 Alpha virt. eigenvalues --    1.26995   1.27425   1.27665   1.27926   1.28218
 Alpha virt. eigenvalues --    1.28551   1.29264   1.29713   1.30015   1.30443
 Alpha virt. eigenvalues --    1.30534   1.31171   1.31306   1.31613   1.31768
 Alpha virt. eigenvalues --    1.32657   1.32786   1.33148   1.33264   1.33754
 Alpha virt. eigenvalues --    1.34166   1.34446   1.34596   1.34819   1.34982
 Alpha virt. eigenvalues --    1.35570   1.36164   1.36235   1.36404   1.36834
 Alpha virt. eigenvalues --    1.37380   1.37618   1.37863   1.38165   1.38698
 Alpha virt. eigenvalues --    1.39035   1.39379   1.39660   1.40134   1.40509
 Alpha virt. eigenvalues --    1.40700   1.40968   1.41657   1.41800   1.42037
 Alpha virt. eigenvalues --    1.42484   1.42848   1.43042   1.43411   1.44409
 Alpha virt. eigenvalues --    1.44488   1.44671   1.45549   1.45622   1.46021
 Alpha virt. eigenvalues --    1.46718   1.47138   1.47411   1.47846   1.48238
 Alpha virt. eigenvalues --    1.48991   1.49572   1.49685   1.50033   1.50328
 Alpha virt. eigenvalues --    1.51163   1.51635   1.52265   1.52855   1.53267
 Alpha virt. eigenvalues --    1.53544   1.53743   1.54191   1.54450   1.54811
 Alpha virt. eigenvalues --    1.55263   1.55977   1.56636   1.56984   1.57306
 Alpha virt. eigenvalues --    1.57627   1.57955   1.58363   1.58801   1.59156
 Alpha virt. eigenvalues --    1.60022   1.60428   1.60644   1.60936   1.61258
 Alpha virt. eigenvalues --    1.62165   1.62816   1.63440   1.63755   1.64307
 Alpha virt. eigenvalues --    1.64847   1.65307   1.65793   1.67295   1.67660
 Alpha virt. eigenvalues --    1.68488   1.69445   1.70050   1.70581   1.70879
 Alpha virt. eigenvalues --    1.71467   1.71860   1.71884   1.72587   1.73173
 Alpha virt. eigenvalues --    1.73406   1.73562   1.73956   1.74430   1.75853
 Alpha virt. eigenvalues --    1.75936   1.76702   1.77101   1.77345   1.77552
 Alpha virt. eigenvalues --    1.78184   1.78484   1.78660   1.79379   1.80417
 Alpha virt. eigenvalues --    1.80651   1.80742   1.81086   1.82020   1.82193
 Alpha virt. eigenvalues --    1.82244   1.83477   1.83670   1.84241   1.84419
 Alpha virt. eigenvalues --    1.85501   1.85816   1.86787   1.86943   1.87628
 Alpha virt. eigenvalues --    1.88734   1.88994   1.89287   1.89950   1.91312
 Alpha virt. eigenvalues --    1.91467   1.92140   1.92399   1.94544   1.95077
 Alpha virt. eigenvalues --    1.95734   1.96375   1.96807   1.97139   1.97467
 Alpha virt. eigenvalues --    1.98057   1.98231   1.98677   1.99170   1.99644
 Alpha virt. eigenvalues --    2.00011   2.00360   2.00566   2.00822   2.01061
 Alpha virt. eigenvalues --    2.01716   2.02557   2.03172   2.03490   2.03861
 Alpha virt. eigenvalues --    2.05051   2.05204   2.06040   2.06567   2.06865
 Alpha virt. eigenvalues --    2.07505   2.07930   2.08695   2.08914   2.09905
 Alpha virt. eigenvalues --    2.10231   2.10689   2.11184   2.12154   2.13347
 Alpha virt. eigenvalues --    2.14020   2.14082   2.14510   2.16135   2.17741
 Alpha virt. eigenvalues --    2.18461   2.18981   2.19781   2.20718   2.20909
 Alpha virt. eigenvalues --    2.21910   2.22738   2.23219   2.24169   2.25581
 Alpha virt. eigenvalues --    2.25775   2.26769   2.26846   2.27626   2.28474
 Alpha virt. eigenvalues --    2.29123   2.29449   2.30217   2.30882   2.31774
 Alpha virt. eigenvalues --    2.32193   2.32532   2.33082   2.33243   2.33993
 Alpha virt. eigenvalues --    2.34145   2.34614   2.34724   2.34942   2.36118
 Alpha virt. eigenvalues --    2.36581   2.37146   2.38735   2.39428   2.39529
 Alpha virt. eigenvalues --    2.40391   2.40757   2.40999   2.41224   2.42007
 Alpha virt. eigenvalues --    2.42172   2.42928   2.43384   2.43755   2.44110
 Alpha virt. eigenvalues --    2.44361   2.44989   2.45145   2.46728   2.46818
 Alpha virt. eigenvalues --    2.47051   2.47410   2.47573   2.48213   2.48965
 Alpha virt. eigenvalues --    2.49140   2.49831   2.50571   2.50789   2.51914
 Alpha virt. eigenvalues --    2.52976   2.53360   2.54243   2.54856   2.56141
 Alpha virt. eigenvalues --    2.58160   2.58465   2.59550   2.60779   2.61536
 Alpha virt. eigenvalues --    2.62289   2.62615   2.63399   2.63642   2.64417
 Alpha virt. eigenvalues --    2.64951   2.65416   2.66569   2.66800   2.67748
 Alpha virt. eigenvalues --    2.68422   2.68959   2.69437   2.69585   2.71777
 Alpha virt. eigenvalues --    2.73221   2.73641   2.74363   2.74823   2.76115
 Alpha virt. eigenvalues --    2.76312   2.77936   2.78534   2.79176   2.79418
 Alpha virt. eigenvalues --    2.79656   2.80197   2.80803   2.81444   2.82475
 Alpha virt. eigenvalues --    2.83590   2.84266   2.84677   2.85557   2.86498
 Alpha virt. eigenvalues --    2.87373   2.87654   2.88034   2.88491   2.88750
 Alpha virt. eigenvalues --    2.89755   2.90598   2.91201   2.91819   2.93285
 Alpha virt. eigenvalues --    2.93646   2.94417   2.95299   2.95846   2.96805
 Alpha virt. eigenvalues --    2.97495   2.98069   2.98247   2.99098   2.99808
 Alpha virt. eigenvalues --    3.00162   3.00698   3.00930   3.01375   3.02704
 Alpha virt. eigenvalues --    3.02908   3.03215   3.03414   3.04199   3.04662
 Alpha virt. eigenvalues --    3.04689   3.05545   3.05677   3.06625   3.06799
 Alpha virt. eigenvalues --    3.07646   3.08025   3.09005   3.09654   3.10519
 Alpha virt. eigenvalues --    3.10788   3.11128   3.12387   3.12840   3.13463
 Alpha virt. eigenvalues --    3.13626   3.14893   3.15144   3.15802   3.17257
 Alpha virt. eigenvalues --    3.17791   3.18850   3.19099   3.20318   3.21018
 Alpha virt. eigenvalues --    3.21230   3.21561   3.22210   3.22912   3.24057
 Alpha virt. eigenvalues --    3.24480   3.25154   3.25426   3.26213   3.26509
 Alpha virt. eigenvalues --    3.26735   3.27427   3.27444   3.28547   3.28904
 Alpha virt. eigenvalues --    3.29585   3.30590   3.30971   3.31322   3.32156
 Alpha virt. eigenvalues --    3.32559   3.32839   3.33759   3.34780   3.34840
 Alpha virt. eigenvalues --    3.35319   3.35762   3.36619   3.37296   3.37582
 Alpha virt. eigenvalues --    3.38155   3.38495   3.38649   3.38867   3.39105
 Alpha virt. eigenvalues --    3.39853   3.40350   3.40768   3.41511   3.41952
 Alpha virt. eigenvalues --    3.42148   3.42900   3.43372   3.43777   3.43837
 Alpha virt. eigenvalues --    3.44087   3.44541   3.44832   3.45513   3.46158
 Alpha virt. eigenvalues --    3.46284   3.46737   3.46815   3.47435   3.47688
 Alpha virt. eigenvalues --    3.48140   3.48472   3.49529   3.50171   3.50462
 Alpha virt. eigenvalues --    3.50544   3.50761   3.51020   3.51386   3.52090
 Alpha virt. eigenvalues --    3.52282   3.52985   3.53360   3.53944   3.54300
 Alpha virt. eigenvalues --    3.54706   3.55459   3.56241   3.56695   3.57245
 Alpha virt. eigenvalues --    3.57701   3.58323   3.58706   3.58962   3.59481
 Alpha virt. eigenvalues --    3.59693   3.59911   3.61032   3.61436   3.62166
 Alpha virt. eigenvalues --    3.62354   3.62763   3.63243   3.63515   3.63543
 Alpha virt. eigenvalues --    3.64050   3.64680   3.64828   3.65068   3.65264
 Alpha virt. eigenvalues --    3.65535   3.66378   3.66529   3.66831   3.67531
 Alpha virt. eigenvalues --    3.67856   3.68025   3.68581   3.68879   3.69195
 Alpha virt. eigenvalues --    3.69722   3.70056   3.70453   3.71159   3.71391
 Alpha virt. eigenvalues --    3.71794   3.72341   3.72491   3.72961   3.73510
 Alpha virt. eigenvalues --    3.73692   3.74192   3.74868   3.74890   3.75667
 Alpha virt. eigenvalues --    3.76080   3.76496   3.77599   3.77991   3.78063
 Alpha virt. eigenvalues --    3.78624   3.79226   3.79504   3.80288   3.80617
 Alpha virt. eigenvalues --    3.81150   3.81935   3.82372   3.83075   3.83255
 Alpha virt. eigenvalues --    3.83705   3.84394   3.85207   3.85362   3.85939
 Alpha virt. eigenvalues --    3.86248   3.87097   3.87326   3.87894   3.88187
 Alpha virt. eigenvalues --    3.88352   3.88706   3.89788   3.90190   3.90661
 Alpha virt. eigenvalues --    3.91042   3.92251   3.92813   3.92886   3.93667
 Alpha virt. eigenvalues --    3.94263   3.94791   3.95287   3.95643   3.96656
 Alpha virt. eigenvalues --    3.97285   3.98475   3.99418   3.99777   4.00007
 Alpha virt. eigenvalues --    4.00470   4.01966   4.02009   4.03147   4.03469
 Alpha virt. eigenvalues --    4.05456   4.06598   4.08018   4.08525   4.08881
 Alpha virt. eigenvalues --    4.09135   4.10093   4.10431   4.11896   4.12476
 Alpha virt. eigenvalues --    4.12530   4.13909   4.14199   4.15175   4.16926
 Alpha virt. eigenvalues --    4.17814   4.17979   4.19831   4.19966   4.20776
 Alpha virt. eigenvalues --    4.21062   4.22760   4.23537   4.24177   4.24520
 Alpha virt. eigenvalues --    4.24674   4.25091   4.27218   4.27406   4.28071
 Alpha virt. eigenvalues --    4.29097   4.29667   4.29750   4.30950   4.31576
 Alpha virt. eigenvalues --    4.31944   4.32695   4.33373   4.35650   4.36618
 Alpha virt. eigenvalues --    4.37508   4.42538   4.44346   4.45990   4.46423
 Alpha virt. eigenvalues --    4.47108   4.49145   4.50393   4.51875   4.53913
 Alpha virt. eigenvalues --    4.55018   4.56889   4.57969   4.62116   4.63701
 Alpha virt. eigenvalues --    4.68355   4.69399   4.72399   4.78977   4.80685
 Alpha virt. eigenvalues --    4.82387   4.83053   4.84318   4.87504   4.92752
 Alpha virt. eigenvalues --    4.94640   5.06070   5.06746   5.10028   5.12386
 Alpha virt. eigenvalues --    5.13097   5.16737   5.23988   5.24132   5.25148
 Alpha virt. eigenvalues --    5.28229   5.29526   5.31131   5.31659   5.41151
 Alpha virt. eigenvalues --    5.45233   5.47320   5.54267   5.55919   5.58398
 Alpha virt. eigenvalues --    5.59931   5.60806   5.61254   5.63881   5.72116
 Alpha virt. eigenvalues --    5.74031   5.85021   5.87332   5.94073   5.95456
 Alpha virt. eigenvalues --    5.96866   6.00351   6.02507   6.03472   6.04915
 Alpha virt. eigenvalues --    6.05502   6.87272   6.88425   6.89929   6.91869
 Alpha virt. eigenvalues --    6.98083   6.99239   6.99289   6.99540   7.03368
 Alpha virt. eigenvalues --    7.04504   7.05301   7.05667   7.07342   7.08140
 Alpha virt. eigenvalues --    7.08486   7.09131   7.09202   7.10538   7.11258
 Alpha virt. eigenvalues --    7.11592   7.12656   7.13053   7.15056   7.15702
 Alpha virt. eigenvalues --    7.16792   7.18907   7.21067   7.22765   7.25774
 Alpha virt. eigenvalues --    7.27427   7.31598   7.32612   7.34911   7.35501
 Alpha virt. eigenvalues --    7.37888   7.38608   7.39536   7.40799   7.41895
 Alpha virt. eigenvalues --    7.42815   7.45875   7.47369   7.49301   7.50956
 Alpha virt. eigenvalues --    7.55639   7.55842   7.57717   7.58899   7.60177
 Alpha virt. eigenvalues --    7.61849  23.77862  23.82135  23.83223  23.88757
 Alpha virt. eigenvalues --   24.00979  24.02541  24.06827  24.07227  24.07769
 Alpha virt. eigenvalues --   24.09527  24.09705  24.11772  24.12084  24.12962
 Alpha virt. eigenvalues --   24.13118  24.14795  24.15286  24.17572  24.18153
 Alpha virt. eigenvalues --   24.20830  24.22116  24.23405  24.25027  24.26003
 Alpha virt. eigenvalues --   24.29435  24.30062  24.31622  24.32614  24.33888
 Alpha virt. eigenvalues --   24.34567  24.36264  24.38942  24.41384  24.51834
 Alpha virt. eigenvalues --   50.10320  50.12367  50.12827  50.13165  50.16798
 Alpha virt. eigenvalues --   50.17666  50.20379  50.22010  50.22683  50.23858
          Condensed to atoms (all electrons):
 Mulliken charges:
               1
     1  C    0.027794
     2  C   -0.228409
     3  C   -0.127874
     4  C    1.332299
     5  C   -0.251793
     6  C   -0.797198
     7  C   -1.072826
     8  C    0.005850
     9  C   -0.222427
    10  O   -0.283558
    11  C    0.719098
    12  C   -0.444048
    13  C    0.615514
    14  C    0.014412
    15  C   -0.315221
    16  C   -0.049651
    17  O   -0.369029
    18  O   -0.496688
    19  O   -0.489541
    20  O   -0.447181
    21  C   -0.400799
    22  C    0.137273
    23  C    0.122395
    24  C    0.120608
    25  C   -0.859453
    26  C    0.936592
    27  O   -0.395693
    28  C   -0.465288
    29  C    0.705906
    30  C   -1.215351
    31  C   -0.576770
    32  C   -0.185156
    33  C    1.420765
    34  C   -0.515617
    35  C   -0.111562
    36  C    0.060312
    37  O   -0.433160
    38  C   -0.285489
    39  O   -0.393432
    40  C   -0.257377
    41  O   -0.096709
    42  C   -0.384971
    43  O   -0.479411
    44  C   -0.298828
    45  H    0.158380
    46  H    0.148765
    47  H    0.158854
    48  H    0.208443
    49  H    0.202446
    50  H    0.149708
    51  H    0.186254
    52  H    0.188297
    53  H    0.193068
    54  H    0.312449
    55  H    0.349348
    56  H    0.352583
    57  H    0.316519
    58  H    0.155481
    59  H    0.180351
    60  H    0.190993
    61  H    0.138494
    62  H    0.185881
    63  H    0.209811
    64  H    0.147381
    65  H    0.150117
    66  H    0.150706
    67  H    0.190113
    68  H    0.191428
    69  H    0.182195
    70  H    0.183740
    71  H    0.191307
    72  H    0.189502
    73  H    0.206946
    74  H    0.200100
    75  H    0.192886
    76  H    0.200351
    77  H    0.176361
    78  H    0.192434
 Sum of Mulliken charges =  -0.00000
 Mulliken charges with hydrogens summed into heavy atoms:
               1
     1  C    0.027794
     2  C   -0.070030
     3  C    0.020892
     4  C    1.332299
     5  C   -0.251793
     6  C   -0.638344
     7  C   -0.661937
     8  C    0.155558
     9  C    0.152123
    10  O   -0.283558
    11  C    0.719098
    12  C   -0.250979
    13  C    0.615514
    14  C    0.014412
    15  C   -0.315221
    16  C   -0.049651
    17  O   -0.056580
    18  O   -0.147340
    19  O   -0.136958
    20  O   -0.130662
    21  C   -0.400799
    22  C    0.137273
    23  C    0.122395
    24  C    0.120608
    25  C   -0.703972
    26  C    0.936592
    27  O   -0.395693
    28  C   -0.093944
    29  C    0.844400
    30  C   -0.819660
    31  C   -0.429389
    32  C   -0.185156
    33  C    1.420765
    34  C   -0.365499
    35  C    0.039144
    36  C    0.060312
    37  O   -0.433160
    38  C    0.278247
    39  O   -0.393432
    40  C    0.307171
    41  O   -0.096709
    42  C    0.214961
    43  O   -0.479411
    44  C    0.270318
 Electronic spatial extent (au):  <R**2>=          30787.8500
 Charge=             -0.0000 electrons
 Dipole moment (field-independent basis, Debye):
    X=              3.2932    Y=             -0.1076    Z=              2.9376  Tot=              4.4144
 Quadrupole moment (field-independent basis, Debye-Ang):
   XX=           -282.1456   YY=           -214.7055   ZZ=           -239.3891
   XY=             20.5881   XZ=            -19.2914   YZ=            -13.8256
 Traceless Quadrupole moment (field-independent basis, Debye-Ang):
   XX=            -36.7322   YY=             30.7079   ZZ=              6.0243
   XY=             20.5881   XZ=            -19.2914   YZ=            -13.8256
 Octapole moment (field-independent basis, Debye-Ang**2):
  XXX=             54.5781  YYY=            -21.0005  ZZZ=              4.3272  XYY=             64.8879
  XXY=             26.9102  XXZ=            228.0062  XZZ=            -27.1297  YZZ=              5.3540
  YYZ=            -55.9695  XYZ=            -12.3084
 Hexadecapole moment (field-independent basis, Debye-Ang**3):
 XXXX=         -29454.9604 YYYY=          -7107.0273 ZZZZ=          -2715.3198 XXXY=           1413.3009
 XXXZ=          -1984.8534 YYYX=            198.8287 YYYZ=           -233.6681 ZZZX=           -199.8041
 ZZZY=            -50.8938 XXYY=          -6519.3349 XXZZ=          -4525.2020 YYZZ=          -1876.4418
 XXYZ=           -250.2923 YYXZ=            -73.1983 ZZXY=            140.3843
 N-N= 5.449706794158D+03 E-N=-1.573310231100D+04  KE= 2.059478808672D+03
 Unable to Open any file for archive entry.
 1\1\GINC-C04B01N02\SP\RmPW1PW91\6-311+G(2d,p)\C34H34O10\ROOT\25-Sep-20
 25\0\\# mPW1PW91/6-311+g(2d,p) NMR scrf(SMD,solvent=dmso) geom=connect
 ivity\\58RS\\0,1\C,0,4.199177,-3.613537,-0.000865\C,0,3.629467,-3.7225
 42,1.273487\C,0,3.714882,-2.637446,2.143996\C,0,4.353525,-1.444992,1.7
 90881\C,0,4.927523,-1.371387,0.509025\C,0,4.865053,-2.449529,-0.376858
 \C,0,4.357036,-0.238851,2.705991\C,0,4.617008,1.05665,1.920607\C,0,5.8
 10494,0.789987,0.993362\O,0,5.535662,-0.243832,0.035782\C,0,3.424835,1
 .574544,1.136805\C,0,2.340886,0.77683,0.77367\C,0,1.264276,1.240964,0.
 00292\C,0,1.273448,2.582018,-0.420397\C,0,2.354434,3.402276,-0.073461\
 C,0,3.416158,2.905299,0.693427\O,0,4.127073,-4.62282,-0.922751\O,0,4.4
 53703,3.734739,0.998905\O,0,-2.81011,-2.460023,-1.329688\O,0,-9.870329
 ,0.557551,1.124298\C,0,-1.858453,-1.533426,-1.014841\C,0,-0.512527,-1.
 858638,-1.250482\C,0,0.501692,-0.947582,-0.947637\C,0,0.18094,0.301081
 ,-0.378557\C,0,-1.170752,0.599441,-0.169374\C,0,-2.208756,-0.286148,-0
 .478717\O,0,-5.798613,0.690392,-1.221011\C,0,-4.503989,0.115924,-1.469
 766\C,0,-3.643491,0.108303,-0.203285\C,0,-4.336221,-0.776861,0.847433\
 C,0,-7.808431,0.589847,-0.021541\C,0,-6.451847,0.259052,-0.101746\C,0,
 -5.810352,-0.448798,0.931091\C,0,-6.58374,-0.812782,2.037912\C,0,-7.93
 7863,-0.500668,2.137965\C,0,-8.548952,0.210525,1.097087\O,0,2.452573,4
 .728855,-0.453634\C,0,2.669258,4.919871,-1.866305\O,0,0.266556,3.04867
 2,-1.22919\C,0,-0.527591,4.107125,-0.673265\O,0,1.801852,-1.319664,-1.
 196212\C,0,2.371302,-0.729212,-2.368014\O,0,-0.305036,-3.087482,-1.833
 785\C,0,0.660838,-3.959776,-1.212825\H,0,3.115728,-4.634161,1.56903\H,
 0,3.251289,-2.708631,3.12542\H,0,5.308402,-2.363773,-1.363087\H,0,3.40
 7039,-0.178617,3.248433\H,0,5.143699,-0.338912,3.465197\H,0,4.937381,1
 .838018,2.618203\H,0,6.067118,1.669007,0.400394\H,0,6.684696,0.499195,
 1.591742\H,0,2.321683,-0.257696,1.085461\H,0,3.615225,-5.355788,-0.537
 441\H,0,4.22194,4.601851,0.610195\H,0,-2.317015,-3.234836,-1.667487\H,
 0,-10.260031,0.225404,1.952056\H,0,-1.430899,1.555059,0.273619\H,0,-4.
 0596,0.73957,-2.248618\H,0,-4.632668,-0.900004,-1.858607\H,0,-3.633012
 ,1.138867,0.171514\H,0,-3.86247,-0.633101,1.825382\H,0,-4.194504,-1.83
 0207,0.579294\H,0,-8.278092,1.138094,-0.831525\H,0,-6.10448,-1.353205,
 2.851197\H,0,-8.512826,-0.794783,3.01279\H,0,3.567881,4.383557,-2.1925
 03\H,0,1.80592,4.574217,-2.441164\H,0,2.807007,5.993396,-2.010748\H,0,
 -1.359612,4.255384,-1.365263\H,0,-0.918688,3.823042,0.31091\H,0,0.0451
 88,5.034509,-0.580188\H,0,2.407795,0.363083,-2.286027\H,0,3.386533,-1.
 121478,-2.443864\H,0,1.798822,-1.007657,-3.261746\H,0,0.619407,-3.8690
 23,-0.122481\H,0,0.380497,-4.974378,-1.506912\H,0,1.668408,-3.732472,-
 1.561226\\Version=ES64L-G16RevC.02\State=1-A\HF=-2068.4174462\RMSD=4.0
 36e-09\Dipole=1.2956584,-0.0423522,1.1557427\Quadrupole=-27.3094775,22
 .830565,4.4789126,15.3067264,-14.3426946,-10.2789997\PG=C01 [X(C34H34O
 10)]\\@
 The archive entry for this job was punched.


 Make no judgements where you have no compassion.
                               -- Anne McCaffrey
 Job cpu time:       0 days 10 hours 24 minutes 50.1 seconds.
 Elapsed time:       0 days  0 hours 13 minutes 28.3 seconds.
 File lengths (MBytes):  RWF=   1574 Int=      0 D2E=      0 Chk=    151 Scr=      1
 Normal termination of Gaussian 16 at Thu Sep 25 21:36:23 2025.
