
                                 *****************
                                 * O   R   C   A *
                                 *****************

                                            #,                                       
                                            ###                                      
                                            ####                                     
                                            #####                                    
                                            ######                                   
                                           ########,                                 
                                     ,,################,,,,,                         
                               ,,#################################,,                 
                          ,,##########################################,,             
                       ,#########################################, ''#####,          
                    ,#############################################,,   '####,        
                  ,##################################################,,,,####,       
                ,###########''''           ''''###############################       
              ,#####''   ,,,,##########,,,,          '''####'''          '####       
            ,##' ,,,,###########################,,,                        '##       
           ' ,,###''''                  '''############,,,                           
         ,,##''                                '''############,,,,        ,,,,,,###''
      ,#''                                            '''#######################'''  
     '                                                          ''''####''''         
             ,#######,   #######,   ,#######,      ##                                
            ,#'     '#,  ##    ##  ,#'     '#,    #''#        ,####,    ,#,          
            ##       ##  ##   ,#'  ##            #'  '#       #'       ,# #          
            ##       ##  #######   ##           ,######,      #####,      #          
            '#,     ,#'  ##    ##  '#,     ,#' ,#      #,     #,   #      #          
             '#######'   ##     ##  '#######'  #'      '#     '####' #    #          



                #########################################################
                #                        -***-                          #
                #          Department of theory and spectroscopy        #
                #                                                       #
                #                      Frank Neese                      #
                #                                                       #
                #     Directorship, Architecture, Infrastructure        #
                #                    SHARK, DRIVERS                     #
                #        Core code/Algorithms in most modules           #
                #                                                       #
                #        Max Planck Institute fuer Kohlenforschung      #
                #                Kaiser Wilhelm Platz 1                 #
                #                 D-45470 Muelheim/Ruhr                 #
                #                      Germany                          #
                #                                                       #
                #                  All rights reserved                  #
                #                        -***-                          #
                #########################################################


                         Program Version 6.1.0-f.0  -   RELEASE   -


 With contributions from (in alphabetic order):
[Max-Planck-Institut fuer Kohlenforschung]                               
  Daniel Aravena         : Magnetic Suceptibility                        
  Michael Atanasov       : Ab Initio Ligand Field Theory (pilot matlab implementation)
  Alexander A. Auer      : GIAO ZORA, VPT2 properties, NMR spectrum      
  Ute Becker             : All parallelization in ORCA, NUMFREQ, NUMCALC 
  Giovanni Bistoni       : ED, misc. LED, open-shell LED, HFLD           
  Dmytro Bykov           : pre 5.0 version of the SCF Hessian            
  Marcos Casanova-Páez   : Triplet and SCS-CIS(D). UHF-(DLPNO)-IP/EA/STEOM-CCSD. UHF-CVS-IP/STEOM-CCSD   
  Vijay G. Chilkuri      : MRCI spin determinant printing, contributions to CSF-ICE 
  Pauline Colinet        : FMM embedding                                 
  Dipayan Datta          : RHF DLPNO-CCSD density                        
  Achintya Kumar Dutta   : EOM-CC, STEOM-CC                              
  Nicolas Foglia         : Exact transition moments, OPA infrastructure, MCD improvements    
  Dmitry Ganyushin       : Spin-Orbit,Spin-Spin,Magnetic field MRCI      
  Miquel Garcia-Rates    : C-PCM and meta-GGA Hessian, CCSD/C-PCM, Gaussian charge scheme 
  Tiago L. C. Gouveia    : GS-ROHF, GS-ROCIS                             
  Yang Guo               : DLPNO-NEVPT2, F12-NEVPT2, CIM, IAO-localization        
  Andreas Hansen         : Spin unrestricted coupled pair/coupled cluster methods 
  Ingolf Harden          : AUTO-CI MPn and infrastructure                
  Benjamin Helmich-Paris : MC-RPA, TRAH-(SCF,CASSCF), AVAS, COSX integrals, SCF dyn. polar., MC-PDFT, srDFT 
  Lee Huntington         : MR-EOM, pCC                                   
  Robert Izsak           : Overlap fitted RIJCOSX, COSX-SCS-MP3, EOM     
  Riya Kayal             : Wick's Theorem for AUTO-CI, AUTO-CI UHF-CCSDT 
  Emily Kempfer          : AUTO-CI RHF CISDT and CCSDT, approximate NEVPT4
  Christian Kollmar      : KDIIS, OOCD, Brueckner-CCSD(T), CCSD density, CASPT2, CASPT2-K, improved NEVPT2 
  Axel Koslowski         : Symmetry handling                             
  Simone Kossmann        : meta-GGA functionals, TD-DFT gradient, OOMP2, (MP2 Hessian; deprecated post 5.0) 
  Lucas Lang             : DCDCAS, Hyperfine gauge corrections, ICE-SOC+SSC
  Marvin Lechner         : AUTO-CI (C++ implementation), FIC-MRCC        
  Spencer Leger          : CASSCF response                               
  Dagmar Lenk            : GEPOL surface, SMD, ORCA-2-JSON               
  Dimitrios Liakos       : Extrapolation schemes; Compound Job, Property file
  Dimitrios Manganas     : Further ROCIS development; embedding schemes. LFT, Crystal Embedding 
  Dimitrios Pantazis     : SARC Basis sets                               
  Anastasios Papadopoulos: AUTO-CI, single reference methods and gradients 
  Taras Petrenko         : pre 6.0 DFT Hessian and TD-DFT gradient,  ECA, NRVS 
  Petra Pikulova         : Analytic Raman intensities                    
  Peter Pinski           : DLPNO-MP2, DLPNO-MP2 Gradient                 
  Shashank Vittal Rao    : ES-AILFT, MagRelax                            
  Christoph Reimann      : Effective Core Potentials                     
  Marius Retegan         : Local ZFS, SOC                                
  Christoph Riplinger    : Optimizer, TS searches, QM/MM, DLPNO-CCSD(T), (RO)-DLPNO pert. Triples 
  Michael Roemelt        : Original ROCIS implementation, recursive CI coupling coefficients
  Masaaki Saitow         : Open-shell DLPNO-CCSD energy and density      
  Barbara Sandhoefer     : DKH picture change effects                    
  Yorick L. A. Schmerwitz: GMF and freeze-and-release deltaSCF, NEB S-IDPP initial path                    
  Kantharuban Sivalingam : CASSCF convergence/infrastructure, NEVPT2, NEVPT3, NEVPT4(SD), FIC-MRCI and CEPA variants
  Bernardo de Souza      : ESD, SOC TD-DFT                               
  Georgi L. Stoychev     : AutoAux, RI-MP2 NMR, DLPNO-MP2 response, X2C  
  Van Anh Tran           : RI-MP2 g-tensors                              
  Willem Van den Heuvel  : Paramagnetic NMR                              
  Zikuan Wang            : NOTCH, Electric field optimization            
  Frank Wennmohs         : Technical directorship and infrastructure     
  Hang Xu                : AUTO-CI-Response properties                   
                                                                         
[FACCTs GmbH]                                                            
  Markus Bursch, Nicolas Foglia, Miquel Garcia-Rates, Ingolf Harden, Hagen Neugebauer, Anastasios Papadopoulos, 
  Christoph Riplinger, Bernardo de Souza, Georgi L. Stoychev                                                    
                                                                 
  APM, various basis sets, CI-OPT, improved COSX, DLPNO-Multilevel,           
  DOCKER, DRACO, updates on ESD, Fragmentator, GOAT, IRC, LR-CPCM, L-BFGS, MBIS, meta-GGA TD-DFT gradient, ML-optimized integration grids, 
  MM, NACMEs, nearIR, NEB, NEB-TS, NL-DFT gradient (VV10), 2- and 3-layer-ONIOM, interface openCOSMO-RS, QMMM,   
  Crystal-QMMM, RESP, rigid body optimization, SF, symmetry and pop. for TD-DFT, various functionals, SOLVATOR                                   
                                                                         
[Other institutions]                                                     
  V. Asgeirsson          : NEB                                           
  Christoph Bannwarth    : sTDA-DFT, sTD-DFT, PBEh-3c, B97-3c, D3        
  Giovanni Bistoni       : ETS/NOCV, ADLD/ADEX, COVALED                  
  Martin Brehm           : Molecular dynamics                            
  Ronald Cardenas        : ETS/NOCV                                      
  Martina Colucci        : COVALED                                       
  Sebastian Ehlert       : rSCAN, r2SCAN, r2SCAN-3c, D4, dhf basis sets  
  Marvin Friede          : D4 for Fr, Ra, Ac-Lr                          
  Lars Goerigk           : TD-DFT with DH, B97 family of functionals     
  Stefan Grimme          : VdW corrections, initial TS optimization, DFT functionals, gCP, sTDA/sTD-DF 
  Waldemar Hujo          : DFT-NL                                        
  H. Jonsson             : NEB                                           
  Holger Kruse           : gCP                                           
  Marcel Mueller         : wB97X-3c, vDZP basis set                      
  Hagen Neugebauer       : wr2SCAN, Native XTB                           
  Gianluca Regni         : ADLD/ADEX                                     
  Tobias Risthaus        : pre 6.0 range-separated hybrid DFT and stability analysis
  Lukas Wittmann         : regularized MP2, r2SCAN double-hybrids, wr2SCAN        
                                                                         
We gratefully acknowledge several colleagues who have allowed us to      
interface, adapt or use parts of their codes:                            
  Ed Valeev, F. Pavosevic, A. Kumar             : LibInt (2-el integral package), F12 methods 
  Garnet Chan, S. Sharma, J. Yang, R. Olivares  : DMRG                   
  Ulf Ekstrom                                   : XCFun DFT Library      
  Mihaly Kallay                                 : mrcc  (arbitrary order and MRCC methods)
  Frank Weinhold                                : gennbo (NPA and NBO analysis)           
  Simon Mueller                                 : openCOSMO-RS                            
  Christopher J. Cramer and Donald G. Truhlar   : smd solvation model                     
  S Lehtola, MJT Oliveira, MAL Marques          : LibXC Library                           
  Liviu Ungur et al                             : ANISO software                          


 Your calculation uses the libint2 library for the computation of 2-el integrals
 For citations please refer to: http://libint.valeyev.net

 Your ORCA version has been built with support for libXC version: 7.0.0
 For citations please refer to: https://libxc.gitlab.io

 This ORCA versions uses:
   CBLAS   interface :  Fast vector & matrix operations
   LAPACKE interface :  Fast linear algebra routines
   SCALAPACK package :  Parallel linear algebra routines
   Shared memory     :  Shared parallel matrices
   BLAS/LAPACK       :  OpenBLAS 0.3.29  USE64BITINT DYNAMIC_ARCH NO_AFFINITY Cooperlake SINGLE_THREADED
        Core in use  :  Cooperlake
   Copyright (c) 2011-2014, The OpenBLAS Project


  ***********************************
  * Starting time: Sat Feb 28 22:00:50 2026
  * Host name:     c09b01n05
  * Process ID:    2897597
  * Working dir.:  /lustre1/jiangy/jiangy_liuxy/NMR/B9D7C2-SSSS
  ***********************************

NOTE: MaxCore=6000 MB was set to SCF,MP2,MDCI,CIPSI,MRCI,RASCI and CIS
      => If you want to overwrite this, your respective input block should be placed after the MaxCore statement


***************************************
The coordinates will be read from file: conf-2.xyz
***************************************


Your calculation utilizes the atom-pairwise dispersion correction
based on EEQ partial charges (D4)


Warning: RI is on but no J-basis has been assigned. Assigning Def2/J (nothing to worry about!)
================================================================================

----- Orbital basis set information -----
Your calculation utilizes the basis: def2-TZVP
   F. Weigend and R. Ahlrichs, Phys. Chem. Chem. Phys. 7, 3297 (2005).

----- AuxJ basis set information -----
Your calculation utilizes the auxiliary basis: def2/J
   H-Rn: F. Weigend, Phys. Chem. Chem. Phys. 8, 1057 (2006).
   Fr-Lr: K. Eichkorn, F. Weigend, O. Treutler, R. Ahlrichs; Theor. Chem. Acc. 97, 119 (1997).

================================================================================
                                        WARNINGS
                       Please study these warnings very carefully!
================================================================================


WARNING: Geometry Optimization
  ===> : Switching off AutoStart
         For restart on a previous wavefunction, please use MOREAD

================================================================================
                                       INPUT FILE
================================================================================
NAME = opt-conf-2.inp
|  1> ! B3LYP OPT FREQ DEF2-TZVP D4 CPCM(Methanol) 
|  2> ! TightOpt
|  3> %pal nprocs 64 end
|  4> %maxcore 6000
|  5> 
|  6> %cpcm
|  7> end
|  8> 
|  9> %freq
| 10>    Temp 298.15
| 11> end
| 12> 
| 13> * xyzfile 0 1 conf-2.xyz
| 14> 
| 15> 
| 16>                          ****END OF INPUT****
================================================================================

                       *****************************
                       * Geometry Optimization Run *
                       *****************************

Geometry optimization settings:
Update method            Update   .... BFGS
Choice of coordinates    CoordSys .... (2022) Redundant Internals
Initial Hessian          InHess   .... Almloef's Model
Max. no of cycles        MaxIter  .... 246

Convergence Tolerances:
Energy Change            TolE     ....  1.0000e-06 Eh
Max. Gradient            TolMAXG  ....  1.0000e-04 Eh/bohr
RMS Gradient             TolRMSG  ....  3.0000e-05 Eh/bohr
Max. Displacement        TolMAXD  ....  1.0000e-03 bohr
RMS Displacement         TolRMSD  ....  6.0000e-04 bohr
Strict Convergence                .... False

------------------------------------------------------------------------------
                        ORCA OPTIMIZATION COORDINATE SETUP
------------------------------------------------------------------------------

The optimization will be done in redundant internal coordinates (2022)
Making redundant internal coordinates   ...  (2022 redundants) done
Evaluating the initial hessian          ...  (Almloef) done
Evaluating the coordinates              ...  done
Calculating the B-matrix                .... done
Calculating the G-matrix                .... done
The number of degrees of freedom        ....  407

    -----------------------------------------------------------------
                    Redundant Internal Coordinates


    -----------------------------------------------------------------
         Definition                    Initial Value    Approx d2E/dq
    -----------------------------------------------------------------
      1. B(C   1,C   0)                  1.3970         0.608929   
      2. B(C   2,C   1)                  1.4040         0.593554   
      3. B(C   3,C   2)                  1.3832         0.640574   
      4. B(C   4,C   3)                  1.3883         0.628795   
      5. B(C   5,C   4)                  1.3846         0.637307   
      6. B(C   5,C   0)                  1.3906         0.623457   
      7. B(C   6,C   4)                  1.5006         0.416115   
      8. B(C   7,C   6)                  1.5411         0.358682   
      9. B(C   8,C   7)                  1.5463         0.351898   
     10. B(C   9,C   8)                  1.5424         0.356894   
     11. B(C  10,C   9)                  1.5047         0.410009   
     12. B(C  11,C  10)                  1.3938         0.616093   
     13. B(C  12,C  11)                  1.3817         0.644194   
     14. B(C  13,C  12)                  1.4066         0.587930   
     15. B(C  14,C  13)                  1.3832         0.640593   
     16. B(C  15,C  14)                  1.3859         0.634356   
     17. B(C  15,C  10)                  1.3836         0.639585   
     18. B(C  16,C   7)                  1.5405         0.359486   
     19. B(C  17,C   8)                  1.5390         0.361440   
     20. B(O  18,C   2)                  1.3649         0.613686   
     21. B(O  19,C   0)                  1.3678         0.607088   
     22. B(O  20,C   1)                  1.3735         0.594556   
     23. B(O  21,C  13)                  1.3563         0.633263   
     24. B(O  22,C  12)                  1.3749         0.591476   
     25. B(C  23,O  20)                  1.4232         0.495312   
     26. B(C  24,C  23)                  1.5504         0.346550   
     27. B(C  25,C  24)                  1.5172         0.391561   
     28. B(C  26,C  23)                  1.5343         0.367778   
     29. B(O  27,C  26)                  1.4020         0.535371   
     30. B(C  28,C  25)                  1.3903         0.624211   
     31. B(C  29,C  28)                  1.3816         0.644370   
     32. B(C  30,C  29)                  1.4036         0.594368   
     33. B(C  31,C  30)                  1.3839         0.638861   
     34. B(C  32,C  31)                  1.3842         0.638270   
     35. B(C  32,C  25)                  1.3860         0.634097   
     36. B(C  33,O  19)                  1.4084         0.523034   
     37. B(C  34,O  18)                  1.4072         0.525307   
     38. B(C  35,O  22)                  1.4085         0.522768   
     39. B(O  36,C  24)                  1.4008         0.537904   
     40. B(O  37,C  16)                  1.4014         0.536602   
     41. B(O  38,C  17)                  1.4133         0.513782   
     42. B(O  39,C  29)                  1.3771         0.586756   
     43. B(O  40,C  30)                  1.3610         0.622575   
     44. B(C  41,O  39)                  1.4053         0.528984   
     45. B(H  42,C   3)                  1.0781         0.376246   
     46. B(H  43,C   5)                  1.0781         0.376222   
     47. B(H  44,C   6)                  1.0918         0.357682   
     48. B(H  45,C   6)                  1.0911         0.358604   
     49. B(H  46,C   7)                  1.0939         0.355029   
     50. B(H  47,C   8)                  1.0946         0.354129   
     51. B(H  48,C   9)                  1.0952         0.353231   
     52. B(H  49,C   9)                  1.0911         0.358633   
     53. B(H  50,C  11)                  1.0792         0.374651   
     54. B(H  51,C  14)                  1.0789         0.375040   
     55. B(H  52,C  15)                  1.0800         0.373556   
     56. B(H  53,C  16)                  1.0979         0.349736   
     57. B(H  54,C  16)                  1.0947         0.353960   
     58. B(H  55,C  17)                  1.0920         0.357428   
     59. B(H  56,C  17)                  1.0990         0.348327   
     60. B(H  57,O  21)                  0.9665         0.507625   
     61. B(H  57,O  22)                  2.1392         0.010000   
     62. B(H  58,C  23)                  1.0945         0.354159   
     63. B(H  59,C  24)                  1.0973         0.350538   
     64. B(H  60,C  26)                  1.0993         0.348006   
     65. B(H  61,C  26)                  1.0916         0.358042   
     66. B(H  62,O  22)                  2.4331         0.010000   
     67. B(H  62,O  20)                  2.1783         0.010000   
     68. B(H  62,O  27)                  0.9677         0.505533   
     69. B(H  63,C  28)                  1.0777         0.376808   
     70. B(H  64,C  31)                  1.0787         0.375370   
     71. B(H  65,C  32)                  1.0793         0.374484   
     72. B(H  66,C  33)                  1.0888         0.361631   
     73. B(H  67,H  64)                  2.6303         0.010000   
     74. B(H  67,C  33)                  1.0931         0.356002   
     75. B(H  68,C  33)                  1.0951         0.353388   
     76. B(H  69,C  34)                  1.0957         0.352687   
     77. B(H  70,C  34)                  1.0883         0.362368   
     78. B(H  71,H  52)                  3.7831         0.010000   
     79. B(H  71,C  34)                  1.0925         0.356802   
     80. B(H  72,C  35)                  1.0928         0.356429   
     81. B(H  73,C  35)                  1.0945         0.354216   
     82. B(H  74,C  35)                  1.0891         0.361339   
     83. B(H  75,O  20)                  2.2108         0.010000   
     84. B(H  75,O  18)                  2.1181         0.010000   
     85. B(H  75,O  36)                  0.9729         0.495825   
     86. B(H  76,O  38)                  1.8764         0.017947   
     87. B(H  76,O  37)                  0.9716         0.498285   
     88. B(H  77,O  38)                  0.9641         0.512240   
     89. B(H  78,O  39)                  2.1156         0.010000   
     90. B(H  78,O  40)                  0.9669         0.506993   
     91. B(H  79,C  41)                  1.0942         0.354546   
     92. B(H  80,H  42)                  2.5458         0.010000   
     93. B(H  80,C  41)                  1.0940         0.354854   
     94. B(H  81,C  41)                  1.0891         0.361245   
     95. A(C   1,C   0,O  19)          117.0346         0.428214   
     96. A(C   5,C   0,O  19)          123.8566         0.430029   
     97. A(C   1,C   0,C   5)          119.0989         0.433094   
     98. A(C   0,C   1,O  20)          124.9519         0.426617   
     99. A(C   0,C   1,C   2)          119.6282         0.429288   
    100. A(C   2,C   1,O  20)          115.2961         0.424668   
    101. A(C   3,C   2,O  18)          125.3303         0.432967   
    102. A(C   1,C   2,C   3)          120.2718         0.433212   
    103. A(C   1,C   2,O  18)          114.3800         0.427082   
    104. A(C   4,C   3,H  42)          119.1825         0.356393   
    105. A(C   2,C   3,H  42)          120.7544         0.357519   
    106. A(C   2,C   3,C   4)          120.0631         0.437735   
    107. A(C   5,C   4,C   6)          120.8571         0.406257   
    108. A(C   3,C   4,C   6)          119.3247         0.405293   
    109. A(C   3,C   4,C   5)          119.7071         0.437332   
    110. A(C   4,C   5,H  43)          118.9096         0.357204   
    111. A(C   0,C   5,H  43)          119.9406         0.355874   
    112. A(C   0,C   5,C   4)          121.1461         0.436660   
    113. A(C   4,C   6,H  44)          109.7238         0.329766   
    114. A(C   7,C   6,H  45)          109.8029         0.321942   
    115. A(C   4,C   6,C   7)          109.9962         0.367554   
    116. A(H  44,C   6,H  45)          108.0631         0.290342   
    117. A(C   4,C   6,H  45)          110.4653         0.329906   
    118. A(C   7,C   6,H  44)          108.7468         0.321807   
    119. A(C   6,C   7,C  16)          109.3652         0.358482   
    120. A(C   8,C   7,C  16)          115.6126         0.357320   
    121. A(C  16,C   7,H  46)          106.9006         0.321532   
    122. A(C   8,C   7,H  46)          106.6198         0.320412   
    123. A(C   6,C   7,H  46)          107.4596         0.321415   
    124. A(C   6,C   7,C   8)          110.4908         0.357184   
    125. A(C   7,C   8,C  17)          115.3560         0.357649   
    126. A(C  17,C   8,H  47)          105.7536         0.321684   
    127. A(C   7,C   8,C   9)          111.1204         0.356881   
    128. A(C   9,C   8,H  47)          106.6741         0.321019   
    129. A(C   7,C   8,H  47)          106.5229         0.320280   
    130. A(C   9,C   8,C  17)          110.8067         0.358508   
    131. A(H  48,C   9,H  49)          108.9952         0.289776   
    132. A(C  10,C   9,H  48)          108.8190         0.328283   
    133. A(C  10,C   9,H  49)          109.2714         0.329106   
    134. A(C   8,C   9,C  10)          111.0841         0.366310   
    135. A(C   8,C   9,H  48)          108.8496         0.320885   
    136. A(C   8,C   9,H  49)          109.7856         0.321683   
    137. A(C   9,C  10,C  11)          119.8013         0.402784   
    138. A(C  11,C  10,C  15)          119.0517         0.436007   
    139. A(C   9,C  10,C  15)          121.1442         0.405453   
    140. A(C  10,C  11,C  12)          120.9132         0.436571   
    141. A(C  10,C  11,H  50)          118.8890         0.354905   
    142. A(C  12,C  11,H  50)          120.1953         0.357603   
    143. A(C  11,C  12,C  13)          119.5724         0.432910   
    144. A(C  13,C  12,O  22)          114.6590         0.423552   
    145. A(C  11,C  12,O  22)          125.7587         0.430544   
    146. A(C  12,C  13,O  21)          120.6805         0.428761   
    147. A(C  12,C  13,C  14)          119.3467         0.432474   
    148. A(C  14,C  13,O  21)          119.9690         0.435423   
    149. A(C  13,C  14,H  51)          118.4644         0.357325   
    150. A(C  13,C  14,C  15)          120.4731         0.438433   
    151. A(C  15,C  14,H  51)          121.0541         0.356732   
    152. A(C  14,C  15,H  52)          119.4144         0.356492   
    153. A(C  10,C  15,H  52)          119.9608         0.356989   
    154. A(C  10,C  15,C  14)          120.6225         0.438309   
    155. A(O  37,C  16,H  54)          105.9784         0.341333   
    156. A(C   7,C  16,H  54)          108.1706         0.321374   
    157. A(O  37,C  16,H  53)          110.7095         0.340649   
    158. A(C   7,C  16,H  53)          110.2062         0.320743   
    159. A(C   7,C  16,O  37)          113.7103         0.381777   
    160. A(H  53,C  16,H  54)          107.7829         0.288731   
    161. A(O  38,C  17,H  56)          109.1361         0.337958   
    162. A(C   8,C  17,O  38)          115.0180         0.379267   
    163. A(H  55,C  17,H  56)          107.8468         0.288989   
    164. A(C   8,C  17,H  56)          108.6146         0.320816   
    165. A(O  38,C  17,H  55)          105.6390         0.339416   
    166. A(C   8,C  17,H  55)          110.3498         0.322173   
    167. A(C   2,O  18,C  34)          118.6099         0.415158   
    168. A(C   0,O  19,C  33)          118.5468         0.414042   
    169. A(C   1,O  20,C  23)          120.0101         0.408548   
    170. A(C  13,O  21,H  57)          108.0432         0.369936   
    171. A(C  12,O  22,C  35)          118.2620         0.412093   
    172. A(C  26,C  23,H  58)          110.3095         0.322606   
    173. A(C  24,C  23,H  58)          110.5228         0.319484   
    174. A(O  20,C  23,H  58)          110.4686         0.336833   
    175. A(C  24,C  23,C  26)          111.4448         0.357775   
    176. A(O  20,C  23,C  26)          103.9409         0.378007   
    177. A(O  20,C  23,C  24)          109.9815         0.374144   
    178. A(C  23,C  24,O  36)          109.9736         0.379518   
    179. A(O  36,C  24,H  59)          106.4158         0.340917   
    180. A(C  25,C  24,H  59)          109.0019         0.325392   
    181. A(C  23,C  24,H  59)          108.2071         0.318948   
    182. A(C  25,C  24,O  36)          113.8279         0.387660   
    183. A(C  23,C  24,C  25)          109.2408         0.361614   
    184. A(C  28,C  25,C  32)          119.4835         0.436358   
    185. A(C  24,C  25,C  32)          119.7016         0.401563   
    186. A(C  24,C  25,C  28)          120.7809         0.400453   
    187. A(O  27,C  26,H  61)          107.1733         0.341858   
    188. A(H  60,C  26,H  61)          109.0973         0.289025   
    189. A(C  23,C  26,H  61)          110.1806         0.323183   
    190. A(O  27,C  26,H  60)          110.6727         0.340236   
    191. A(C  23,C  26,H  60)          108.5091         0.321681   
    192. A(C  23,C  26,O  27)          111.1888         0.383139   
    193. A(C  26,O  27,H  62)          106.3933         0.359206   
    194. A(C  29,C  28,H  63)          120.9840         0.357969   
    195. A(C  25,C  28,H  63)          118.5894         0.356041   
    196. A(C  25,C  28,C  29)          120.4265         0.437624   
    197. A(C  30,C  29,O  39)          114.5813         0.423770   
    198. A(C  28,C  29,O  39)          125.6094         0.429947   
    199. A(C  28,C  29,C  30)          119.8088         0.433780   
    200. A(C  31,C  30,O  40)          120.1486         0.433879   
    201. A(C  29,C  30,O  40)          120.3609         0.428290   
    202. A(C  29,C  30,C  31)          119.4899         0.433110   
    203. A(C  32,C  31,H  64)          121.1805         0.357158   
    204. A(C  30,C  31,H  64)          118.5648         0.357214   
    205. A(C  30,C  31,C  32)          120.2547         0.438706   
    206. A(C  31,C  32,H  65)          119.5592         0.357015   
    207. A(C  25,C  32,H  65)          120.0069         0.356617   
    208. A(C  25,C  32,C  31)          120.4336         0.438114   
    209. A(H  67,C  33,H  68)          109.8170         0.289462   
    210. A(H  66,C  33,H  68)          109.1896         0.290175   
    211. A(O  19,C  33,H  68)          111.5205         0.339783   
    212. A(H  66,C  33,H  67)          109.5049         0.290511   
    213. A(O  19,C  33,H  67)          111.2628         0.340202   
    214. A(O  19,C  33,H  66)          105.4311         0.341095   
    215. A(H  69,C  34,H  71)          109.7210         0.289473   
    216. A(O  18,C  34,H  71)          111.2617         0.340576   
    217. A(H  69,C  34,H  70)          109.4112         0.290177   
    218. A(O  18,C  34,H  70)          105.4691         0.341459   
    219. A(O  18,C  34,H  69)          111.4813         0.339917   
    220. A(H  70,C  34,H  71)          109.3909         0.290706   
    221. A(H  73,C  35,H  74)          109.3494         0.290245   
    222. A(H  72,C  35,H  74)          109.1829         0.290528   
    223. A(O  22,C  35,H  74)          105.9107         0.341020   
    224. A(H  72,C  35,H  73)          109.8283         0.289622   
    225. A(O  22,C  35,H  73)          111.1681         0.339887   
    226. A(O  22,C  35,H  72)          111.3005         0.340241   
    227. A(C  24,O  36,H  75)          107.8227         0.358310   
    228. A(C  16,O  37,H  76)          106.4679         0.358464   
    229. A(C  17,O  38,H  77)          108.4507         0.357500   
    230. A(C  29,O  39,C  41)          117.8605         0.412372   
    231. A(C  30,O  40,H  78)          107.5412         0.368777   
    232. A(H  80,C  41,H  81)          109.5850         0.290315   
    233. A(H  79,C  41,H  81)          109.4116         0.290275   
    234. A(O  39,C  41,H  81)          105.7286         0.341681   
    235. A(H  79,C  41,H  80)          109.6944         0.289464   
    236. A(O  39,C  41,H  80)          110.9226         0.340662   
    237. A(O  39,C  41,H  79)          111.4120         0.340612   
    238. D(O  20,C   1,C   0,O  19)      2.8699         0.025604   
    239. D(C   2,C   1,C   0,O  19)    178.6273         0.025604   
    240. D(C   2,C   1,C   0,C   5)     -0.2771         0.025604   
    241. D(O  20,C   1,C   0,C   5)   -176.0346         0.025604   
    242. D(O  18,C   2,C   1,C   0)    176.3830         0.024260   
    243. D(C   3,C   2,C   1,C   0)     -2.1593         0.024260   
    244. D(C   3,C   2,C   1,O  20)    173.9952         0.024260   
    245. D(O  18,C   2,C   1,O  20)     -7.4625         0.024260   
    246. D(C   4,C   3,C   2,C   1)      2.3436         0.028513   
    247. D(H  42,C   3,C   2,O  18)      3.9807         0.028513   
    248. D(C   4,C   3,C   2,O  18)   -176.0290         0.028513   
    249. D(H  42,C   3,C   2,C   1)   -177.6467         0.028513   
    250. D(C   6,C   4,C   3,H  42)      3.7105         0.027407   
    251. D(C   5,C   4,C   3,H  42)    179.9122         0.027407   
    252. D(C   5,C   4,C   3,C   2)     -0.0782         0.027407   
    253. D(C   6,C   4,C   3,C   2)   -176.2800         0.027407   
    254. D(H  43,C   5,C   4,C   6)     -5.5641         0.028204   
    255. D(H  43,C   5,C   4,C   3)    178.2936         0.028204   
    256. D(C   0,C   5,C   4,C   3)     -2.4064         0.028204   
    257. D(C   4,C   5,C   0,O  19)   -176.2597         0.026915   
    258. D(H  43,C   5,C   0,C   1)   -178.1420         0.026915   
    259. D(H  43,C   5,C   0,O  19)      3.0331         0.026915   
    260. D(C   0,C   5,C   4,C   6)    173.7359         0.028204   
    261. D(C   4,C   5,C   0,C   1)      2.5652         0.026915   
    262. D(H  45,C   6,C   4,C   3)   -166.5455         0.012811   
    263. D(H  44,C   6,C   4,C   5)    136.3348         0.012811   
    264. D(H  44,C   6,C   4,C   3)    -47.5083         0.012811   
    265. D(C   7,C   6,C   4,C   5)   -104.0756         0.012811   
    266. D(C   7,C   6,C   4,C   3)     72.0813         0.012811   
    267. D(C   8,C   7,C   6,H  44)   -174.3625         0.010327   
    268. D(C   8,C   7,C   6,C   4)     65.4547         0.010327   
    269. D(C  16,C   7,C   6,H  45)     72.0392         0.010327   
    270. D(C  16,C   7,C   6,H  44)    -46.0095         0.010327   
    271. D(C   8,C   7,C   6,H  45)    -56.3138         0.010327   
    272. D(C  16,C   7,C   6,C   4)   -166.1924         0.010327   
    273. D(C  17,C   8,C   7,H  46)   -151.2910         0.010000   
    274. D(C  17,C   8,C   7,C  16)    -32.6357         0.010000   
    275. D(C  17,C   8,C   7,C   6)     92.2339         0.010000   
    276. D(C   9,C   8,C   7,C  16)     94.5534         0.010000   
    277. D(C   9,C   8,C   7,H  46)    -24.1019         0.010000   
    278. D(C   9,C   8,C   7,C   6)   -140.5771         0.010000   
    279. D(H  48,C   9,C   8,C  17)    -42.0798         0.010232   
    280. D(H  48,C   9,C   8,C   7)   -171.7148         0.010232   
    281. D(C  10,C   9,C   8,H  47)    -47.2318         0.010232   
    282. D(C  10,C   9,C   8,C  17)   -161.8777         0.010232   
    283. D(H  48,C   9,C   8,H  47)     72.5661         0.010232   
    284. D(C  10,C   9,C   8,C   7)     68.4873         0.010232   
    285. D(C  15,C  10,C   9,H  48)    134.6780         0.012451   
    286. D(C  15,C  10,C   9,C   8)   -105.5059         0.012451   
    287. D(C  11,C  10,C   9,H  49)   -164.8397         0.012451   
    288. D(C  11,C  10,C   9,H  48)    -45.9295         0.012451   
    289. D(C  11,C  10,C   9,C   8)     73.8866         0.012451   
    290. D(H  50,C  11,C  10,C  15)   -179.2772         0.026245   
    291. D(H  50,C  11,C  10,C   9)      1.3175         0.026245   
    292. D(C  12,C  11,C  10,C  15)      0.1478         0.026245   
    293. D(C  12,C  11,C  10,C   9)   -179.2575         0.026245   
    294. D(O  22,C  12,C  11,H  50)      1.7022         0.028858   
    295. D(C  13,C  12,C  11,H  50)   -179.5086         0.028858   
    296. D(O  22,C  12,C  11,C  10)   -177.7153         0.028858   
    297. D(C  13,C  12,C  11,C  10)      1.0738         0.028858   
    298. D(O  21,C  13,C  12,C  11)    179.0268         0.023779   
    299. D(C  14,C  13,C  12,O  22)    177.2461         0.023779   
    300. D(C  14,C  13,C  12,C  11)     -1.6728         0.023779   
    301. D(O  21,C  13,C  12,O  22)     -2.0544         0.023779   
    302. D(H  51,C  14,C  13,O  21)      1.4181         0.028515   
    303. D(H  51,C  14,C  13,C  12)   -177.8875         0.028515   
    304. D(C  15,C  14,C  13,O  21)   -179.6297         0.028515   
    305. D(C  15,C  14,C  13,C  12)      1.0647         0.028515   
    306. D(H  52,C  15,C  14,H  51)     -0.3659         0.027926   
    307. D(H  52,C  15,C  14,C  13)   -179.2907         0.027926   
    308. D(C  10,C  15,C  14,H  51)    179.0874         0.027926   
    309. D(C  10,C  15,C  14,C  13)      0.1626         0.027926   
    310. D(H  52,C  15,C  10,C  11)    178.6749         0.028419   
    311. D(H  52,C  15,C  10,C   9)     -1.9280         0.028419   
    312. D(C  14,C  15,C  10,C  11)     -0.7753         0.028419   
    313. D(C  14,C  15,C  10,C   9)    178.6217         0.028419   
    314. D(H  53,C  16,C   7,H  46)   -173.5420         0.010370   
    315. D(H  53,C  16,C   7,C   8)     67.9579         0.010370   
    316. D(H  53,C  16,C   7,C   6)    -57.4910         0.010370   
    317. D(O  37,C  16,C   7,H  46)     61.4841         0.010370   
    318. D(O  37,C  16,C   7,C   8)    -57.0160         0.010370   
    319. D(O  37,C  16,C   7,C   6)    177.5351         0.010370   
    320. D(H  55,C  17,C   8,H  47)     77.3661         0.010475   
    321. D(H  55,C  17,C   8,C   9)   -167.4122         0.010475   
    322. D(H  55,C  17,C   8,C   7)    -40.0652         0.010475   
    323. D(O  38,C  17,C   8,H  47)   -163.2680         0.010475   
    324. D(O  38,C  17,C   8,C   9)    -48.0463         0.010475   
    325. D(O  38,C  17,C   8,C   7)     79.3008         0.010475   
    326. D(C  34,O  18,C   2,C   3)     -4.6475         0.030448   
    327. D(C  34,O  18,C   2,C   1)    176.8957         0.030448   
    328. D(C  33,O  19,C   0,C   5)     -6.5522         0.026960   
    329. D(C  33,O  19,C   0,C   1)    174.6005         0.026960   
    330. D(C  23,O  20,C   1,C   2)    129.6124         0.030922   
    331. D(C  23,O  20,C   1,C   0)    -54.4663         0.030922   
    332. D(H  57,O  21,C  13,C  14)    176.2670         0.029515   
    333. D(H  57,O  21,C  13,C  12)     -4.4369         0.029515   
    334. D(C  35,O  22,C  12,C  13)   -175.6246         0.030579   
    335. D(C  35,O  22,C  12,C  11)      3.2166         0.030579   
    336. D(H  58,C  23,O  20,C   1)     58.4997         0.022571   
    337. D(C  26,C  23,O  20,C   1)    176.8187         0.022571   
    338. D(C  24,C  23,O  20,C   1)    -63.7692         0.022571   
    339. D(O  36,C  24,C  23,H  58)   -170.8401         0.010000   
    340. D(O  36,C  24,C  23,C  26)     66.1204         0.010000   
    341. D(O  36,C  24,C  23,O  20)    -48.6033         0.010000   
    342. D(C  25,C  24,C  23,H  58)    -45.2393         0.010000   
    343. D(C  25,C  24,C  23,C  26)   -168.2789         0.010000   
    344. D(C  25,C  24,C  23,O  20)     76.9975         0.010000   
    345. D(C  32,C  25,C  24,O  36)   -171.0312         0.011402   
    346. D(C  32,C  25,C  24,C  23)     65.6254         0.011402   
    347. D(C  28,C  25,C  24,H  59)    129.7101         0.011402   
    348. D(C  28,C  25,C  24,O  36)     11.1012         0.011402   
    349. D(C  28,C  25,C  24,C  23)   -112.2422         0.011402   
    350. D(H  60,C  26,C  23,H  58)   -174.2912         0.010821   
    351. D(H  60,C  26,C  23,C  24)    -51.1298         0.010821   
    352. D(H  60,C  26,C  23,O  20)     67.2803         0.010821   
    353. D(O  27,C  26,C  23,H  58)     63.7672         0.010821   
    354. D(O  27,C  26,C  23,C  24)   -173.0714         0.010821   
    355. D(O  27,C  26,C  23,O  20)    -54.6613         0.010821   
    356. D(H  62,O  27,C  26,H  61)    166.5918         0.022783   
    357. D(H  62,O  27,C  26,H  60)    -74.5517         0.022783   
    358. D(H  62,O  27,C  26,C  23)     46.1237         0.022783   
    359. D(H  63,C  28,C  25,C  32)    176.7904         0.026984   
    360. D(H  63,C  28,C  25,C  24)     -5.3374         0.026984   
    361. D(C  29,C  28,C  25,C  32)     -3.1599         0.026984   
    362. D(C  29,C  28,C  25,C  24)    174.7122         0.026984   
    363. D(C  30,C  29,C  28,H  63)   -179.0428         0.028875   
    364. D(C  30,C  29,C  28,C  25)      0.9064         0.028875   
    365. D(O  39,C  29,C  28,H  63)      1.2146         0.028875   
    366. D(O  39,C  29,C  28,C  25)   -178.8362         0.028875   
    367. D(O  40,C  30,C  29,O  39)      1.4041         0.024330   
    368. D(O  40,C  30,C  29,C  28)   -178.3658         0.024330   
    369. D(C  31,C  30,C  29,O  39)   -178.3214         0.024330   
    370. D(C  31,C  30,C  29,C  28)      1.9087         0.024330   
    371. D(H  64,C  31,C  30,O  40)     -2.1534         0.028351   
    372. D(H  64,C  31,C  30,C  29)    177.5726         0.028351   
    373. D(C  32,C  31,C  30,O  40)    177.8111         0.028351   
    374. D(C  32,C  31,C  30,C  29)     -2.4628         0.028351   
    375. D(H  65,C  32,C  31,H  64)      0.3631         0.028295   
    376. D(H  65,C  32,C  31,C  30)   -179.6004         0.028295   
    377. D(C  25,C  32,C  31,H  64)   -179.8332         0.028295   
    378. D(C  25,C  32,C  31,C  30)      0.2032         0.028295   
    379. D(H  65,C  32,C  25,C  28)   -177.5858         0.027902   
    380. D(H  65,C  32,C  25,C  24)      4.5187         0.027902   
    381. D(C  31,C  32,C  25,C  28)      2.6114         0.027902   
    382. D(C  31,C  32,C  25,C  24)   -175.2841         0.027902   
    383. D(H  68,C  33,O  19,C   0)     65.5950         0.021699   
    384. D(H  67,C  33,O  19,C   0)    -57.3946         0.021699   
    385. D(H  66,C  33,O  19,C   0)   -176.0205         0.021699   
    386. D(H  71,C  34,O  18,C   2)    -57.3510         0.023770   
    387. D(H  70,C  34,O  18,C   2)   -175.8626         0.023770   
    388. D(H  69,C  34,O  18,C   2)     65.4855         0.023770   
    389. D(H  74,C  35,O  22,C  12)    174.1839         0.025271   
    390. D(H  73,C  35,O  22,C  12)     55.5089         0.025271   
    391. D(H  72,C  35,O  22,C  12)    -67.2698         0.025271   
    392. D(H  75,O  36,C  24,H  59)    157.3375         0.023009   
    393. D(H  75,O  36,C  24,C  25)    -82.5845         0.023009   
    394. D(H  75,O  36,C  24,C  23)     40.3591         0.023009   
    395. D(H  76,O  37,C  16,H  54)   -164.1593         0.022893   
    396. D(H  76,O  37,C  16,H  53)    -47.5515         0.022893   
    397. D(H  76,O  37,C  16,C   7)     77.1527         0.022893   
    398. D(H  77,O  38,C  17,H  56)    -57.1242         0.022691   
    399. D(H  77,O  38,C  17,H  55)   -172.8462         0.022691   
    400. D(H  77,O  38,C  17,C   8)     65.2054         0.022691   
    401. D(C  41,O  39,C  29,C  30)    179.1816         0.027656   
    402. D(C  41,O  39,C  29,C  28)     -1.0640         0.027656   
    403. D(H  78,O  40,C  30,C  31)    177.6976         0.028454   
    404. D(H  78,O  40,C  30,C  29)     -2.0261         0.028454   
    405. D(H  81,C  41,O  39,C  29)   -179.6258         0.024120   
    406. D(H  80,C  41,O  39,C  29)     61.6564         0.024120   
    407. D(H  79,C  41,O  39,C  29)    -60.8545         0.024120   
    -----------------------------------------------------------------

Number of atoms                         .... 82
Number of degrees of freedom            .... 407


         *************************************************************
         *                GEOMETRY OPTIMIZATION CYCLE   1            *
         *************************************************************
---------------------------------
CARTESIAN COORDINATES (ANGSTROEM)
---------------------------------
  C     29.046517  -27.067542   -0.449643
  C     28.947941  -27.351616    0.914615
  C     28.027049  -28.313959    1.358425
  C     27.189937  -28.946005    0.456740
  C     27.290374  -28.666384   -0.899357
  C     28.230232  -27.751815   -1.343607
  C     26.319264  -29.297262   -1.853752
  C     24.927809  -28.655187   -1.690957
  C     24.964989  -27.168279   -2.113660
  C     24.107212  -26.300596   -1.170022
  C     24.721378  -26.222680    0.201384
  C     25.856088  -25.440285    0.408799
  C     26.447753  -25.364236    1.655066
  C     25.911346  -26.103887    2.724450
  C     24.777746  -26.869161    2.518159
  C     24.186658  -26.926357    1.265974
  C     23.877005  -29.524915   -2.406788
  C     24.608426  -26.892301   -3.585117
  O     28.074211  -28.562497    2.699661
  O     29.940285  -26.100756   -0.820391
  O     29.636547  -26.696933    1.906445
  O     26.485815  -26.061239    3.952381
  O     27.537990  -24.592581    1.981152
  C     31.055314  -26.602737    1.845001
  C     31.684616  -28.016787    1.936137
  C     31.540550  -28.715405    0.597080
  C     31.422007  -25.745960    3.063777
  O     30.727082  -24.528284    3.054788
  C     30.708100  -29.820015    0.456819
  C     30.497460  -30.383997   -0.786717
  C     31.142703  -29.850403   -1.913218
  C     32.015504  -28.787561   -1.758698
  C     32.211626  -28.221943   -0.510659
  C     30.149962  -25.869004   -2.193671
  C     27.144580  -29.463587    3.251088
  C     28.078195  -23.749016    0.990929
  O     31.121163  -28.723193    3.006486
  O     22.565221  -29.051309   -2.269295
  O     23.225469  -26.897711   -3.876113
  O     29.680378  -31.460557   -1.050910
  O     30.917669  -30.376102   -3.148223
  C     29.013552  -32.060065    0.031144
  H     26.454226  -29.658432    0.793475
  H     28.316024  -27.565020   -2.401907
  H     26.239146  -30.365986   -1.645157
  H     26.663278  -29.178180   -2.882366
  H     24.681501  -28.671440   -0.625312
  H     26.000603  -26.835708   -1.991423
  H     24.038379  -25.289067   -1.584300
  H     23.103547  -26.721371   -1.091745
  H     26.264045  -24.883226   -0.420638
  H     24.358356  -27.403365    3.356513
  H     23.295317  -27.520135    1.126802
  H     24.138917  -29.640660   -3.466740
  H     23.887879  -30.519312   -1.949202
  H     25.048318  -27.654393   -4.231827
  H     25.033310  -25.920355   -3.872700
  H     27.290477  -25.529658    3.888143
  H     31.366125  -26.103168    0.922060
  H     32.751367  -27.903107    2.166881
  H     31.191740  -26.317498    3.974151
  H     32.487477  -25.509092    3.050737
  H     29.805452  -24.741309    2.850880
  H     30.234495  -30.223852    1.336565
  H     32.533458  -28.414856   -2.628409
  H     32.890029  -27.389245   -0.404099
  H     30.940604  -25.122055   -2.244027
  H     30.474822  -26.779325   -2.704244
  H     29.249972  -25.473633   -2.676363
  H     27.299939  -30.480781    2.874716
  H     27.322861  -29.443942    4.324498
  H     26.118546  -29.148048    3.047974
  H     28.529485  -24.326603    0.180424
  H     27.316125  -23.075229    0.587002
  H     28.851245  -23.163619    1.486678
  H     30.167542  -28.530850    3.021139
  H     22.477445  -28.301780   -2.881248
  H     22.812619  -26.161973   -3.409555
  H     30.314123  -31.123831   -3.041096
  H     29.720668  -32.455021    0.766901
  H     28.336499  -31.349790    0.514812
  H     28.438130  -32.880857   -0.394774

----------------------------
CARTESIAN COORDINATES (A.U.)
----------------------------
  NO LB      ZA    FRAG     MASS         X           Y           Z
   0 C     6.0000    0    12.011   54.889963  -51.150241   -0.849701
   1 C     6.0000    0    12.011   54.703680  -51.687063    1.728373
   2 C     6.0000    0    12.011   52.963446  -53.505629    2.567052
   3 C     6.0000    0    12.011   51.381535  -54.700022    0.863114
   4 C     6.0000    0    12.011   51.571333  -54.171615   -1.699539
   5 C     6.0000    0    12.011   53.347407  -52.443330   -2.539049
   6 C     6.0000    0    12.011   49.736200  -55.363802   -3.503084
   7 C     6.0000    0    12.011   47.106732  -54.150456   -3.195446
   8 C     6.0000    0    12.011   47.176991  -51.340606   -3.994238
   9 C     6.0000    0    12.011   45.556029  -49.700925   -2.211022
  10 C     6.0000    0    12.011   46.716634  -49.553684    0.380560
  11 C     6.0000    0    12.011   48.860925  -48.075172    0.772518
  12 C     6.0000    0    12.011   49.979010  -47.931460    3.127621
  13 C     6.0000    0    12.011   48.965348  -49.329197    5.148465
  14 C     6.0000    0    12.011   46.823154  -50.775357    4.758631
  15 C     6.0000    0    12.011   45.706159  -50.883440    2.392343
  16 C     6.0000    0    12.011   45.121000  -55.794004   -4.548171
  17 C     6.0000    0    12.011   46.503186  -50.819084   -6.774889
  18 O     8.0000    0    15.999   53.052570  -53.975297    5.101621
  19 O     8.0000    0    15.999   56.578939  -49.323281   -1.550314
  20 O     8.0000    0    15.999   56.004957  -50.449892    3.602660
  21 O     8.0000    0    15.999   50.050937  -49.248604    7.468918
  22 O     8.0000    0    15.999   52.039260  -46.473243    3.743834
  23 C     6.0000    0    12.011   58.686038  -50.271887    3.486547
  24 C     6.0000    0    12.011   59.875246  -52.944055    3.658769
  25 C     6.0000    0    12.011   59.603002  -54.264252    1.128318
  26 C     6.0000    0    12.011   59.378988  -48.652814    5.789699
  27 O     8.0000    0    15.999   58.065770  -46.351739    5.772713
  28 C     6.0000    0    12.011   58.029899  -56.351662    0.863263
  29 C     6.0000    0    12.011   57.631846  -57.417433   -1.486679
  30 C     6.0000    0    12.011   58.851180  -56.409086   -3.615458
  31 C     6.0000    0    12.011   60.500534  -54.400606   -3.323457
  32 C     6.0000    0    12.011   60.871152  -53.331743   -0.965005
  33 C     6.0000    0    12.011   56.975171  -48.885334   -4.145437
  34 C     6.0000    0    12.011   51.295822  -55.678111    6.143667
  35 C     6.0000    0    12.011   53.060099  -44.879137    1.872585
  36 O     8.0000    0    15.999   58.810475  -54.278969    5.681436
  37 O     8.0000    0    15.999   42.642087  -54.899018   -4.288346
  38 O     8.0000    0    15.999   43.889775  -50.829307   -7.324792
  39 O     8.0000    0    15.999   56.087785  -59.451836   -1.985933
  40 O     8.0000    0    15.999   58.425926  -57.402513   -5.949280
  41 C     6.0000    0    12.011   54.827667  -60.584742    0.058854
  42 H     1.0000    0     1.008   49.991241  -56.046315    1.499450
  43 H     1.0000    0     1.008   53.509531  -52.090338   -4.538947
  44 H     1.0000    0     1.008   49.584800  -57.383398   -3.108897
  45 H     1.0000    0     1.008   50.386293  -55.138769   -5.446882
  46 H     1.0000    0     1.008   46.641278  -54.181169   -1.181668
  47 H     1.0000    0     1.008   49.134020  -50.712138   -3.763244
  48 H     1.0000    0     1.008   45.425953  -47.789410   -2.993894
  49 H     1.0000    0     1.008   43.659376  -50.496073   -2.063099
  50 H     1.0000    0     1.008   49.631852  -47.022483   -0.794890
  51 H     1.0000    0     1.008   46.030621  -51.784856    6.342891
  52 H     1.0000    0     1.008   44.021769  -52.005519    2.129348
  53 H     1.0000    0     1.008   45.615942  -56.012729   -6.551189
  54 H     1.0000    0     1.008   45.141550  -57.673142   -3.683459
  55 H     1.0000    0     1.008   47.334462  -52.259230   -7.996995
  56 H     1.0000    0     1.008   47.306100  -48.982373   -7.318342
  57 H     1.0000    0     1.008   51.571528  -48.244061    7.347526
  58 H     1.0000    0     1.008   59.273386  -49.327839    1.742441
  59 H     1.0000    0     1.008   61.891114  -52.729231    4.094811
  60 H     1.0000    0     1.008   58.943846  -49.732865    7.510056
  61 H     1.0000    0     1.008   61.392435  -48.205199    5.765057
  62 H     1.0000    0     1.008   56.324141  -46.754299    5.387382
  63 H     1.0000    0     1.008   57.134916  -57.114803    2.525742
  64 H     1.0000    0     1.008   61.479326  -53.696295   -4.966973
  65 H     1.0000    0     1.008   62.153147  -51.758172   -0.763636
  66 H     1.0000    0     1.008   58.469269  -47.473804   -4.240596
  67 H     1.0000    0     1.008   57.589068  -50.605590   -5.110280
  68 H     1.0000    0     1.008   55.274436  -48.138191   -5.057592
  69 H     1.0000    0     1.008   51.589408  -57.600328    5.432426
  70 H     1.0000    0     1.008   51.632725  -55.640986    8.172116
  71 H     1.0000    0     1.008   49.356899  -55.081829    5.759836
  72 H     1.0000    0     1.008   53.912914  -45.970617    0.340952
  73 H     1.0000    0     1.008   51.619995  -43.605864    1.109274
  74 H     1.0000    0     1.008   54.520952  -43.772896    2.809414
  75 H     1.0000    0     1.008   57.008392  -53.915492    5.709126
  76 H     1.0000    0     1.008   42.476216  -53.482614   -5.444769
  77 H     1.0000    0     1.008   43.109603  -49.438965   -6.443125
  78 H     1.0000    0     1.008   57.285391  -58.815517   -5.746838
  79 H     1.0000    0     1.008   56.163924  -61.331101    1.449232
  80 H     1.0000    0     1.008   53.548222  -59.242518    0.972854
  81 H     1.0000    0     1.008   53.740277  -62.135815   -0.746016

--------------------------------
INTERNAL COORDINATES (ANGSTROEM)
--------------------------------
 C      0   0   0     0.000000000000     0.00000000     0.00000000
 C      1   0   0     1.397002280701     0.00000000     0.00000000
 C      2   1   0     1.403963840393   119.62817017     0.00000000
 C      3   2   1     1.383211447993   120.27183154   357.84065931
 C      4   3   2     1.388263635488   120.06312112     2.34358326
 C      5   4   3     1.384603305068   119.70712414   359.92175441
 C      5   4   3     1.500644122407   119.32473709   183.72003147
 C      7   5   4     1.541074079288   109.99624905    72.08130285
 C      8   7   5     1.546271742991   110.49084218    65.45465824
 C      9   8   7     1.542434437906   111.12042506   219.42294872
 C     10   9   8     1.504667592726   111.08414583    68.48733246
 C     11  10   9     1.393818500470   119.80128967    73.88660175
 C     12  11  10     1.381677517483   120.91323207   180.74253706
 C     13  12  11     1.406555489755   119.57239833     1.07380665
 C     14  13  12     1.383203177641   119.34674405   358.32724801
 C     11  10   9     1.383632175705   121.14423701   254.49405924
 C      8   7   5     1.540464721112   109.36523037   193.80764799
 C      9   8   7     1.538989034474   115.35604563    92.23386726
 O      3   2   1     1.364884353061   114.37999669   176.38298643
 O      1   2   3     1.367826607031   117.03462905   178.62734643
 O      2   1   3     1.373504424686   124.95193647   184.24252192
 O     14  13  12     1.356336196904   120.68051451   179.02679219
 O     13  12  11     1.374918348313   125.75867402   182.28466385
 C     21   2   1     1.423217846430   120.01014355   305.53371959
 C     24  21   2     1.550440212207   109.98145061   296.23077254
 C     25  24  21     1.517199964071   109.24080814    76.99747589
 C     24  21   2     1.534257150728   103.94088314   176.81871135
 O     27  24  21     1.402047487583   111.18875056   305.33871767
 C     26  25  24     1.390255098576   120.78087734   247.75784135
 C     29  26  25     1.381602909762   120.42652143   174.71223841
 C     30  29  26     1.403590792943   119.80881687     0.90638590
 C     31  30  29     1.383940228554   119.48989801     1.90873421
 C     32  31  30     1.384192217275   120.25472708   357.53716529
 C     20   1   2     1.408393292529   118.54676170   174.60045801
 C     19   3   2     1.407213042447   118.60985074   176.89565931
 C     23  13  12     1.408532102225   118.26196515     3.21657425
 O     25  24  21     1.400762571397   109.97362170   311.39670077
 O     17   8   7     1.401422140456   113.71030052   177.53507997
 O     18   9   8     1.413251475507   115.01800882    79.30076523
 O     30  29  26     1.377099303448   125.60944937   181.16377499
 O     31  30  29     1.360969517525   120.36088966   181.63422260
 C     40  30  29     1.405314422956   117.86050033   358.93598084
 H      4   3   2     1.078060431362   120.75437110   182.35325247
 H      6   5   4     1.078077867099   118.90958765   178.29363996
 H      7   5   4     1.091834018377   109.72382119   312.49172157
 H      7   5   4     1.091133569779   110.46528989   193.45451495
 H      8   7   5     1.093860838792   107.45957511   309.50229998
 H      9   8   7     1.094551696306   106.52288561   335.23543595
 H     10   9   8     1.095242838552   108.84962353   188.28520222
 H     10   9   8     1.091110909102   109.78563789   307.51569605
 H     12  11  10     1.079216547956   118.88896858     1.31748211
 H     15  14  13     1.078934342454   118.46435952   182.11253531
 H     16  11  10     1.080014000541   119.96082106   358.07195814
 H     17   8   7     1.097949136245   110.20624754   302.50896516
 H     17   8   7     1.094681690660   108.17058455    60.11056985
 H     18   9   8     1.092027637720   110.34983061   319.93477975
 H     18   9   8     1.099048683154   108.61458234   201.91054251
 H     22  14  13     0.966533207625   108.04323735   355.56307030
 H     24  21   2     1.094528542440   110.46856153    58.49965572
 H     25  24  21     1.097325716124   108.20711487   195.54223295
 H     27  24  21     1.099299387161   108.50913512    67.28030834
 H     27  24  21     1.091560056855   110.18058969   186.66236253
 H     28  27  24     0.967657719680   106.39327261    46.12372756
 H     29  26  25     1.077654123588   118.58944119   354.66261517
 H     32  31  30     1.078695104800   118.56477674   177.57264459
 H     33  32  31     1.079338082983   119.55921269   180.39957166
 H     34  20   1     1.088845388980   105.43111326   183.97948193
 H     34  20   1     1.093115664037   111.26278305   302.60537563
 H     34  20   1     1.095121991808   111.52050493    65.59504893
 H     35  19   3     1.095662213819   111.48133137    65.48553184
 H     35  19   3     1.088291161360   105.46911125   184.13740578
 H     35  19   3     1.092504556082   111.26174038   302.64896901
 H     36  23  13     1.092789036578   111.30046653   292.73015251
 H     36  23  13     1.094484735452   111.16810651    55.50891099
 H     36  23  13     1.089065306618   105.91072189   174.18389846
 H     37  25  24     0.972935876052   107.82268472    40.35907442
 H     38  17   8     0.971588522859   106.46786433    77.15270098
 H     39  18   9     0.964069713074   108.45065495    65.20539609
 H     41  31  30     0.966872531264   107.54118909   357.97391170
 H     42  40  30     1.094230944744   111.41197223   299.14553771
 H     42  40  30     1.093995053713   110.92255188    61.65643798
 H     42  40  30     1.089136127702   105.72858909   180.37424852

---------------------------
INTERNAL COORDINATES (A.U.)
---------------------------
 C      0   0   0     0.000000000000     0.00000000     0.00000000
 C      1   0   0     2.639951718988     0.00000000     0.00000000
 C      2   1   0     2.653107160272   119.62817017     0.00000000
 C      3   2   1     2.613890822011   120.27183154   357.84065931
 C      4   3   2     2.623438072755   120.06312112     2.34358326
 C      5   4   3     2.616521050701   119.70712414   359.92175441
 C      5   4   3     2.835806415828   119.32473709   183.72003147
 C      7   5   4     2.912207961940   109.99624905    72.08130285
 C      8   7   5     2.922030122874   110.49084218    65.45465824
 C      9   8   7     2.914778667171   111.12042506   219.42294872
 C     10   9   8     2.843409672838   111.08414583    68.48733246
 C     11  10   9     2.633935246281   119.80128967    73.88660175
 C     12  11  10     2.610992113438   120.91323207   180.74253706
 C     13  12  11     2.658004667801   119.57239833     1.07380665
 C     14  13  12     2.613875193311   119.34674405   358.32724801
 C     11  10   9     2.614685882163   121.14423701   254.49405924
 C      8   7   5     2.911056441868   109.36523037   193.80764799
 C      9   8   7     2.908267798264   115.35604563    92.23386726
 O      3   2   1     2.579257631760   114.37999669   176.38298643
 O      1   2   3     2.584817685979   117.03462905   178.62734643
 O      2   1   3     2.595547206386   124.95193647   184.24252192
 O     14  13  12     2.563103957672   120.68051451   179.02679219
 O     13  12  11     2.598219134815   125.75867402   182.28466385
 C     21   2   1     2.689491958662   120.01014355   305.53371959
 C     24  21   2     2.929907388089   109.98145061   296.23077254
 C     25  24  21     2.867092422489   109.24080814    76.99747589
 C     24  21   2     2.899325833886   103.94088314   176.81871135
 O     27  24  21     2.649485778284   111.18875056   305.33871767
 C     26  25  24     2.627201392597   120.78087734   247.75784135
 C     29  26  25     2.610851125279   120.42652143   174.71223841
 C     30  29  26     2.652402202757   119.80881687     0.90638590
 C     31  30  29     2.615268017683   119.48989801     1.90873421
 C     32  31  30     2.615744207355   120.25472708   357.53716529
 C     20   1   2     2.661477611731   118.54676170   174.60045801
 C     19   3   2     2.659247262307   118.60985074   176.89565931
 C     23  13  12     2.661739924042   118.26196515     3.21657425
 O     25  24  21     2.647057638588   109.97362170   311.39670077
 O     17   8   7     2.648304043475   113.71030052   177.53507997
 O     18   9   8     2.670658247069   115.01800882    79.30076523
 O     30  29  26     2.602340542731   125.60944937   181.16377499
 O     31  30  29     2.571859664737   120.36088966   181.63422260
 C     40  30  29     2.655659391436   117.86050033   358.93598084
 H      4   3   2     2.037238971091   120.75437110   182.35325247
 H      6   5   4     2.037271919858   118.90958765   178.29363996
 H      7   5   4     2.063267278431   109.72382119   312.49172157
 H      7   5   4     2.061943622411   110.46528989   193.45451495
 H      8   7   5     2.067097413937   107.45957511   309.50229998
 H      9   8   7     2.068402945437   106.52288561   335.23543595
 H     10   9   8     2.069709015002   108.84962353   188.28520222
 H     10   9   8     2.061900799936   109.78563789   307.51569605
 H     12  11  10     2.039423714832   118.88896858     1.31748211
 H     15  14  13     2.038890423720   118.46435952   182.11253531
 H     16  11  10     2.040930681823   119.96082106   358.07195814
 H     17   8   7     2.074823176478   110.20624754   302.50896516
 H     17   8   7     2.068648599166   108.17058455    60.11056985
 H     18   9   8     2.063633165965   110.34983061   319.93477975
 H     18   9   8     2.076901019007   108.61458234   201.91054251
 H     22  14  13     1.826483061752   108.04323735   355.56307030
 H     24  21   2     2.068359190972   110.46856153    58.49965572
 H     25  24  21     2.073645083183   108.20711487   195.54223295
 H     27  24  21     2.077374780921   108.50913512    67.28030834
 H     27  24  21     2.062749566183   110.18058969   186.66236253
 H     28  27  24     1.828608081570   106.39327261    46.12372756
 H     29  26  25     2.036471160672   118.58944119   354.66261517
 H     32  31  30     2.038438330074   118.56477674   177.57264459
 H     33  32  31     2.039653382750   119.55921269   180.39957166
 H     34  20   1     2.057619587356   105.43111326   183.97948193
 H     34  20   1     2.065689237729   111.26278305   302.60537563
 H     34  20   1     2.069480647751   111.52050493    65.59504893
 H     35  19   3     2.070501519403   111.48133137    65.48553184
 H     35  19   3     2.056572248937   105.46911125   184.13740578
 H     35  19   3     2.064534411056   111.26174038   302.64896901
 H     36  23  13     2.065072001285   111.30046653   292.73015251
 H     36  23  13     2.068276407761   111.16810651    55.50891099
 H     36  23  13     2.058035171462   105.91072189   174.18389846
 H     37  25  24     1.838582351606   107.82268472    40.35907442
 H     38  17   8     1.836036223064   106.46786433    77.15270098
 H     39  18   9     1.821827731718   108.45065495    65.20539609
 H     41  31  30     1.827124290500   107.54118909   357.97391170
 H     42  40  30     2.067796812829   111.41197223   299.14553771
 H     42  40  30     2.067351043383   110.92255188    61.65643798
 H     42  40  30     2.058169003917   105.72858909   180.37424852

---------------------
BASIS SET INFORMATION
---------------------
There are 3 groups of distinct atoms

 Group   1 Type C   : 11s6p2d1f contracted to 5s3p2d1f pattern {62111/411/11/1}
 Group   2 Type O   : 11s6p2d1f contracted to 5s3p2d1f pattern {62111/411/11/1}
 Group   3 Type H   : 5s1p contracted to 3s1p pattern {311/1}

Atom   0C    basis set group =>   1
Atom   1C    basis set group =>   1
Atom   2C    basis set group =>   1
Atom   3C    basis set group =>   1
Atom   4C    basis set group =>   1
Atom   5C    basis set group =>   1
Atom   6C    basis set group =>   1
Atom   7C    basis set group =>   1
Atom   8C    basis set group =>   1
Atom   9C    basis set group =>   1
Atom  10C    basis set group =>   1
Atom  11C    basis set group =>   1
Atom  12C    basis set group =>   1
Atom  13C    basis set group =>   1
Atom  14C    basis set group =>   1
Atom  15C    basis set group =>   1
Atom  16C    basis set group =>   1
Atom  17C    basis set group =>   1
Atom  18O    basis set group =>   2
Atom  19O    basis set group =>   2
Atom  20O    basis set group =>   2
Atom  21O    basis set group =>   2
Atom  22O    basis set group =>   2
Atom  23C    basis set group =>   1
Atom  24C    basis set group =>   1
Atom  25C    basis set group =>   1
Atom  26C    basis set group =>   1
Atom  27O    basis set group =>   2
Atom  28C    basis set group =>   1
Atom  29C    basis set group =>   1
Atom  30C    basis set group =>   1
Atom  31C    basis set group =>   1
Atom  32C    basis set group =>   1
Atom  33C    basis set group =>   1
Atom  34C    basis set group =>   1
Atom  35C    basis set group =>   1
Atom  36O    basis set group =>   2
Atom  37O    basis set group =>   2
Atom  38O    basis set group =>   2
Atom  39O    basis set group =>   2
Atom  40O    basis set group =>   2
Atom  41C    basis set group =>   1
Atom  42H    basis set group =>   3
Atom  43H    basis set group =>   3
Atom  44H    basis set group =>   3
Atom  45H    basis set group =>   3
Atom  46H    basis set group =>   3
Atom  47H    basis set group =>   3
Atom  48H    basis set group =>   3
Atom  49H    basis set group =>   3
Atom  50H    basis set group =>   3
Atom  51H    basis set group =>   3
Atom  52H    basis set group =>   3
Atom  53H    basis set group =>   3
Atom  54H    basis set group =>   3
Atom  55H    basis set group =>   3
Atom  56H    basis set group =>   3
Atom  57H    basis set group =>   3
Atom  58H    basis set group =>   3
Atom  59H    basis set group =>   3
Atom  60H    basis set group =>   3
Atom  61H    basis set group =>   3
Atom  62H    basis set group =>   3
Atom  63H    basis set group =>   3
Atom  64H    basis set group =>   3
Atom  65H    basis set group =>   3
Atom  66H    basis set group =>   3
Atom  67H    basis set group =>   3
Atom  68H    basis set group =>   3
Atom  69H    basis set group =>   3
Atom  70H    basis set group =>   3
Atom  71H    basis set group =>   3
Atom  72H    basis set group =>   3
Atom  73H    basis set group =>   3
Atom  74H    basis set group =>   3
Atom  75H    basis set group =>   3
Atom  76H    basis set group =>   3
Atom  77H    basis set group =>   3
Atom  78H    basis set group =>   3
Atom  79H    basis set group =>   3
Atom  80H    basis set group =>   3
Atom  81H    basis set group =>   3
---------------------------------
AUXILIARY/J BASIS SET INFORMATION
---------------------------------
There are 3 groups of distinct atoms

 Group   1 Type C   : 12s5p4d2f1g contracted to 6s4p3d1f1g pattern {711111/2111/211/2/1}
 Group   2 Type O   : 12s5p4d2f1g contracted to 6s4p3d1f1g pattern {711111/2111/211/2/1}
 Group   3 Type H   : 5s2p1d contracted to 3s1p1d pattern {311/2/1}

Atom   0C    basis set group =>   1
Atom   1C    basis set group =>   1
Atom   2C    basis set group =>   1
Atom   3C    basis set group =>   1
Atom   4C    basis set group =>   1
Atom   5C    basis set group =>   1
Atom   6C    basis set group =>   1
Atom   7C    basis set group =>   1
Atom   8C    basis set group =>   1
Atom   9C    basis set group =>   1
Atom  10C    basis set group =>   1
Atom  11C    basis set group =>   1
Atom  12C    basis set group =>   1
Atom  13C    basis set group =>   1
Atom  14C    basis set group =>   1
Atom  15C    basis set group =>   1
Atom  16C    basis set group =>   1
Atom  17C    basis set group =>   1
Atom  18O    basis set group =>   2
Atom  19O    basis set group =>   2
Atom  20O    basis set group =>   2
Atom  21O    basis set group =>   2
Atom  22O    basis set group =>   2
Atom  23C    basis set group =>   1
Atom  24C    basis set group =>   1
Atom  25C    basis set group =>   1
Atom  26C    basis set group =>   1
Atom  27O    basis set group =>   2
Atom  28C    basis set group =>   1
Atom  29C    basis set group =>   1
Atom  30C    basis set group =>   1
Atom  31C    basis set group =>   1
Atom  32C    basis set group =>   1
Atom  33C    basis set group =>   1
Atom  34C    basis set group =>   1
Atom  35C    basis set group =>   1
Atom  36O    basis set group =>   2
Atom  37O    basis set group =>   2
Atom  38O    basis set group =>   2
Atom  39O    basis set group =>   2
Atom  40O    basis set group =>   2
Atom  41C    basis set group =>   1
Atom  42H    basis set group =>   3
Atom  43H    basis set group =>   3
Atom  44H    basis set group =>   3
Atom  45H    basis set group =>   3
Atom  46H    basis set group =>   3
Atom  47H    basis set group =>   3
Atom  48H    basis set group =>   3
Atom  49H    basis set group =>   3
Atom  50H    basis set group =>   3
Atom  51H    basis set group =>   3
Atom  52H    basis set group =>   3
Atom  53H    basis set group =>   3
Atom  54H    basis set group =>   3
Atom  55H    basis set group =>   3
Atom  56H    basis set group =>   3
Atom  57H    basis set group =>   3
Atom  58H    basis set group =>   3
Atom  59H    basis set group =>   3
Atom  60H    basis set group =>   3
Atom  61H    basis set group =>   3
Atom  62H    basis set group =>   3
Atom  63H    basis set group =>   3
Atom  64H    basis set group =>   3
Atom  65H    basis set group =>   3
Atom  66H    basis set group =>   3
Atom  67H    basis set group =>   3
Atom  68H    basis set group =>   3
Atom  69H    basis set group =>   3
Atom  70H    basis set group =>   3
Atom  71H    basis set group =>   3
Atom  72H    basis set group =>   3
Atom  73H    basis set group =>   3
Atom  74H    basis set group =>   3
Atom  75H    basis set group =>   3
Atom  76H    basis set group =>   3
Atom  77H    basis set group =>   3
Atom  78H    basis set group =>   3
Atom  79H    basis set group =>   3
Atom  80H    basis set group =>   3
Atom  81H    basis set group =>   3
--------------------------------------------------------------------------
WARNING: There was an error initializing an OpenFabrics device.

  Local host:   c09b01n05
  Local device: mlx5_0
--------------------------------------------------------------------------
--------------------------------------------------------------------------
WARNING: There is at least one non-excluded one OpenFabrics device found,
but there are no active ports detected (or Open MPI was unable to use
them).  This is most certainly not what you wanted.  Check your
cables, subnet manager configuration, etc.  The openib BTL will be
ignored for this job.

  Local host: c09b01n05
--------------------------------------------------------------------------
[c09b01n05:2897611] 62 more processes have sent help message help-mpi-btl-openib.txt / error in device init
[c09b01n05:2897611] Set MCA parameter "orte_base_help_aggregate" to 0 to see all help / error messages


           ************************************************************
           *        Program running with 64 parallel MPI-processes    *
           *              working on a common directory               *
           ************************************************************
------------------------------------------------------------------------------
                             ORCA STARTUP CALCULATIONS
                           -- RI-GTO INTEGRALS CHOSEN --
------------------------------------------------------------------------------
------------------------------------------------------------------------------
                   ___                                                        
                  /   \      - P O W E R E D   B Y -                         
                 /     \                                                     
                 |  |  |   _    _      __       _____    __    __             
                 |  |  |  | |  | |    /  \     |  _  \  |  |  /  |          
                  \  \/   | |  | |   /    \    | | | |  |  | /  /          
                 / \  \   | |__| |  /  /\  \   | |_| |  |  |/  /          
                |  |  |   |  __  | /  /__\  \  |    /   |      \           
                |  |  |   | |  | | |   __   |  |    \   |  |\   \          
                \     /   | |  | | |  |  |  |  | |\  \  |  | \   \       
                 \___/    |_|  |_| |__|  |__|  |_| \__\ |__|  \__/        
                                                                              
                      - O R C A' S   B I G   F R I E N D -                    
                                      &                                       
                       - I N T E G R A L  F E E D E R -                       
                                                                              
 v1 FN, 2020, v2 2021, v3 2022-2024                                           
------------------------------------------------------------------------------


----------------------
SHARK INTEGRAL PACKAGE
----------------------

Number of atoms                             ...     82
Number of basis functions                   ...   1542
Number of shells                            ...    622
Maximum angular momentum                    ...      3
Integral batch strategy                     ... SHARK/LIBINT Hybrid
RI-J (if used) integral strategy            ... SPLIT-RIJ (Revised 2003 algorithm where possible)
Printlevel                                  ...      1
Contraction scheme used                     ... SEGMENTED contraction
Prescreening option                         ... SCHWARTZ
   Thresh                                   ... 2.500e-11
   Tcut                                     ... 2.500e-12
   Tpresel                                  ... 2.500e-12 
Coulomb Range Separation                    ... NOT USED
Exchange Range Separation                   ... NOT USED
Multipole approximations                    ... NOT USED
Finite Nucleus Model                        ... NOT USED
CABS basis                                  ... NOT available
Auxiliary Coulomb fitting basis             ... AVAILABLE
   # of basis functions in Aux-J            ...   2498
   # of shells in Aux-J                     ...    830
   Maximum angular momentum in Aux-J        ...      4
Auxiliary J/K fitting basis                 ... NOT available
Auxiliary Correlation fitting basis         ... NOT available
Auxiliary 'external' fitting basis          ... NOT available

Checking pre-screening integrals            ... done (  0.5 sec) Dimension = 622
   => SHARK Basis and OBASIS are compatible. Storing Pre-screening
Shell pair information
Shell pair cut-off parameter TPreSel        ...   2.5e-12
Total number of shell pairs                 ...    193753
Shell pairs after pre-screening             ...    120804
Total number of primitive shell pairs       ...    584784
Primitive shell pairs kept                  ...    228538
          la=0 lb=0:  33694 shell pairs
          la=1 lb=0:  35946 shell pairs
          la=1 lb=1:   9708 shell pairs
          la=2 lb=0:  16401 shell pairs
          la=2 lb=1:   8943 shell pairs
          la=2 lb=2:   2057 shell pairs
          la=3 lb=0:   7519 shell pairs
          la=3 lb=1:   4213 shell pairs
          la=3 lb=2:   1868 shell pairs
          la=3 lb=3:    455 shell pairs

Checking whether 4 symmetric matrices of dimension 1542 fit in memory
:Max Core in MB      =   6000.00
 MB in use           =    144.71
 MB left             =   5855.29
 MB needed           =     36.31
 Data fit in memory  = YES
Calculating RI/J V-Matrix + Cholesky decomp.... done (  5.4 sec)
Calculating Nuclear repulsion               ... done (  0.1 sec) ENN=   5904.417197536745 Eh

Diagonalization of the overlap matrix:
Smallest eigenvalue                        ... 2.210e-06
Time for diagonalization                   ...   34.607 sec
Threshold for overlap eigenvalues          ... 1.000e-07
Number of eigenvalues below threshold      ... 0
Time for construction of square roots      ...    1.996 sec
Total time needed                          ...   36.944 sec

-------------------
DFT GRID GENERATION
-------------------

General Integration Accuracy     IntAcc      ... 4.388
Radial Grid Type                 RadialGrid  ... OptM3 with GC (2021)
Angular Grid (max. ang.)         AngularGrid ... 4 (Lebedev-302)
Angular grid pruning method      GridPruning ... 4 (adaptive)
Weight generation scheme         WeightScheme... mBecke (2022)
Basis function cutoff            BFCut       ... 1.0000e-11
Integration weight cutoff        WCut        ... 1.0000e-14
Partially contracted basis set               ... off
Rotationally invariant grid construction     ... off
Angular grids for H and He will be reduced by one unit

Total number of grid points                  ...   373084
Total number of batches                      ...     5876
Average number of points per batch           ...       63
Average number of grid points per atom       ...     4550

--------------------
COSX GRID GENERATION
--------------------

GRIDX 1
-------
General Integration Accuracy     IntAcc      ... 3.816
Radial Grid Type                 RadialGrid  ... OptM3 with GC (2021)
Angular Grid (max. ang.)         AngularGrid ... 1 (Lebedev-50)
Angular grid pruning method      GridPruning ... 4 (adaptive)
Weight generation scheme         WeightScheme... mBecke (2022)
Basis function cutoff            BFCut       ... 1.0000e-11
Integration weight cutoff        WCut        ... 1.0000e-14
Partially contracted basis set               ... on
Rotationally invariant grid construction     ... off
Angular grids for H and He will be reduced by one unit

Total number of grid points                  ...    47242
Total number of batches                      ...      412
Average number of points per batch           ...      114
Average number of grid points per atom       ...      576
UseSFitting                                  ... on

GRIDX 2
-------
General Integration Accuracy     IntAcc      ... 4.020
Radial Grid Type                 RadialGrid  ... OptM3 with GC (2021)
Angular Grid (max. ang.)         AngularGrid ... 2 (Lebedev-110)
Angular grid pruning method      GridPruning ... 4 (adaptive)
Weight generation scheme         WeightScheme... mBecke (2022)
Basis function cutoff            BFCut       ... 1.0000e-11
Integration weight cutoff        WCut        ... 1.0000e-14
Partially contracted basis set               ... on
[...]
freq.     643.58  E(vib)   ...       0.09 
freq.     656.51  E(vib)   ...       0.08 
freq.     675.54  E(vib)   ...       0.08 
freq.     693.44  E(vib)   ...       0.07 
freq.     728.88  E(vib)   ...       0.06 
freq.     740.57  E(vib)   ...       0.06 
freq.     743.04  E(vib)   ...       0.06 
freq.     745.10  E(vib)   ...       0.06 
freq.     752.02  E(vib)   ...       0.06 
freq.     765.99  E(vib)   ...       0.06 
freq.     778.76  E(vib)   ...       0.05 
freq.     799.05  E(vib)   ...       0.05 
freq.     812.84  E(vib)   ...       0.05 
freq.     818.24  E(vib)   ...       0.05 
freq.     833.71  E(vib)   ...       0.04 
freq.     835.46  E(vib)   ...       0.04 
freq.     850.30  E(vib)   ...       0.04 
freq.     852.64  E(vib)   ...       0.04 
freq.     874.97  E(vib)   ...       0.04 
freq.     889.51  E(vib)   ...       0.04 
freq.     890.91  E(vib)   ...       0.04 
freq.     905.80  E(vib)   ...       0.03 
freq.     910.35  E(vib)   ...       0.03 
freq.     913.32  E(vib)   ...       0.03 
freq.     930.06  E(vib)   ...       0.03 
freq.     934.84  E(vib)   ...       0.03 
freq.     949.13  E(vib)   ...       0.03 
freq.     949.53  E(vib)   ...       0.03 
freq.     954.21  E(vib)   ...       0.03 
freq.     970.74  E(vib)   ...       0.03 
freq.     972.10  E(vib)   ...       0.03 
freq.     997.92  E(vib)   ...       0.02 
freq.    1013.57  E(vib)   ...       0.02 
freq.    1029.56  E(vib)   ...       0.02 
freq.    1041.44  E(vib)   ...       0.02 
freq.    1046.79  E(vib)   ...       0.02 
freq.    1048.72  E(vib)   ...       0.02 
freq.    1049.01  E(vib)   ...       0.02 
freq.    1059.56  E(vib)   ...       0.02 
freq.    1064.31  E(vib)   ...       0.02 
freq.    1069.05  E(vib)   ...       0.02 
freq.    1095.25  E(vib)   ...       0.02 
freq.    1106.59  E(vib)   ...       0.02 
freq.    1113.10  E(vib)   ...       0.01 
freq.    1121.34  E(vib)   ...       0.01 
freq.    1140.00  E(vib)   ...       0.01 
freq.    1146.51  E(vib)   ...       0.01 
freq.    1147.61  E(vib)   ...       0.01 
freq.    1166.12  E(vib)   ...       0.01 
freq.    1169.69  E(vib)   ...       0.01 
freq.    1169.92  E(vib)   ...       0.01 
freq.    1171.21  E(vib)   ...       0.01 
freq.    1174.78  E(vib)   ...       0.01 
freq.    1176.09  E(vib)   ...       0.01 
freq.    1181.44  E(vib)   ...       0.01 
freq.    1184.78  E(vib)   ...       0.01 
freq.    1194.54  E(vib)   ...       0.01 
freq.    1201.95  E(vib)   ...       0.01 
freq.    1208.80  E(vib)   ...       0.01 
freq.    1211.69  E(vib)   ...       0.01 
freq.    1214.10  E(vib)   ...       0.01 
freq.    1219.47  E(vib)   ...       0.01 
freq.    1221.52  E(vib)   ...       0.01 
freq.    1229.25  E(vib)   ...       0.01 
freq.    1239.23  E(vib)   ...       0.01 
freq.    1244.70  E(vib)   ...       0.01 
freq.    1246.23  E(vib)   ...       0.01 
freq.    1249.51  E(vib)   ...       0.01 
freq.    1251.60  E(vib)   ...       0.01 
freq.    1275.76  E(vib)   ...       0.01 
freq.    1276.96  E(vib)   ...       0.01 
freq.    1287.59  E(vib)   ...       0.01 
freq.    1288.84  E(vib)   ...       0.01 
freq.    1295.11  E(vib)   ...       0.01 
freq.    1295.42  E(vib)   ...       0.01 
freq.    1301.07  E(vib)   ...       0.01 
freq.    1315.55  E(vib)   ...       0.01 
freq.    1327.38  E(vib)   ...       0.01 
freq.    1344.87  E(vib)   ...       0.01 
freq.    1348.49  E(vib)   ...       0.01 
freq.    1350.21  E(vib)   ...       0.01 
freq.    1359.65  E(vib)   ...       0.01 
freq.    1364.93  E(vib)   ...       0.01 
freq.    1369.24  E(vib)   ...       0.01 
freq.    1372.72  E(vib)   ...       0.01 
freq.    1381.48  E(vib)   ...       0.01 
freq.    1382.90  E(vib)   ...       0.01 
freq.    1395.82  E(vib)   ...       0.00 
freq.    1398.52  E(vib)   ...       0.00 
freq.    1403.59  E(vib)   ...       0.00 
freq.    1405.90  E(vib)   ...       0.00 
freq.    1418.82  E(vib)   ...       0.00 
freq.    1427.18  E(vib)   ...       0.00 
freq.    1429.93  E(vib)   ...       0.00 
freq.    1449.86  E(vib)   ...       0.00 
freq.    1455.16  E(vib)   ...       0.00 
freq.    1459.39  E(vib)   ...       0.00 
freq.    1462.16  E(vib)   ...       0.00 
freq.    1477.80  E(vib)   ...       0.00 
freq.    1478.51  E(vib)   ...       0.00 
freq.    1480.45  E(vib)   ...       0.00 
freq.    1480.86  E(vib)   ...       0.00 
freq.    1481.34  E(vib)   ...       0.00 
freq.    1482.93  E(vib)   ...       0.00 
freq.    1483.88  E(vib)   ...       0.00 
freq.    1484.38  E(vib)   ...       0.00 
freq.    1485.40  E(vib)   ...       0.00 
freq.    1490.12  E(vib)   ...       0.00 
freq.    1490.86  E(vib)   ...       0.00 
freq.    1492.17  E(vib)   ...       0.00 
freq.    1492.86  E(vib)   ...       0.00 
freq.    1492.97  E(vib)   ...       0.00 
freq.    1494.45  E(vib)   ...       0.00 
freq.    1495.51  E(vib)   ...       0.00 
freq.    1506.08  E(vib)   ...       0.00 
freq.    1540.93  E(vib)   ...       0.00 
freq.    1542.30  E(vib)   ...       0.00 
freq.    1542.81  E(vib)   ...       0.00 
freq.    1634.30  E(vib)   ...       0.00 
freq.    1641.64  E(vib)   ...       0.00 
freq.    1643.59  E(vib)   ...       0.00 
freq.    1644.01  E(vib)   ...       0.00 
freq.    1648.63  E(vib)   ...       0.00 
freq.    1650.73  E(vib)   ...       0.00 
freq.    2989.75  E(vib)   ...       0.00 
freq.    3010.73  E(vib)   ...       0.00 
freq.    3019.26  E(vib)   ...       0.00 
freq.    3019.65  E(vib)   ...       0.00 
freq.    3020.54  E(vib)   ...       0.00 
freq.    3026.57  E(vib)   ...       0.00 
freq.    3028.79  E(vib)   ...       0.00 
freq.    3030.10  E(vib)   ...       0.00 
freq.    3031.90  E(vib)   ...       0.00 
freq.    3033.42  E(vib)   ...       0.00 
freq.    3038.27  E(vib)   ...       0.00 
freq.    3042.02  E(vib)   ...       0.00 
freq.    3057.53  E(vib)   ...       0.00 
freq.    3065.91  E(vib)   ...       0.00 
freq.    3079.95  E(vib)   ...       0.00 
freq.    3081.86  E(vib)   ...       0.00 
freq.    3085.69  E(vib)   ...       0.00 
freq.    3088.45  E(vib)   ...       0.00 
freq.    3094.04  E(vib)   ...       0.00 
freq.    3100.53  E(vib)   ...       0.00 
freq.    3100.93  E(vib)   ...       0.00 
freq.    3103.86  E(vib)   ...       0.00 
freq.    3137.52  E(vib)   ...       0.00 
freq.    3141.33  E(vib)   ...       0.00 
freq.    3142.39  E(vib)   ...       0.00 
freq.    3142.40  E(vib)   ...       0.00 
freq.    3169.71  E(vib)   ...       0.00 
freq.    3170.28  E(vib)   ...       0.00 
freq.    3186.12  E(vib)   ...       0.00 
freq.    3186.99  E(vib)   ...       0.00 
freq.    3197.82  E(vib)   ...       0.00 
freq.    3209.57  E(vib)   ...       0.00 
freq.    3210.88  E(vib)   ...       0.00 
freq.    3226.73  E(vib)   ...       0.00 
freq.    3576.44  E(vib)   ...       0.00 
freq.    3606.44  E(vib)   ...       0.00 
freq.    3722.16  E(vib)   ...       0.00 
freq.    3722.27  E(vib)   ...       0.00 
freq.    3740.93  E(vib)   ...       0.00 
freq.    3785.36  E(vib)   ...       0.00 

------------
INNER ENERGY
------------

The inner energy is: U= E(el) + E(ZPE) + E(vib) + E(rot) + E(trans)
    E(el)   - is the total energy from the electronic structure calculation
              = E(kin-el) + E(nuc-el) + E(el-el) + E(nuc-nuc)
    E(ZPE)  - the the zero temperature vibrational energy from the frequency calculation
    E(vib)  - the the finite temperature correction to E(ZPE) due to population
              of excited vibrational states
    E(rot)  - is the rotational thermal energy
    E(trans)- is the translational thermal energy

Summary of contributions to the inner energy U:
Electronic energy                ...  -2032.64002464 Eh
Zero point energy                ...      0.67985368 Eh     426.61 kcal/mol
Thermal vibrational correction   ...      0.03980495 Eh      24.98 kcal/mol
Thermal rotational correction    ...      0.00141627 Eh       0.89 kcal/mol
Thermal translational correction ...      0.00141627 Eh       0.89 kcal/mol
-----------------------------------------------------------------------
Total thermal energy                  -2031.91753347 Eh


Summary of corrections to the electronic energy:
(perhaps to be used in another calculation)
Total thermal correction                  0.04263749 Eh      26.76 kcal/mol
Non-thermal (ZPE) correction              0.67985368 Eh     426.61 kcal/mol
-----------------------------------------------------------------------
Total correction                          0.72249117 Eh     453.37 kcal/mol


--------
ENTHALPY
--------

The enthalpy is H = U + kB*T
                kB is Boltzmann's constant
Total thermal energy              ...  -2031.91753347 Eh 
Thermal Enthalpy correction       ...      0.00094421 Eh       0.59 kcal/mol
-----------------------------------------------------------------------
Total Enthalpy                    ...  -2031.91658927 Eh


Note: Only C1 symmetry has been detected, increase convergence thresholds 
      if your molecule has a higher symmetry. Symmetry factor of 1.0 is   
      used for the rotational entropy correction. 
 

Note: Rotational entropy computed according to Herzberg 
Infrared and Raman Spectra, Chapter V,1, Van Nostrand Reinhold, 1945 
Point Group:  C1, Symmetry Number:   1  
Rotational constants in cm-1:     0.003605     0.002600     0.002017 

Vibrational entropy computed according to the QRRHO of S. Grimme
Chem.Eur.J. 2012 18 9955 using a reference frequency of 100.0 cm-1


-------
ENTROPY
-------

The entropy contributions are T*S = T*(S(el)+S(vib)+S(rot)+S(trans))
     S(el)   - electronic entropy
     S(vib)  - vibrational entropy
     S(rot)  - rotational entropy
     S(trans)- translational entropy
The entropies will be listed as multiplied by the temperature to get
units of energy

Electronic entropy                ...      0.00000000 Eh      0.00 kcal/mol
Vibrational entropy               ...      0.07090381 Eh     44.49 kcal/mol
Rotational entropy                ...      0.01790633 Eh     11.24 kcal/mol
Translational entropy             ...      0.02138181 Eh     13.42 kcal/mol
-----------------------------------------------------------------------
Final entropy term                ...      0.11019195 Eh     69.15 kcal/mol

In case the symmetry of your molecule has not been determined correctly
or in case you have a reason to use a different symmetry number we print 
out the resulting rotational entropy values for sn=1,12:

 non-linear molecules -----------------------------------
|  sn= 1 | S(rot)=       0.01790633 Eh     11.24 kcal/mol|
|  sn= 2 | S(rot)=       0.01725187 Eh     10.83 kcal/mol|
|  sn= 3 | S(rot)=       0.01686904 Eh     10.59 kcal/mol|
|  sn= 4 | S(rot)=       0.01659742 Eh     10.42 kcal/mol|
|  sn= 5 | S(rot)=       0.01638673 Eh     10.28 kcal/mol|
|  sn= 6 | S(rot)=       0.01621458 Eh     10.17 kcal/mol|
|  sn= 7 | S(rot)=       0.01606904 Eh     10.08 kcal/mol|
|  sn= 8 | S(rot)=       0.01594296 Eh     10.00 kcal/mol|
|  sn= 9 | S(rot)=       0.01583175 Eh      9.93 kcal/mol|
|  sn=10 | S(rot)=       0.01573227 Eh      9.87 kcal/mol|
|  sn=11 | S(rot)=       0.01564228 Eh      9.82 kcal/mol|
|  sn=12 | S(rot)=       0.01556013 Eh      9.76 kcal/mol|
 linear molecules ---------------------------------------
|  Dinfh | S(rot)=       0.01118551 Eh      7.02 kcal/mol|
|  Cinfv | S(rot)=       0.01183997 Eh      7.43 kcal/mol|
 --------------------------------------------------------


-------------------
GIBBS FREE ENERGY
-------------------

The Gibbs free energy is G = H - T*S

Total enthalpy                    ...  -2031.91658927 Eh 
Total entropy correction          ...     -0.11019195 Eh    -69.15 kcal/mol
-----------------------------------------------------------------------
Final Gibbs free energy         ...  -2032.02678122 Eh

For completeness - the Gibbs free energy minus the electronic energy
G-E(el)                           ...      0.61324343 Eh    384.82 kcal/mol


Maximum memory used throughout the entire PROP-calculation: 1829.5 MB
--------------------------------------------------------------------------
WARNING: There was an error initializing an OpenFabrics device.

  Local host:   c09b01n05
  Local device: mlx5_0
--------------------------------------------------------------------------
--------------------------------------------------------------------------
WARNING: There is at least one non-excluded one OpenFabrics device found,
but there are no active ports detected (or Open MPI was unable to use
them).  This is most certainly not what you wanted.  Check your
cables, subnet manager configuration, etc.  The openib BTL will be
ignored for this job.

  Local host: c09b01n05
--------------------------------------------------------------------------
[c09b01n05:3000202] 57 more processes have sent help message help-mpi-btl-openib.txt / error in device init
[c09b01n05:3000202] Set MCA parameter "orte_base_help_aggregate" to 0 to see all help / error messages
[c09b01n05:3000202] 5 more processes have sent help message help-mpi-btl-openib.txt / no active ports found

--------------------------------
SUGGESTED CITATIONS FOR THIS RUN
--------------------------------

Below you find a list of papers that are relevant to this ORCA run
We neither can nor want to force you to cite these papers, but we appreciate if you do
You receive ORCA, which is the product of decades of hard work by many enthusiastic individuals, for free
The only thing we kindly ask in return is that you cite our papers,
We deeply appreciate it, if you show your appreciation for ORCA by not just citing the generic ORCA reference.

Please note that relegating all ORCA citations to the supporting information does *not* help us.
SI sections are not indexed - citations you put there will not count into any citation statistics
But we need these citations in order to attract the funding resources that allow us to do what we are doing

Therefore, if you are a happy ORCA user, please consider citing a few of the papers listed below in the main body of your paper

In addition to the list printed below, the program has created the file opt-conf-2.bibtex that contains the list in bibtex format
You can import this file easily into all common literature databanks and citation aid programs


List of essential papers. We consider these as the minimum necessary citations

  1. Neese, F.
     Software update: the ORCA program system, version 6.0
     WIRES Comput. Molec. Sci. 2025 15(1), e70019
     doi.org/10.1002/wcms.7019

List of papers to cite with high priority. The work reported in these papers was absolutely
necessary for this run to complete.
Our perspective: the developers of density functionals and basis sets usually get cited in chemistry papers
Good! But without the algorithms to do something with them, the functionals or basis sets would not do anything.
Hence, in our opinion, the algorithm design and method developments papers are equally worthy of getting cited

  1. Neese, F.
     An improvement of the resolution of the identity approximation for the formation of the Coulomb matrix
     J. Comp. Chem. 2003 24(14), 1740-1747
     doi.org/10.1002/jcc.10318
  2. Neese, F.; Wennmohs, F.; Hansen, A.; Becker, U.
     Efficient, approximate and parallel Hartree-Fock and hybrid DFT calculations. A 'chain-of-spheres' algorithm for the Hartree-Fock exchange
     Chem. Phys. 2009 356(1-3), 98-109
     doi.org/10.1016/j.chemphys.2008.10.036
  3. Bykov, D.; Petrenko, T.; Izsak, R.; Kossmann, S.; Becker, U.; Valeev, E.; Neese, F.
     Efficient implementation of the analytic second derivatives of Hartree-Fock and hybrid DFT energies: a detailed analysis of different approximations
     Molec. Phys. 2015 113 , 1961-1977
     doi.org/10.1080/00268976.2015.1025114
  4. Caldeweyher, E.; Bannwarth, C.; Grimme, S.
     Extension of the D3 dispersion coefficient model
     J. Chem. Phys. 2017 147 , 034112
     doi.org/10.1063/1.4993215
  5. Caldeweyher, E.; Ehlert, S.; Hansen, A.; Neugebauer, H.; Spicher, S.; Bannwarth, C.; Grimme, S.
     A generally applicable atomic-charge dependent London dispersion correction
     J. Chem. Phys. 2019 150 , 154122
     doi.org/10.1063/1.5090222
  6. Garcia-Rates, M.; Neese, F.
     Efficient implementation of the analytical second derivatives of hartree-fock and hybrid DFT energies within the framework of the conductor-like polarizable continuum model
     J. Comput. Chem. 2019 40 , 1816-1828
     doi.org/10.1002/jcc.25833
  7. Caldeweyher, E.; Mewes, J.; Ehlert, S.; Grimme, S.
     Extension and evaluation of the D4 London-dispersion model for periodic systems
     Phys. Chem. Chem. Phys. 2020 22(16), 8499-8512
     doi.org/10.1039/D0CP00502A
  8. Garcia-Rates, M.; Neese, F.
     Effect of the Solute Cavity on the Solvation Energy and its Derivatives within the Framework of the Gaussian Charge Scheme
     J. Comput. Chem. 2020 41 , 922-939
     doi.org/10.1002/jcc.26139
  9. Helmich-Paris, B.; de Souza, B.; Neese, F.; Izsák, R.
     An improved chain of spheres for exchange algorithm
     J. Chem. Phys. 2021 155(10), 104109
     doi.org/10.1063/5.0058766
 10. Neese, F.
     The SHARK Integral Generation and Digestion System
     J. Comp. Chem. 2022 44(3), 381
     doi.org/10.1002/jcc.26942
 11. Wittmann, L.; Gordiy, I.; Friede, M.; Helmich-Paris, B.; Grimme, S.; Hansen, A.; Bursch, M.
     Extension of the D3 and D4 London Dispersion Corrections to the full Actinides Series
     Phys. Chem. Chem. Phys. 2024 26(32), 21379-21394
     doi.org/10.1039/D4CP01514B

List of suggested additional citations. These are papers that are important in the 'surrounding' of 
of this run, or papers that preceded the highly important papers. If you like your results we are grateful for a citation.

  1. Izsak, R.; Neese, F.
     An overlap fitted chain of spheres exchange method
     J. Chem. Phys. 2011 135 , 144105
     doi.org/10.1063/1.3646921
  2. Izsak, R.; Hansen, A.; Neese, F.
     The resolution of identity and chain of spheres approximations for the LPNO-CCSD singles Fock term
     Molec. Phys. 2012 110 , 2413-2417
     doi.org/10.1080/00268976.2012.687466
  3. Neese, F.
     The ORCA program system
     WIRES Comput. Molec. Sci. 2012 2(1), 73-78
     doi.org/10.1002/wcms.81
  4. Izsak, R.; Neese, F.; Klopper, W.
     Robust fitting techniques in the chain of spheres approximation to the Fock exchange: The role of the complementary space
     J. Chem. Phys. 2013 139 , 
     doi.org/10.1063/1.4819264
  5. Neese, F.
     Software update: the ORCA program system, version 4.0
     WIRES Comput. Molec. Sci. 2018 8(1), 1-6
     doi.org/10.1002/wcms.1327
  6. Neese, F.; Wennmohs, F.; Becker, U.; Riplinger, C.
     The ORCA quantum chemistry program package
     J. Chem. Phys. 2020 152(22), 224108
     doi.org/10.1063/5.0004608
  7. Neese, F.
     Software update: The ORCA program system—Version 5.0
     WIRES Comput. Molec. Sci. 2022 12(1), e1606
     doi.org/10.1002/wcms.1606

List of optional additional citations

  1. Neese, F.
     Approximate second-order SCF convergence for spin unrestricted wavefunctions
     Chem. Phys. Lett. 2000 325(1-3), 93-98
     doi.org/10.1016/s0009-2614(00)00662-x

Timings for individual modules:

Sum of individual times          ...    23689.758 sec (= 394.829 min)
Startup calculation              ...     2365.211 sec (=  39.420 min)  10.0 %
SCF iterations                   ...    13695.370 sec (= 228.256 min)  57.8 %
Property integrals               ...     1806.436 sec (=  30.107 min)   7.6 %
SCF Response                     ...     3499.141 sec (=  58.319 min)  14.8 %
Property calculations            ...      784.163 sec (=  13.069 min)   3.3 %
SCF Gradient evaluation          ...     1522.009 sec (=  25.367 min)   6.4 %
Geometry relaxation              ...       17.428 sec (=   0.290 min)   0.1 %
                             ****ORCA TERMINATED NORMALLY****
TOTAL RUN TIME: 0 days 6 hours 43 minutes 23 seconds 304 msec
