
                                 *****************
                                 * O   R   C   A *
                                 *****************

                                            #,                                       
                                            ###                                      
                                            ####                                     
                                            #####                                    
                                            ######                                   
                                           ########,                                 
                                     ,,################,,,,,                         
                               ,,#################################,,                 
                          ,,##########################################,,             
                       ,#########################################, ''#####,          
                    ,#############################################,,   '####,        
                  ,##################################################,,,,####,       
                ,###########''''           ''''###############################       
              ,#####''   ,,,,##########,,,,          '''####'''          '####       
            ,##' ,,,,###########################,,,                        '##       
           ' ,,###''''                  '''############,,,                           
         ,,##''                                '''############,,,,        ,,,,,,###''
      ,#''                                            '''#######################'''  
     '                                                          ''''####''''         
             ,#######,   #######,   ,#######,      ##                                
            ,#'     '#,  ##    ##  ,#'     '#,    #''#        ,####,    ,#,          
            ##       ##  ##   ,#'  ##            #'  '#       #'       ,# #          
            ##       ##  #######   ##           ,######,      #####,      #          
            '#,     ,#'  ##    ##  '#,     ,#' ,#      #,     #,   #      #          
             '#######'   ##     ##  '#######'  #'      '#     '####' #    #          



                #########################################################
                #                        -***-                          #
                #          Department of theory and spectroscopy        #
                #                                                       #
                #                      Frank Neese                      #
                #                                                       #
                #     Directorship, Architecture, Infrastructure        #
                #                    SHARK, DRIVERS                     #
                #        Core code/Algorithms in most modules           #
                #                                                       #
                #        Max Planck Institute fuer Kohlenforschung      #
                #                Kaiser Wilhelm Platz 1                 #
                #                 D-45470 Muelheim/Ruhr                 #
                #                      Germany                          #
                #                                                       #
                #                  All rights reserved                  #
                #                        -***-                          #
                #########################################################


                         Program Version 6.1.0-f.0  -   RELEASE   -


 With contributions from (in alphabetic order):
[Max-Planck-Institut fuer Kohlenforschung]                               
  Daniel Aravena         : Magnetic Suceptibility                        
  Michael Atanasov       : Ab Initio Ligand Field Theory (pilot matlab implementation)
  Alexander A. Auer      : GIAO ZORA, VPT2 properties, NMR spectrum      
  Ute Becker             : All parallelization in ORCA, NUMFREQ, NUMCALC 
  Giovanni Bistoni       : ED, misc. LED, open-shell LED, HFLD           
  Dmytro Bykov           : pre 5.0 version of the SCF Hessian            
  Marcos Casanova-Páez   : Triplet and SCS-CIS(D). UHF-(DLPNO)-IP/EA/STEOM-CCSD. UHF-CVS-IP/STEOM-CCSD   
  Vijay G. Chilkuri      : MRCI spin determinant printing, contributions to CSF-ICE 
  Pauline Colinet        : FMM embedding                                 
  Dipayan Datta          : RHF DLPNO-CCSD density                        
  Achintya Kumar Dutta   : EOM-CC, STEOM-CC                              
  Nicolas Foglia         : Exact transition moments, OPA infrastructure, MCD improvements    
  Dmitry Ganyushin       : Spin-Orbit,Spin-Spin,Magnetic field MRCI      
  Miquel Garcia-Rates    : C-PCM and meta-GGA Hessian, CCSD/C-PCM, Gaussian charge scheme 
  Tiago L. C. Gouveia    : GS-ROHF, GS-ROCIS                             
  Yang Guo               : DLPNO-NEVPT2, F12-NEVPT2, CIM, IAO-localization        
  Andreas Hansen         : Spin unrestricted coupled pair/coupled cluster methods 
  Ingolf Harden          : AUTO-CI MPn and infrastructure                
  Benjamin Helmich-Paris : MC-RPA, TRAH-(SCF,CASSCF), AVAS, COSX integrals, SCF dyn. polar., MC-PDFT, srDFT 
  Lee Huntington         : MR-EOM, pCC                                   
  Robert Izsak           : Overlap fitted RIJCOSX, COSX-SCS-MP3, EOM     
  Riya Kayal             : Wick's Theorem for AUTO-CI, AUTO-CI UHF-CCSDT 
  Emily Kempfer          : AUTO-CI RHF CISDT and CCSDT, approximate NEVPT4
  Christian Kollmar      : KDIIS, OOCD, Brueckner-CCSD(T), CCSD density, CASPT2, CASPT2-K, improved NEVPT2 
  Axel Koslowski         : Symmetry handling                             
  Simone Kossmann        : meta-GGA functionals, TD-DFT gradient, OOMP2, (MP2 Hessian; deprecated post 5.0) 
  Lucas Lang             : DCDCAS, Hyperfine gauge corrections, ICE-SOC+SSC
  Marvin Lechner         : AUTO-CI (C++ implementation), FIC-MRCC        
  Spencer Leger          : CASSCF response                               
  Dagmar Lenk            : GEPOL surface, SMD, ORCA-2-JSON               
  Dimitrios Liakos       : Extrapolation schemes; Compound Job, Property file
  Dimitrios Manganas     : Further ROCIS development; embedding schemes. LFT, Crystal Embedding 
  Dimitrios Pantazis     : SARC Basis sets                               
  Anastasios Papadopoulos: AUTO-CI, single reference methods and gradients 
  Taras Petrenko         : pre 6.0 DFT Hessian and TD-DFT gradient,  ECA, NRVS 
  Petra Pikulova         : Analytic Raman intensities                    
  Peter Pinski           : DLPNO-MP2, DLPNO-MP2 Gradient                 
  Shashank Vittal Rao    : ES-AILFT, MagRelax                            
  Christoph Reimann      : Effective Core Potentials                     
  Marius Retegan         : Local ZFS, SOC                                
  Christoph Riplinger    : Optimizer, TS searches, QM/MM, DLPNO-CCSD(T), (RO)-DLPNO pert. Triples 
  Michael Roemelt        : Original ROCIS implementation, recursive CI coupling coefficients
  Masaaki Saitow         : Open-shell DLPNO-CCSD energy and density      
  Barbara Sandhoefer     : DKH picture change effects                    
  Yorick L. A. Schmerwitz: GMF and freeze-and-release deltaSCF, NEB S-IDPP initial path                    
  Kantharuban Sivalingam : CASSCF convergence/infrastructure, NEVPT2, NEVPT3, NEVPT4(SD), FIC-MRCI and CEPA variants
  Bernardo de Souza      : ESD, SOC TD-DFT                               
  Georgi L. Stoychev     : AutoAux, RI-MP2 NMR, DLPNO-MP2 response, X2C  
  Van Anh Tran           : RI-MP2 g-tensors                              
  Willem Van den Heuvel  : Paramagnetic NMR                              
  Zikuan Wang            : NOTCH, Electric field optimization            
  Frank Wennmohs         : Technical directorship and infrastructure     
  Hang Xu                : AUTO-CI-Response properties                   
                                                                         
[FACCTs GmbH]                                                            
  Markus Bursch, Nicolas Foglia, Miquel Garcia-Rates, Ingolf Harden, Hagen Neugebauer, Anastasios Papadopoulos, 
  Christoph Riplinger, Bernardo de Souza, Georgi L. Stoychev                                                    
                                                                 
  APM, various basis sets, CI-OPT, improved COSX, DLPNO-Multilevel,           
  DOCKER, DRACO, updates on ESD, Fragmentator, GOAT, IRC, LR-CPCM, L-BFGS, MBIS, meta-GGA TD-DFT gradient, ML-optimized integration grids, 
  MM, NACMEs, nearIR, NEB, NEB-TS, NL-DFT gradient (VV10), 2- and 3-layer-ONIOM, interface openCOSMO-RS, QMMM,   
  Crystal-QMMM, RESP, rigid body optimization, SF, symmetry and pop. for TD-DFT, various functionals, SOLVATOR                                   
                                                                         
[Other institutions]                                                     
  V. Asgeirsson          : NEB                                           
  Christoph Bannwarth    : sTDA-DFT, sTD-DFT, PBEh-3c, B97-3c, D3        
  Giovanni Bistoni       : ETS/NOCV, ADLD/ADEX, COVALED                  
  Martin Brehm           : Molecular dynamics                            
  Ronald Cardenas        : ETS/NOCV                                      
  Martina Colucci        : COVALED                                       
  Sebastian Ehlert       : rSCAN, r2SCAN, r2SCAN-3c, D4, dhf basis sets  
  Marvin Friede          : D4 for Fr, Ra, Ac-Lr                          
  Lars Goerigk           : TD-DFT with DH, B97 family of functionals     
  Stefan Grimme          : VdW corrections, initial TS optimization, DFT functionals, gCP, sTDA/sTD-DF 
  Waldemar Hujo          : DFT-NL                                        
  H. Jonsson             : NEB                                           
  Holger Kruse           : gCP                                           
  Marcel Mueller         : wB97X-3c, vDZP basis set                      
  Hagen Neugebauer       : wr2SCAN, Native XTB                           
  Gianluca Regni         : ADLD/ADEX                                     
  Tobias Risthaus        : pre 6.0 range-separated hybrid DFT and stability analysis
  Lukas Wittmann         : regularized MP2, r2SCAN double-hybrids, wr2SCAN        
                                                                         
We gratefully acknowledge several colleagues who have allowed us to      
interface, adapt or use parts of their codes:                            
  Ed Valeev, F. Pavosevic, A. Kumar             : LibInt (2-el integral package), F12 methods 
  Garnet Chan, S. Sharma, J. Yang, R. Olivares  : DMRG                   
  Ulf Ekstrom                                   : XCFun DFT Library      
  Mihaly Kallay                                 : mrcc  (arbitrary order and MRCC methods)
  Frank Weinhold                                : gennbo (NPA and NBO analysis)           
  Simon Mueller                                 : openCOSMO-RS                            
  Christopher J. Cramer and Donald G. Truhlar   : smd solvation model                     
  S Lehtola, MJT Oliveira, MAL Marques          : LibXC Library                           
  Liviu Ungur et al                             : ANISO software                          


 Your calculation uses the libint2 library for the computation of 2-el integrals
 For citations please refer to: http://libint.valeyev.net

 Your ORCA version has been built with support for libXC version: 7.0.0
 For citations please refer to: https://libxc.gitlab.io

 This ORCA versions uses:
   CBLAS   interface :  Fast vector & matrix operations
   LAPACKE interface :  Fast linear algebra routines
   SCALAPACK package :  Parallel linear algebra routines
   Shared memory     :  Shared parallel matrices
   BLAS/LAPACK       :  OpenBLAS 0.3.29  USE64BITINT DYNAMIC_ARCH NO_AFFINITY Cooperlake SINGLE_THREADED
        Core in use  :  Cooperlake
   Copyright (c) 2011-2014, The OpenBLAS Project


  ***********************************
  * Starting time: Sat Feb 28 22:44:23 2026
  * Host name:     c08b01n06
  * Process ID:    2844242
  * Working dir.:  /lustre1/jiangy/jiangy_liuxy/NMR/B9D7C2-SSSS
  ***********************************

NOTE: MaxCore=6000 MB was set to SCF,MP2,MDCI,CIPSI,MRCI,RASCI and CIS
      => If you want to overwrite this, your respective input block should be placed after the MaxCore statement


***************************************
The coordinates will be read from file: conf-9.xyz
***************************************


Your calculation utilizes the atom-pairwise dispersion correction
based on EEQ partial charges (D4)


Warning: RI is on but no J-basis has been assigned. Assigning Def2/J (nothing to worry about!)
================================================================================

----- Orbital basis set information -----
Your calculation utilizes the basis: def2-TZVP
   F. Weigend and R. Ahlrichs, Phys. Chem. Chem. Phys. 7, 3297 (2005).

----- AuxJ basis set information -----
Your calculation utilizes the auxiliary basis: def2/J
   H-Rn: F. Weigend, Phys. Chem. Chem. Phys. 8, 1057 (2006).
   Fr-Lr: K. Eichkorn, F. Weigend, O. Treutler, R. Ahlrichs; Theor. Chem. Acc. 97, 119 (1997).

================================================================================
                                        WARNINGS
                       Please study these warnings very carefully!
================================================================================


WARNING: Geometry Optimization
  ===> : Switching off AutoStart
         For restart on a previous wavefunction, please use MOREAD

================================================================================
                                       INPUT FILE
================================================================================
NAME = opt-conf-9.inp
|  1> ! B3LYP OPT FREQ DEF2-TZVP D4 CPCM(Methanol) 
|  2> ! TightOpt
|  3> %pal nprocs 64 end
|  4> %maxcore 6000
|  5> 
|  6> %cpcm
|  7> end
|  8> 
|  9> %freq
| 10>    Temp 298.15
| 11> end
| 12> 
| 13> * xyzfile 0 1 conf-9.xyz
| 14> 
| 15> 
| 16>                          ****END OF INPUT****
================================================================================

                       *****************************
                       * Geometry Optimization Run *
                       *****************************

Geometry optimization settings:
Update method            Update   .... BFGS
Choice of coordinates    CoordSys .... (2022) Redundant Internals
Initial Hessian          InHess   .... Almloef's Model
Max. no of cycles        MaxIter  .... 246

Convergence Tolerances:
Energy Change            TolE     ....  1.0000e-06 Eh
Max. Gradient            TolMAXG  ....  1.0000e-04 Eh/bohr
RMS Gradient             TolRMSG  ....  3.0000e-05 Eh/bohr
Max. Displacement        TolMAXD  ....  1.0000e-03 bohr
RMS Displacement         TolRMSD  ....  6.0000e-04 bohr
Strict Convergence                .... False

------------------------------------------------------------------------------
                        ORCA OPTIMIZATION COORDINATE SETUP
------------------------------------------------------------------------------

The optimization will be done in redundant internal coordinates (2022)
Making redundant internal coordinates   ...  (2022 redundants) done
Evaluating the initial hessian          ...  (Almloef) done
Evaluating the coordinates              ...  done
Calculating the B-matrix                .... done
Calculating the G-matrix                .... done
The number of degrees of freedom        ....  408

    -----------------------------------------------------------------
                    Redundant Internal Coordinates


    -----------------------------------------------------------------
         Definition                    Initial Value    Approx d2E/dq
    -----------------------------------------------------------------
      1. B(C   1,C   0)                  1.4002         0.601801   
      2. B(C   2,C   1)                  1.4004         0.601412   
      3. B(C   3,C   2)                  1.3892         0.626635   
      4. B(C   4,C   3)                  1.3851         0.636058   
      5. B(C   5,C   4)                  1.3877         0.630213   
      6. B(C   5,C   0)                  1.3867         0.632491   
      7. B(C   6,C   4)                  1.5029         0.412628   
      8. B(C   7,C   6)                  1.5408         0.359068   
      9. B(C   8,C   7)                  1.5493         0.348028   
     10. B(C   9,C   8)                  1.5375         0.363478   
     11. B(C  10,C   9)                  1.5038         0.411328   
     12. B(C  11,C  10)                  1.3937         0.616459   
     13. B(C  12,C  11)                  1.3821         0.643283   
     14. B(C  13,C  12)                  1.4038         0.593990   
     15. B(C  14,C  13)                  1.3829         0.641376   
     16. B(C  15,C  10)                  1.3868         0.632220   
     17. B(C  15,C  14)                  1.3858         0.634566   
     18. B(C  16,C   7)                  1.5350         0.366833   
     19. B(C  17,C   8)                  1.5415         0.358169   
     20. B(O  18,C   2)                  1.3640         0.615677   
     21. B(O  19,C   0)                  1.3640         0.615580   
     22. B(O  20,C   1)                  1.3774         0.586122   
     23. B(O  21,C  13)                  1.3619         0.620347   
     24. B(O  22,C  12)                  1.3817         0.576837   
     25. B(C  23,O  20)                  1.4289         0.485044   
     26. B(C  24,C  23)                  1.5471         0.350851   
     27. B(C  25,C  24)                  1.5198         0.387863   
     28. B(C  26,C  23)                  1.5316         0.371401   
     29. B(O  27,C  26)                  1.4021         0.535254   
     30. B(C  28,C  25)                  1.3904         0.623785   
     31. B(C  29,C  28)                  1.3817         0.644091   
     32. B(C  30,C  29)                  1.4017         0.598462   
     33. B(C  31,C  30)                  1.3830         0.641101   
     34. B(C  32,C  31)                  1.3845         0.637526   
     35. B(C  32,C  25)                  1.3861         0.633866   
     36. B(C  33,O  19)                  1.4074         0.524997   
     37. B(C  34,O  18)                  1.4069         0.525867   
     38. B(C  35,O  22)                  1.4050         0.529647   
     39. B(O  36,C  24)                  1.4033         0.533005   
     40. B(O  37,C  16)                  1.4074         0.524989   
     41. B(O  38,C  17)                  1.3992         0.541025   
     42. B(O  39,C  29)                  1.3749         0.591488   
     43. B(O  40,C  30)                  1.3676         0.607587   
     44. B(C  41,O  39)                  1.4091         0.521635   
     45. B(H  42,C   3)                  1.0779         0.376458   
     46. B(H  43,C   5)                  1.0779         0.376483   
     47. B(H  44,C   6)                  1.0911         0.358591   
     48. B(H  45,C   6)                  1.0920         0.357402   
     49. B(H  46,C   7)                  1.0957         0.352619   
     50. B(H  47,C   8)                  1.0950         0.353526   
     51. B(H  48,C   9)                  1.0946         0.354016   
     52. B(H  49,C   9)                  1.0905         0.359373   
     53. B(H  50,C  11)                  1.0777         0.376784   
     54. B(H  51,C  14)                  1.0780         0.376316   
     55. B(H  52,C  15)                  1.0800         0.373510   
     56. B(H  53,C  16)                  1.0933         0.355805   
     57. B(H  54,C  16)                  1.0982         0.349365   
     58. B(H  55,C  17)                  1.1024         0.344113   
     59. B(H  56,C  17)                  1.0951         0.353411   
     60. B(H  57,O  21)                  0.9665         0.507596   
     61. B(H  57,O  22)                  2.1212         0.010000   
     62. B(H  58,C  23)                  1.0932         0.355914   
     63. B(H  59,C  24)                  1.0972         0.350692   
     64. B(H  60,C  26)                  1.0986         0.348883   
     65. B(H  61,C  26)                  1.0917         0.357816   
     66. B(H  62,O  20)                  2.3533         0.010000   
     67. B(H  62,O  27)                  0.9660         0.508616   
     68. B(H  63,C  28)                  1.0777         0.376700   
     69. B(H  64,C  31)                  1.0783         0.375914   
     70. B(H  65,C  32)                  1.0786         0.375456   
     71. B(H  66,C  33)                  1.0942         0.354574   
     72. B(H  67,C  33)                  1.0940         0.354829   
     73. B(H  68,C  33)                  1.0893         0.361030   
     74. B(H  69,C  34)                  1.0942         0.354555   
     75. B(H  70,C  34)                  1.0888         0.361716   
     76. B(H  71,H  64)                  4.4837         0.010000   
     77. B(H  71,C  34)                  1.0946         0.354099   
     78. B(H  72,C  35)                  1.0941         0.354670   
     79. B(H  73,C  35)                  1.0890         0.361370   
     80. B(H  74,H  43)                  2.6785         0.010000   
     81. B(H  74,C  35)                  1.0953         0.353152   
     82. B(H  75,O  20)                  2.2640         0.010000   
     83. B(H  75,O  19)                  2.3486         0.010000   
     84. B(H  75,O  36)                  0.9712         0.499059   
     85. B(H  76,O  40)                  1.9302         0.014724   
     86. B(H  76,O  37)                  0.9711         0.499221   
     87. B(H  77,O  37)                  1.8787         0.017791   
     88. B(H  77,O  38)                  0.9721         0.497391   
     89. B(H  78,O  39)                  2.1251         0.010000   
     90. B(H  78,O  40)                  0.9698         0.501611   
     91. B(H  79,C  41)                  1.0939         0.354968   
     92. B(H  80,H  67)                  2.4548         0.010000   
     93. B(H  80,C  41)                  1.0929         0.356346   
     94. B(H  81,O  21)                  2.6540         0.010000   
     95. B(H  81,C  41)                  1.0880         0.362708   
     96. A(C   1,C   0,O  19)          115.6613         0.428377   
     97. A(C   5,C   0,O  19)          124.7231         0.432219   
     98. A(C   1,C   0,C   5)          119.6155         0.433298   
     99. A(C   0,C   1,O  20)          118.6505         0.424631   
    100. A(C   0,C   1,C   2)          119.7598         0.429394   
    101. A(C   2,C   1,O  20)          121.4669         0.424582   
    102. A(C   3,C   2,O  18)          124.6269         0.431509   
    103. A(C   1,C   2,C   3)          119.6346         0.432524   
    104. A(C   1,C   2,O  18)          115.7379         0.428339   
    105. A(C   4,C   3,H  42)          119.0464         0.357123   
    106. A(C   2,C   3,H  42)          120.3964         0.356219   
    107. A(C   2,C   3,C   4)          120.5532         0.436906   
    108. A(C   5,C   4,C   6)          119.0263         0.404853   
    109. A(C   3,C   4,C   6)          121.1830         0.405513   
    110. A(C   3,C   4,C   5)          119.7867         0.437355   
    111. A(C   4,C   5,H  43)          118.7882         0.356568   
    112. A(C   0,C   5,H  43)          120.5696         0.356786   
    113. A(C   0,C   5,C   4)          120.6388         0.436912   
    114. A(C   4,C   6,H  44)          110.4343         0.329446   
    115. A(C   7,C   6,H  45)          109.0644         0.321822   
    116. A(C   4,C   6,C   7)          111.2027         0.367091   
    117. A(H  44,C   6,H  45)          107.8421         0.290305   
    118. A(C   4,C   6,H  45)          108.5294         0.329265   
    119. A(C   7,C   6,H  44)          109.6873         0.321997   
    120. A(C   6,C   7,C  16)          108.4028         0.359785   
    121. A(C   8,C   7,C  16)          115.3345         0.357877   
    122. A(C  16,C   7,H  46)          106.8080         0.322240   
    123. A(C   8,C   7,H  46)          107.0880         0.319478   
    124. A(C   6,C   7,H  46)          107.3009         0.321113   
    125. A(C   6,C   7,C   8)          111.5106         0.356578   
    126. A(C   7,C   8,C  17)          114.9290         0.356427   
    127. A(C  17,C   8,H  47)          105.3527         0.321116   
    128. A(C   7,C   8,C   9)          111.6298         0.357319   
    129. A(C   9,C   8,H  47)          108.2523         0.321891   
    130. A(C   7,C   8,H  47)          107.1231         0.319612   
    131. A(C   9,C   8,C  17)          109.1553         0.359069   
    132. A(H  48,C   9,H  49)          106.9503         0.289971   
    133. A(C  10,C   9,H  48)          108.9305         0.328577   
    134. A(C  10,C   9,H  49)          108.9491         0.329393   
    135. A(C   8,C   9,C  10)          114.9158         0.367662   
    136. A(C   8,C   9,H  48)          107.8258         0.321964   
    137. A(C   8,C   9,H  49)          108.9785         0.322757   
    138. A(C   9,C  10,C  11)          121.4898         0.403054   
    139. A(C  11,C  10,C  15)          118.5200         0.435145   
    140. A(C   9,C  10,C  15)          119.9795         0.404854   
    141. A(C  10,C  11,C  12)          120.8746         0.436506   
    142. A(C  10,C  11,H  50)          119.2455         0.355283   
    143. A(C  12,C  11,H  50)          119.8799         0.357862   
    144. A(C  11,C  12,C  13)          120.0109         0.433598   
    145. A(C  13,C  12,O  22)          114.5333         0.422433   
    146. A(C  11,C  12,O  22)          125.4558         0.428504   
    147. A(C  12,C  13,O  21)          120.3912         0.427966   
    148. A(C  12,C  13,C  14)          119.1905         0.433367   
    149. A(C  14,C  13,O  21)          120.4181         0.433906   
    150. A(C  13,C  14,H  51)          118.6569         0.357606   
    151. A(C  13,C  14,C  15)          120.2265         0.438556   
    152. A(C  15,C  14,H  51)          121.1165         0.356958   
    153. A(C  14,C  15,H  52)          119.4077         0.356504   
    154. A(C  10,C  15,H  52)          119.4232         0.356280   
    155. A(C  10,C  15,C  14)          121.1587         0.437420   
    156. A(O  37,C  16,H  54)          110.2746         0.339345   
    157. A(C   7,C  16,H  54)          107.6400         0.321751   
    158. A(O  37,C  16,H  53)          106.1912         0.340383   
    159. A(C   7,C  16,H  53)          110.9677         0.322715   
    160. A(C   7,C  16,O  37)          113.8115         0.381668   
    161. A(H  53,C  16,H  54)          107.8241         0.288918   
    162. A(O  38,C  17,H  56)          105.2566         0.341714   
    163. A(C   8,C  17,O  38)          115.1145         0.382078   
    164. A(H  55,C  17,H  56)          107.3731         0.287929   
    165. A(C   8,C  17,H  56)          108.6503         0.321099   
    166. A(O  38,C  17,H  55)          111.0236         0.340193   
    167. A(C   8,C  17,H  55)          109.0730         0.319703   
    168. A(C   2,O  18,C  34)          118.8364         0.415476   
    169. A(C   0,O  19,C  33)          117.9675         0.415342   
    170. A(C   1,O  20,C  23)          116.8297         0.406009   
    171. A(C  13,O  21,H  57)          107.7324         0.368625   
    172. A(C  12,O  22,C  35)          118.1837         0.411218   
    173. A(C  26,C  23,H  58)          108.8995         0.323387   
    174. A(C  24,C  23,H  58)          110.9282         0.320387   
    175. A(O  20,C  23,H  58)          110.4369         0.335937   
    176. A(C  24,C  23,C  26)          111.6946         0.359125   
    177. A(O  20,C  23,C  26)          105.4313         0.377279   
    178. A(O  20,C  23,C  24)          109.3165         0.373589   
    179. A(C  23,C  24,O  36)          108.9280         0.379728   
    180. A(O  36,C  24,H  59)          106.3137         0.340421   
    181. A(C  25,C  24,H  59)          109.4614         0.324909   
    182. A(C  23,C  24,H  59)          108.6473         0.319614   
    183. A(C  25,C  24,O  36)          112.0344         0.386402   
    184. A(C  23,C  24,C  25)          111.2834         0.361790   
    185. A(C  28,C  25,C  32)          119.1609         0.436276   
    186. A(C  24,C  25,C  32)          122.1530         0.400866   
    187. A(C  24,C  25,C  28)          118.6861         0.399737   
    188. A(O  27,C  26,H  61)          106.9282         0.341809   
    189. A(H  60,C  26,H  61)          109.0673         0.289111   
    190. A(C  23,C  26,H  61)          110.1505         0.323670   
    191. A(O  27,C  26,H  60)          110.9316         0.340367   
    192. A(C  23,C  26,H  60)          108.6249         0.322331   
    193. A(C  23,C  26,O  27)          111.1155         0.383778   
    194. A(C  26,O  27,H  62)          106.9458         0.359564   
    195. A(C  29,C  28,H  63)          120.8889         0.357925   
    196. A(C  25,C  28,H  63)          118.2925         0.355982   
    197. A(C  25,C  28,C  29)          120.8185         0.437536   
    198. A(C  30,C  29,O  39)          115.0432         0.424901   
    199. A(C  28,C  29,O  39)          125.4370         0.430533   
    200. A(C  28,C  29,C  30)          119.5194         0.434282   
    201. A(C  31,C  30,O  40)          120.3596         0.432254   
    202. A(C  29,C  30,O  40)          120.0790         0.426948   
    203. A(C  29,C  30,C  31)          119.5535         0.433919   
    204. A(C  32,C  31,H  64)          120.7347         0.357175   
    205. A(C  30,C  31,H  64)          118.9079         0.357515   
    206. A(C  30,C  31,C  32)          120.3531         0.438890   
    207. A(C  31,C  32,H  65)          118.9536         0.357101   
    208. A(C  25,C  32,H  65)          120.6433         0.356752   
    209. A(C  25,C  32,C  31)          120.4029         0.437993   
    210. A(H  67,C  33,H  68)          109.6610         0.290284   
    211. A(H  66,C  33,H  68)          109.0584         0.290252   
    212. A(O  19,C  33,H  68)          105.7098         0.341214   
    213. A(H  66,C  33,H  67)          109.2461         0.289464   
    214. A(O  19,C  33,H  67)          111.6562         0.340227   
    215. A(O  19,C  33,H  66)          111.4242         0.340186   
    216. A(H  69,C  34,H  71)          109.5194         0.289368   
    217. A(O  18,C  34,H  71)          111.5475         0.340204   
    218. A(H  69,C  34,H  70)          109.3772         0.290336   
    219. A(O  18,C  34,H  70)          105.3636         0.341417   
    220. A(O  18,C  34,H  69)          111.4972         0.340278   
    221. A(H  70,C  34,H  71)          109.4333         0.290277   
    222. A(H  73,C  35,H  74)          109.2056         0.290112   
    223. A(H  72,C  35,H  74)          109.3814         0.289261   
    224. A(O  22,C  35,H  74)          111.6356         0.340460   
    225. A(H  72,C  35,H  73)          109.3260         0.290307   
    226. A(O  22,C  35,H  73)          105.7288         0.341772   
    227. A(O  22,C  35,H  72)          111.4683         0.340704   
    228. A(C  24,O  36,H  75)          106.0149         0.358149   
    229. A(C  16,O  37,H  76)          108.1859         0.357247   
    230. A(C  17,O  38,H  77)          108.7018         0.358855   
    231. A(C  29,O  39,C  41)          118.0016         0.411936   
    232. A(C  30,O  40,H  78)          107.8919         0.366566   
    233. A(H  80,C  41,H  81)          108.8664         0.290690   
    234. A(H  79,C  41,H  81)          110.1112         0.290514   
    235. A(O  39,C  41,H  81)          105.6115         0.341112   
    236. A(H  79,C  41,H  80)          109.3570         0.289708   
    237. A(O  39,C  41,H  80)          111.7825         0.340104   
    238. A(O  39,C  41,H  79)          111.0347         0.339884   
    239. D(O  20,C   1,C   0,O  19)     -2.7807         0.024975   
    240. D(C   2,C   1,C   0,O  19)   -178.8128         0.024975   
    241. D(C   2,C   1,C   0,C   5)      1.0738         0.024975   
    242. D(O  20,C   1,C   0,C   5)    177.1059         0.024975   
    243. D(O  18,C   2,C   1,C   0)    178.4413         0.024941   
    244. D(C   3,C   2,C   1,C   0)     -1.2718         0.024941   
    245. D(C   3,C   2,C   1,O  20)   -177.1892         0.024941   
    246. D(O  18,C   2,C   1,O  20)      2.5239         0.024941   
    247. D(C   4,C   3,C   2,C   1)      0.6593         0.027208   
    248. D(H  42,C   3,C   2,O  18)      0.2446         0.027208   
    249. D(C   4,C   3,C   2,O  18)   -179.0267         0.027208   
    250. D(H  42,C   3,C   2,C   1)    179.9305         0.027208   
    251. D(C   6,C   4,C   3,H  42)      1.6136         0.028086   
    252. D(C   5,C   4,C   3,H  42)   -179.1250         0.028086   
    253. D(C   5,C   4,C   3,C   2)      0.1559         0.028086   
    254. D(C   6,C   4,C   3,C   2)   -179.1054         0.028086   
    255. D(H  43,C   5,C   4,C   6)     -0.4234         0.027539   
    256. D(H  43,C   5,C   4,C   3)   -179.7007         0.027539   
    257. D(C   0,C   5,C   4,C   3)     -0.3579         0.027539   
    258. D(C   4,C   5,C   0,O  19)    179.6157         0.027751   
    259. D(H  43,C   5,C   0,C   1)    179.0711         0.027751   
    260. D(H  43,C   5,C   0,O  19)     -1.0532         0.027751   
    261. D(C   0,C   5,C   4,C   6)    178.9194         0.027539   
    262. D(C   4,C   5,C   0,C   1)     -0.2600         0.027751   
    263. D(H  45,C   6,C   4,C   3)   -134.2284         0.012604   
    264. D(H  44,C   6,C   4,C   5)    164.5209         0.012604   
    265. D(H  44,C   6,C   4,C   3)    -16.2122         0.012604   
    266. D(C   7,C   6,C   4,C   5)    -73.4637         0.012604   
    267. D(C   7,C   6,C   4,C   3)    105.8032         0.012604   
    268. D(C   8,C   7,C   6,H  44)    -77.5378         0.010348   
    269. D(C   8,C   7,C   6,C   4)    160.0142         0.010348   
    270. D(C  16,C   7,C   6,H  45)    168.3776         0.010348   
    271. D(C  16,C   7,C   6,H  44)     50.4762         0.010348   
    272. D(C   8,C   7,C   6,H  45)     40.3636         0.010348   
    273. D(C  16,C   7,C   6,C   4)    -71.9718         0.010348   
    274. D(C  17,C   8,C   7,H  46)   -150.0301         0.010000   
    275. D(C  17,C   8,C   7,C  16)    -31.3284         0.010000   
    276. D(C  17,C   8,C   7,C   6)     92.8679         0.010000   
    277. D(C   9,C   8,C   7,C  16)     93.6704         0.010000   
    278. D(C   9,C   8,C   7,H  46)    -25.0313         0.010000   
    279. D(C   9,C   8,C   7,C   6)   -142.1333         0.010000   
    280. D(H  48,C   9,C   8,C  17)    -58.2994         0.010585   
    281. D(H  48,C   9,C   8,C   7)    173.5494         0.010585   
    282. D(C  10,C   9,C   8,H  47)    -65.7909         0.010585   
    283. D(C  10,C   9,C   8,C  17)   -179.9760         0.010585   
    284. D(H  48,C   9,C   8,H  47)     55.8857         0.010585   
    285. D(C  10,C   9,C   8,C   7)     51.8728         0.010585   
    286. D(C  15,C  10,C   9,H  48)    100.1543         0.012528   
    287. D(C  15,C  10,C   9,C   8)   -138.7709         0.012528   
    288. D(C  11,C  10,C   9,H  49)    165.0244         0.012528   
    289. D(C  11,C  10,C   9,H  48)    -78.6400         0.012528   
    290. D(C  11,C  10,C   9,C   8)     42.4347         0.012528   
    291. D(H  50,C  11,C  10,C  15)   -178.7122         0.026278   
    292. D(H  50,C  11,C  10,C   9)      0.0992         0.026278   
    293. D(C  12,C  11,C  10,C  15)      1.2667         0.026278   
    294. D(C  12,C  11,C  10,C   9)   -179.9219         0.026278   
    295. D(O  22,C  12,C  11,H  50)     -1.3865         0.028771   
    296. D(C  13,C  12,C  11,H  50)    178.6308         0.028771   
    297. D(O  22,C  12,C  11,C  10)    178.6348         0.028771   
    298. D(C  13,C  12,C  11,C  10)     -1.3479         0.028771   
    299. D(O  21,C  13,C  12,C  11)   -179.5645         0.024297   
    300. D(C  14,C  13,C  12,O  22)   -179.7093         0.024297   
    301. D(C  14,C  13,C  12,C  11)      0.2752         0.024297   
    302. D(O  21,C  13,C  12,O  22)      0.4510         0.024297   
    303. D(H  51,C  14,C  13,O  21)      0.8164         0.028589   
    304. D(H  51,C  14,C  13,C  12)   -179.0233         0.028589   
    305. D(C  15,C  14,C  13,O  21)   -179.3107         0.028589   
    306. D(C  15,C  14,C  13,C  12)      0.8496         0.028589   
    307. D(H  52,C  15,C  14,H  51)      0.1143         0.027946   
    308. D(H  52,C  15,C  14,C  13)   -179.7554         0.027946   
    309. D(C  10,C  15,C  14,H  51)    178.9395         0.027946   
    310. D(C  10,C  15,C  14,C  13)     -0.9302         0.027946   
    311. D(H  52,C  15,C  10,C  11)    178.6974         0.027726   
    312. D(H  52,C  15,C  10,C   9)     -0.1325         0.027726   
    313. D(C  14,C  15,C  10,C  11)     -0.1276         0.027726   
    314. D(C  14,C  15,C  10,C   9)   -178.9575         0.027726   
    315. D(H  53,C  16,C   7,H  46)    179.3480         0.010769   
    316. D(H  53,C  16,C   7,C   8)     60.4909         0.010769   
    317. D(H  53,C  16,C   7,C   6)    -65.3172         0.010769   
    318. D(O  37,C  16,C   7,H  46)     59.6445         0.010769   
    319. D(O  37,C  16,C   7,C   8)    -59.2125         0.010769   
    320. D(O  37,C  16,C   7,C   6)    174.9794         0.010769   
    321. D(H  55,C  17,C   8,H  47)     73.5106         0.010300   
    322. D(H  55,C  17,C   8,C   9)   -170.4365         0.010300   
    323. D(H  55,C  17,C   8,C   7)    -44.1546         0.010300   
    324. D(O  38,C  17,C   8,H  47)   -160.9479         0.010300   
    325. D(O  38,C  17,C   8,C   9)    -44.8950         0.010300   
    326. D(O  38,C  17,C   8,C   7)     81.3868         0.010300   
    327. D(C  34,O  18,C   2,C   3)      0.2600         0.027783   
    328. D(C  34,O  18,C   2,C   1)   -179.4370         0.027783   
    329. D(C  33,O  19,C   0,C   5)     -3.3355         0.030651   
    330. D(C  33,O  19,C   0,C   1)    176.5446         0.030651   
    331. D(C  23,O  20,C   1,C   2)    -66.7780         0.029988   
    332. D(C  23,O  20,C   1,C   0)    117.2606         0.029988   
    333. D(H  57,O  21,C  13,C  14)   -176.6965         0.031164   
    334. D(H  57,O  21,C  13,C  12)      3.1412         0.031164   
    335. D(C  35,O  22,C  12,C  13)   -175.4251         0.026669   
    336. D(C  35,O  22,C  12,C  11)      4.5914         0.026669   
    337. D(H  58,C  23,O  20,C   1)     39.6005         0.021610   
    338. D(C  26,C  23,O  20,C   1)    157.0814         0.021610   
    339. D(C  24,C  23,O  20,C   1)    -82.7123         0.021610   
    340. D(O  36,C  24,C  23,H  58)   -176.2077         0.010000   
    341. D(O  36,C  24,C  23,C  26)     62.0993         0.010000   
    342. D(O  36,C  24,C  23,O  20)    -54.1897         0.010000   
    343. D(C  25,C  24,C  23,H  58)    -52.2055         0.010000   
    344. D(C  25,C  24,C  23,C  26)   -173.8985         0.010000   
    345. D(C  25,C  24,C  23,O  20)     69.8125         0.010000   
    346. D(C  32,C  25,C  24,O  36)    170.2935         0.011199   
    347. D(C  32,C  25,C  24,C  23)     48.0706         0.011199   
    348. D(C  28,C  25,C  24,H  59)    108.0610         0.011199   
    349. D(C  28,C  25,C  24,O  36)     -9.6109         0.011199   
    350. D(C  28,C  25,C  24,C  23)   -131.8338         0.011199   
    351. D(H  60,C  26,C  23,H  58)    175.0605         0.011022   
    352. D(H  60,C  26,C  23,C  24)    -62.0828         0.011022   
    353. D(H  60,C  26,C  23,O  20)     56.5461         0.011022   
    354. D(O  27,C  26,C  23,H  58)     52.7653         0.011022   
    355. D(O  27,C  26,C  23,C  24)    175.6221         0.011022   
    356. D(O  27,C  26,C  23,O  20)    -65.7491         0.011022   
    357. D(H  62,O  27,C  26,H  61)    164.8367         0.022772   
    358. D(H  62,O  27,C  26,H  60)    -76.3459         0.022772   
    359. D(H  62,O  27,C  26,C  23)     44.6019         0.022772   
    360. D(H  63,C  28,C  25,C  32)    176.3138         0.026945   
    361. D(H  63,C  28,C  25,C  24)     -3.7789         0.026945   
    362. D(C  29,C  28,C  25,C  32)     -3.7653         0.026945   
    363. D(C  29,C  28,C  25,C  24)    176.1420         0.026945   
    364. D(C  30,C  29,C  28,H  63)   -179.8917         0.028848   
    365. D(C  30,C  29,C  28,C  25)      0.1895         0.028848   
    366. D(O  39,C  29,C  28,H  63)      0.3651         0.028848   
    367. D(O  39,C  29,C  28,C  25)   -179.5537         0.028848   
    368. D(O  40,C  30,C  29,O  39)      2.0522         0.024684   
    369. D(O  40,C  30,C  29,C  28)   -177.7168         0.024684   
    370. D(C  31,C  30,C  29,O  39)   -176.9285         0.024684   
    371. D(C  31,C  30,C  29,C  28)      3.3025         0.024684   
    372. D(H  64,C  31,C  30,O  40)     -2.9297         0.028563   
    373. D(H  64,C  31,C  30,C  29)    176.0481         0.028563   
    374. D(C  32,C  31,C  30,O  40)    177.8172         0.028563   
    375. D(C  32,C  31,C  30,C  29)     -3.2051         0.028563   
    376. D(H  65,C  32,C  31,H  64)      0.1747         0.028224   
    377. D(H  65,C  32,C  31,C  30)    179.4140         0.028224   
    378. D(C  25,C  32,C  31,H  64)   -179.6424         0.028224   
    379. D(C  25,C  32,C  31,C  30)     -0.4030         0.028224   
    380. D(H  65,C  32,C  25,C  28)   -175.9386         0.027880   
    381. D(H  65,C  32,C  25,C  24)      4.1575         0.027880   
    382. D(C  31,C  32,C  25,C  28)      3.8753         0.027880   
    383. D(C  31,C  32,C  25,C  24)   -176.0286         0.027880   
    384. D(H  68,C  33,O  19,C   0)   -179.6349         0.023740   
    385. D(H  67,C  33,O  19,C   0)     61.1732         0.023740   
    386. D(H  66,C  33,O  19,C   0)    -61.2920         0.023740   
    387. D(H  71,C  34,O  18,C   2)    -61.6552         0.021945   
    388. D(H  70,C  34,O  18,C   2)    179.6946         0.021945   
    389. D(H  69,C  34,O  18,C   2)     61.1381         0.021945   
    390. D(H  74,C  35,O  22,C  12)    -63.9736         0.024184   
    391. D(H  73,C  35,O  22,C  12)    177.3824         0.024184   
    392. D(H  72,C  35,O  22,C  12)     58.6836         0.024184   
    393. D(H  75,O  36,C  24,H  59)    167.9163         0.022572   
    394. D(H  75,O  36,C  24,C  25)    -72.5486         0.022572   
    395. D(H  75,O  36,C  24,C  23)     51.0078         0.022572   
    396. D(H  76,O  37,C  16,H  54)     58.1861         0.023739   
    397. D(H  76,O  37,C  16,H  53)    174.7408         0.023739   
    398. D(H  76,O  37,C  16,C   7)    -62.8866         0.023739   
    399. D(H  77,O  38,C  17,H  56)   -167.5034         0.023290   
    400. D(H  77,O  38,C  17,H  55)     76.6221         0.023290   
    401. D(H  77,O  38,C  17,C   8)    -47.9040         0.023290   
    402. D(C  41,O  39,C  29,C  30)    166.9479         0.028134   
    403. D(C  41,O  39,C  29,C  28)    -13.2987         0.028134   
    404. D(H  78,O  40,C  30,C  31)    179.0085         0.029801   
    405. D(H  78,O  40,C  30,C  29)      0.0362         0.029801   
    406. D(H  81,C  41,O  39,C  29)   -177.3824         0.023423   
    407. D(H  80,C  41,O  39,C  29)     64.3737         0.023423   
    408. D(H  79,C  41,O  39,C  29)    -58.0447         0.023423   
    -----------------------------------------------------------------

Number of atoms                         .... 82
Number of degrees of freedom            .... 408


         *************************************************************
         *                GEOMETRY OPTIMIZATION CYCLE   1            *
         *************************************************************
---------------------------------
CARTESIAN COORDINATES (ANGSTROEM)
---------------------------------
  C     28.876753  -26.622864    1.488351
  C     30.052288  -25.995456    1.058166
  C     30.030397  -25.187045   -0.085104
  C     28.847226  -25.036453   -0.797359
  C     27.687816  -25.667879   -0.378224
  C     27.706068  -26.455178    0.764317
  C     26.404866  -25.530843   -1.148985
  C     26.081659  -26.820913   -1.926973
  C     24.581240  -26.895022   -2.305818
  C     24.038369  -28.329005   -2.192847
  C     24.306757  -29.006208   -0.877264
  C     24.158685  -28.330766    0.332749
  C     24.410350  -28.965171    1.534537
  C     24.793618  -30.315524    1.548880
  C     24.919848  -30.993551    0.350266
  C     24.687210  -30.339488   -0.849091
  C     27.062300  -26.936650   -3.102150
  C     24.233929  -26.330891   -3.697666
  O     31.212663  -24.589984   -0.411092
  O     28.987515  -27.369781    2.624338
  O     31.189132  -26.125960    1.824826
  O     25.034935  -30.950757    2.729193
  O     24.320131  -28.381088    2.783502
  C     32.301338  -26.789704    1.221292
  C     32.116737  -28.320114    1.352571
  C     30.983425  -28.816769    0.470145
  C     33.533303  -26.300172    1.988354
  O     33.745882  -24.929879    1.780970
  C     30.030605  -29.665719    1.022184
  C     28.938983  -30.080273    0.283497
  C     28.793836  -29.641811   -1.039949
  C     29.779101  -28.856605   -1.610350
  C     30.870121  -28.449378   -0.861544
  C     27.820025  -27.961387    3.141708
  C     31.261528  -23.753657   -1.541401
  C     23.848224  -27.060304    2.865856
  O     31.910920  -28.639560    2.703390
  O     26.940715  -28.136509   -3.827593
  O     24.466164  -27.203082   -4.766814
  O     27.938760  -30.908442    0.735246
  O     27.694195  -30.007136   -1.766355
  C     28.152464  -31.607871    1.939719
  H     28.816192  -24.416284   -1.678444
  H     26.795859  -26.943029    1.073132
  H     26.464242  -24.689340   -1.841040
  H     25.596293  -25.327597   -0.443671
  H     26.287035  -27.664579   -1.258662
  H     24.037471  -26.265366   -1.593843
  H     22.957069  -28.292028   -2.359149
  H     24.462985  -28.933225   -2.995293
  H     23.843190  -27.300338    0.325351
  H     25.199115  -32.034531    0.372088
  H     24.785731  -30.882860   -1.777283
  H     26.907651  -26.128302   -3.821795
  H     28.078792  -26.837385   -2.698396
  H     24.766586  -25.376734   -3.842793
  H     23.160891  -26.114581   -3.730085
  H     24.843185  -30.328122    3.443178
  H     32.397611  -26.496541    0.172561
  H     33.051925  -28.812798    1.058384
  H     33.391562  -26.518238    3.055739
  H     34.426983  -26.817671    1.634223
  H     32.886447  -24.496254    1.861601
  H     30.164953  -29.990683    2.040936
  H     29.688402  -28.578689   -2.648266
  H     31.630036  -27.845345   -1.331780
  H     27.077468  -27.206248    3.416789
  H     27.374148  -28.663469    2.430975
  H     28.132511  -28.495970    4.037890
  H     30.585254  -22.899686   -1.437892
  H     32.288919  -23.396789   -1.591996
  H     31.020861  -24.301791   -2.457765
  H     22.843529  -26.966930    2.442768
  H     23.815152  -26.824341    3.928512
  H     24.521544  -26.358717    2.361767
  H     31.200603  -28.053612    3.012063
  H     27.155876  -28.873385   -3.232857
  H     25.355224  -27.584220   -4.670679
  H     27.134998  -30.562636   -1.201390
  H     29.045972  -32.235732    1.875945
  H     28.246444  -30.929532    2.791395
  H     27.269021  -32.227458    2.079228

----------------------------
CARTESIAN COORDINATES (A.U.)
----------------------------
  NO LB      ZA    FRAG     MASS         X           Y           Z
   0 C     6.0000    0    12.011   54.569155  -50.309922    2.812576
   1 C     6.0000    0    12.011   56.790594  -49.124292    1.999645
   2 C     6.0000    0    12.011   56.749226  -47.596618   -0.160824
   3 C     6.0000    0    12.011   54.513358  -47.312039   -1.506790
   4 C     6.0000    0    12.011   52.322390  -48.505262   -0.714741
   5 C     6.0000    0    12.011   52.356880  -49.993041    1.444350
   6 C     6.0000    0    12.011   49.897966  -48.246301   -2.171267
   7 C     6.0000    0    12.011   49.287193  -50.684180   -3.641450
   8 C     6.0000    0    12.011   46.451811  -50.824226   -4.357365
   9 C     6.0000    0    12.011   45.425934  -53.534061   -4.143881
  10 C     6.0000    0    12.011   45.933114  -54.813790   -1.657789
  11 C     6.0000    0    12.011   45.653298  -53.537389    0.628805
  12 C     6.0000    0    12.011   46.128877  -54.736240    2.899854
  13 C     6.0000    0    12.011   46.853147  -57.288038    2.926959
  14 C     6.0000    0    12.011   47.091688  -58.569323    0.661906
  15 C     6.0000    0    12.011   46.652065  -57.333323   -1.604550
  16 C     6.0000    0    12.011   51.140336  -50.902891   -5.862214
  17 C     6.0000    0    12.011   45.795490  -49.758174   -6.987577
  18 O     8.0000    0    15.999   58.983385  -46.468336   -0.776851
  19 O     8.0000    0    15.999   54.778464  -51.721390    4.959281
  20 O     8.0000    0    15.999   58.938918  -49.370909    3.448421
  21 O     8.0000    0    15.999   47.309172  -58.488454    5.157428
  22 O     8.0000    0    15.999   45.958387  -53.632484    5.260056
  23 C     6.0000    0    12.011   61.040682  -50.625204    2.307907
  24 C     6.0000    0    12.011   60.691837  -53.517259    2.555989
  25 C     6.0000    0    12.011   58.550187  -54.455802    0.888445
  26 C     6.0000    0    12.011   63.368759  -49.700123    3.757444
  27 O     8.0000    0    15.999   63.770475  -47.110643    3.365546
  28 C     6.0000    0    12.011   56.749620  -56.060084    1.931647
  29 C     6.0000    0    12.011   54.686752  -56.843479    0.535731
  30 C     6.0000    0    12.011   54.412465  -56.014906   -1.965219
  31 C     6.0000    0    12.011   56.274346  -54.531081   -3.043121
  32 C     6.0000    0    12.011   58.336074  -53.761534   -1.628083
  33 C     6.0000    0    12.011   52.572228  -52.839363    5.936967
  34 C     6.0000    0    12.011   59.075727  -44.887906   -2.912826
  35 C     6.0000    0    12.011   45.066613  -51.136563    5.415683
  36 O     8.0000    0    15.999   60.302899  -54.120925    5.108667
  37 O     8.0000    0    15.999   50.910574  -53.170296   -7.233103
  38 O     8.0000    0    15.999   46.234350  -51.406374   -9.007974
  39 O     8.0000    0    15.999   52.796605  -58.408490    1.389413
  40 O     8.0000    0    15.999   52.334444  -56.705268   -3.337928
  41 C     6.0000    0    12.011   53.200447  -59.730219    3.665538
  42 H     1.0000    0     1.008   54.454711  -46.140090   -3.171800
  43 H     1.0000    0     1.008   50.636835  -50.914945    2.027926
  44 H     1.0000    0     1.008   50.010170  -46.656091   -3.479061
  45 H     1.0000    0     1.008   48.369984  -47.862222   -0.838417
  46 H     1.0000    0     1.008   49.675298  -52.278478   -2.378526
  47 H     1.0000    0     1.008   45.424238  -49.634348   -3.011927
  48 H     1.0000    0     1.008   43.382573  -53.464186   -4.458145
  49 H     1.0000    0     1.008   46.228341  -54.675872   -5.660283
  50 H     1.0000    0     1.008   45.057098  -51.590161    0.614825
  51 H     1.0000    0     1.008   47.619426  -60.536491    0.703144
  52 H     1.0000    0     1.008   46.838244  -58.360148   -3.358579
  53 H     1.0000    0     1.008   50.848091  -49.375336   -7.222146
  54 H     1.0000    0     1.008   53.061228  -50.715307   -5.099229
  55 H     1.0000    0     1.008   46.802064  -47.955077   -7.261827
  56 H     1.0000    0     1.008   43.767741  -49.349405   -7.048839
  57 H     1.0000    0     1.008   46.946815  -57.311845    6.506664
  58 H     1.0000    0     1.008   61.222613  -50.071207    0.326093
  59 H     1.0000    0     1.008   62.459087  -54.448297    2.000056
  60 H     1.0000    0     1.008   63.100908  -50.112207    5.774509
  61 H     1.0000    0     1.008   65.057570  -50.678053    3.088233
  62 H     1.0000    0     1.008   62.146377  -46.291211    3.517916
  63 H     1.0000    0     1.008   57.003499  -56.674178    3.856810
  64 H     1.0000    0     1.008   56.102950  -54.005895   -5.004497
  65 H     1.0000    0     1.008   59.772105  -52.620077   -2.516700
  66 H     1.0000    0     1.008   51.168999  -51.412358    6.456796
  67 H     1.0000    0     1.008   51.729643  -54.166106    4.593877
  68 H     1.0000    0     1.008   53.162741  -53.849579    7.630506
  69 H     1.0000    0     1.008   57.797754  -43.274136   -2.717221
  70 H     1.0000    0     1.008   61.017214  -44.213524   -3.008436
  71 H     1.0000    0     1.008   58.620932  -45.923730   -4.644502
  72 H     1.0000    0     1.008   43.168015  -50.960113    4.616162
  73 H     1.0000    0     1.008   45.004115  -50.690657    7.423813
  74 H     1.0000    0     1.008   46.339003  -49.810757    4.463093
  75 H     1.0000    0     1.008   58.960595  -53.013644    5.691974
  76 H     1.0000    0     1.008   51.317168  -54.562790   -6.109214
  77 H     1.0000    0     1.008   47.914429  -52.126621   -8.826304
  78 H     1.0000    0     1.008   51.277715  -57.755013   -2.270297
  79 H     1.0000    0     1.008   54.888933  -60.916704    3.545023
  80 H     1.0000    0     1.008   53.378043  -58.448346    5.274973
  81 H     1.0000    0     1.008   51.530982  -60.901069    3.929172

--------------------------------
INTERNAL COORDINATES (ANGSTROEM)
--------------------------------
 C      0   0   0     0.000000000000     0.00000000     0.00000000
 C      1   0   0     1.400207639605     0.00000000     0.00000000
 C      2   1   0     1.400383668225   119.75983069     0.00000000
 C      3   2   1     1.389200096815   119.63455418   358.72815543
 C      4   3   2     1.385137190414   120.55322197     0.65927806
 C      1   2   3     1.386668132572   119.61548324     1.07382451
 C      5   4   3     1.502934222883   121.18300452   180.89456633
 C      7   5   4     1.540781605808   111.20271400   105.80317148
 C      8   7   5     1.549282285467   111.51063205   160.01418064
 C      9   8   7     1.537458318774   111.62975969   217.86673113
 C     10   9   8     1.503793813132   114.91575785    51.87276201
 C     11  10   9     1.393656996245   121.48983028    42.43474465
 C     12  11  10     1.382062851737   120.87461563   180.07813777
 C     13  12  11     1.403763719860   120.01085631   358.65206880
 C     14  13  12     1.382870734314   119.19049370     0.27518828
 C     15  14  13     1.385776465258   120.22649116     0.84964080
 C      8   7   5     1.534957126469   108.40284178   288.02821751
 C      9   8   7     1.541463429745   114.92903334    92.86794633
 O      3   2   1     1.364002647530   115.73786680   178.44125310
 O      1   2   3     1.364045403235   115.66126298   181.18718365
 O      2   1   3     1.377393708883   118.65051059   176.03212005
 O     14  13  12     1.361945272323   120.39123687   180.43547653
 O     13  12  11     1.381740229163   125.45579208   178.63478091
 C     21   2   1     1.428919743602   116.82968979   117.26061807
 C     24  21   2     1.547082774522   109.31649165   277.28765261
 C     25  24  21     1.519782622765   111.28341132    69.81249817
 C     24  21   2     1.531588589660   105.43129190   157.08137582
 O     27  24  21     1.402106628627   111.11546311   294.25090379
 C     26  25  24     1.390441168017   118.68611862   228.16620380
 C     29  26  25     1.381721119048   120.81852390   176.14198824
 C     30  29  26     1.401722284780   119.51938958     0.18948369
 C     31  30  29     1.382987366381   119.55351569     3.30247488
 C     32  31  30     1.384509958918   120.35308918   356.79494366
 C     20   1   2     1.407373842612   117.96746990   176.54462180
 C     19   3   2     1.406922792021   118.83644937   180.56303582
 C     23  13  12     1.404973120608   118.18370968     4.59136377
 O     25  24  21     1.403252899766   108.92801514   305.81026232
 O     17   8   7     1.407378016422   113.81148848   174.97936993
 O     18   9   8     1.399187746811   115.11446237    81.38684415
 O     30  29  26     1.374912970905   125.43695849   180.44631446
 O     31  30  29     1.367603145382   120.07899922   182.28316051
 C     40  30  29     1.409122695543   118.00162849   346.70125150
 H      4   3   2     1.077907161099   120.39642404   179.93050206
 H      6   1   2     1.077889226041   120.56964772   179.07114926
 H      7   5   4     1.091142751935   110.43428199   343.78778889
 H      7   5   4     1.092047159054   108.52941765   225.77156314
 H      8   7   5     1.095714751222   107.30094077    43.04135037
 H      9   8   7     1.095015772026   107.12306433   336.20764161
 H     10   9   8     1.094638437628   107.82581219   173.54939306
 H     10   9   8     1.090549970671   108.97849258   289.29886668
 H     12  11  10     1.077671161895   119.24550422     0.09924930
 H     15  14  13     1.078010148149   118.65688705   180.97672340
 H     16  15  14     1.080046914460   119.40774516   180.24455365
 H     17   8   7     1.093266007905   110.96771013   294.68282369
 H     17   8   7     1.098238462061   107.64002373    52.44707528
 H     18   9   8     1.102361852799   109.07296301   315.84536525
 H     18   9   8     1.095104193487   108.65025664   199.09252889
 H     22  14  13     0.966548905869   107.73241676     3.14120473
 H     24  21   2     1.093183073385   110.43686266    39.60054241
 H     25  24  21     1.097206088848   108.64730456   190.39803981
 H     27  24  21     1.098614209841   108.62487912    56.54605063
 H     27  24  21     1.091731918573   110.15046349   175.94437278
 H     28  27  24     0.966002486762   106.94577883    44.60193926
 H     29  26  25     1.077732532802   118.29254045   356.22109740
 H     32  31  30     1.078300913959   118.90790543   176.04810927
 H     33  32  31     1.078632878793   118.95356171   179.41404303
 H     34  20   1     1.094209290435   111.42418401   298.70797199
 H     34  20   1     1.094013642247   111.65623436    61.17318535
 H     34  20   1     1.089297708549   105.70975342   180.36511956
 H     35  19   3     1.094224056382   111.49720507    61.13810958
 H     35  19   3     1.088781469264   105.36361807   179.69457217
 H     35  19   3     1.094574806234   111.54754019   298.34479314
 H     36  23  13     1.094136127735   111.46826613    58.68361771
 H     36  23  13     1.089041320646   105.72875741   177.38237216
 H     36  23  13     1.095303203647   111.63562571   296.02640811
 H     37  25  24     0.971165925998   106.01494190    51.00781434
 H     38  17   8     0.971077760277   108.18588952   297.11344673
 H     39  18   9     0.972077539475   108.70182000   312.09603156
 H     41  31  30     0.969777474744   107.89187262     0.03615948
 H     42  40  30     1.093907306220   111.03466984   301.95534521
 H     42  40  30     1.092852916277   111.78247915    64.37372234
 H     42  40  30     1.088035871492   105.61145116   182.61762251

---------------------------
INTERNAL COORDINATES (A.U.)
---------------------------
 C      0   0   0     0.000000000000     0.00000000     0.00000000
 C      1   0   0     2.646008969477     0.00000000     0.00000000
 C      2   1   0     2.646341615362   119.75983069     0.00000000
 C      3   2   1     2.625207728196   119.63455418   358.72815543
 C      4   3   2     2.617529947791   120.55322197     0.65927806
 C      1   2   3     2.620423009196   119.61548324     1.07382451
 C      5   4   3     2.840134078547   121.18300452   180.89456633
 C      7   5   4     2.911655267160   111.20271400   105.80317148
 C      8   7   5     2.927719223668   111.51063205   160.01418064
 C      9   8   7     2.905375164802   111.62975969   217.86673113
 C     10   9   8     2.841758468704   114.91575785    51.87276201
 C     11  10   9     2.633630047525   121.48983028    42.43474465
 C     12  11  10     2.611720289649   120.87461563   180.07813777
 C     13  12  11     2.652728987270   120.01085631   358.65206880
 C     14  13  12     2.613246966468   119.19049370     0.27518828
 C     15  14  13     2.618738002171   120.22649116     0.84964080
 C      8   7   5     2.900648596337   108.40284178   288.02821751
 C      9   8   7     2.912943727673   114.92903334    92.86794633
 O      3   2   1     2.577591449776   115.73786680   178.44125310
 O      1   2   3     2.577672246348   115.66126298   181.18718365
 O      2   1   3     2.602896888375   118.65051059   176.03212005
 O     14  13  12     2.573703574079   120.39123687   180.43547653
 O     13  12  11     2.611110621341   125.45579208   178.63478091
 C     21   2   1     2.700266982761   116.82968979   117.26061807
 C     24  21   2     2.923562750354   109.31649165   277.28765261
 C     25  24  21     2.871972940118   111.28341132    69.81249817
 C     24  21   2     2.894282984295   105.43129190   157.08137582
 O     27  24  21     2.649597538661   111.11546311   294.25090379
 C     26  25  24     2.627553012883   118.68611862   228.16620380
 C     29  26  25     2.611074508456   120.81852390   176.14198824
 C     30  29  26     2.648871234049   119.51938958     0.18948369
 C     31  30  29     2.613467369132   119.55351569     3.30247488
 C     32  31  30     2.616344652042   120.35308918   356.79494366
 C     20   1   2     2.659551130581   117.96746990   176.54462180
 C     19   3   2     2.658698768491   118.83644937   180.56303582
 C     23  13  12     2.655014423470   118.18370968     4.59136377
 O     25  24  21     2.651763677189   108.92801514   305.81026232
 O     17   8   7     2.659559017940   113.81148848   174.97936993
 O     18   9   8     2.644081651411   115.11446237    81.38684415
 O     30  29  26     2.598208972987   125.43695849   180.44631446
 O     31  30  29     2.584395404661   120.07899922   182.28316051
 C     40  30  29     2.662855983670   118.00162849   346.70125150
 H      4   3   2     2.036949332270   120.39642404   179.93050206
 H      6   1   2     2.036915439922   120.56964772   179.07114926
 H      7   5   4     2.061960974171   110.43428199   343.78778889
 H      7   5   4     2.063670055939   108.52941765   225.77156314
 H      8   7   5     2.070600800708   107.30094077    43.04135037
 H      9   8   7     2.069279921453   107.12306433   336.20764161
 H     10   9   8     2.068566862781   107.82581219   173.54939306
 H     10   9   8     2.060840779924   108.97849258   289.29886668
 H     12  11  10     2.036503358406   119.24550422     0.09924930
 H     15  14  13     2.037143949590   118.65688705   180.97672340
 H     16  15  14     2.040992880116   119.40774516   180.24455365
 H     17   8   7     2.065973346465   110.96771013   294.68282369
 H     17   8   7     2.075369923034   107.64002373    52.44707528
 H     18   9   8     2.083162002273   109.07296301   315.84536525
 H     18   9   8     2.069447013800   108.65025664   199.09252889
 H     22  14  13     1.826512727134   107.73241676     3.14120473
 H     24  21   2     2.065816622936   110.43686266    39.60054241
 H     25  24  21     2.073419020394   108.64730456   190.39803981
 H     27  24  21     2.076079983433   108.62487912    56.54605063
 H     27  24  21     2.063074337763   110.15046349   175.94437278
 H     28  27  24     1.825480144666   106.94577883    44.60193926
 H     29  26  25     2.036619332614   118.29254045   356.22109740
 H     32  31  30     2.037693417339   118.90790543   176.04810927
 H     33  32  31     2.038320739962   118.95356171   179.41404303
 H     34  20   1     2.067755892115   111.42418401   298.70797199
 H     34  20   1     2.067386170620   111.65623436    61.17318535
 H     34  20   1     2.058474347465   105.70975342   180.36511956
 H     35  19   3     2.067783795710   111.49720507    61.13810958
 H     35  19   3     2.057498796598   105.36361807   179.69457217
 H     35  19   3     2.068446616872   111.54754019   298.34479314
 H     36  23  13     2.067617634649   111.46826613    58.68361771
 H     36  23  13     2.057989844544   105.72875741   177.38237216
 H     36  23  13     2.069823088500   111.63562571   296.02640811
 H     37  25  24     1.835237630733   106.01494190    51.00781434
 H     38  17   8     1.835071021665   108.18588952   297.11344673
 H     39  18   9     1.836960330544   108.70182000   312.09603156
 H     41  31  30     1.832613838113   107.89187262     0.03615948
 H     42  40  30     2.067185224652   111.03466984   301.95534521
 H     42  40  30     2.065192716421   111.78247915    64.37372234
 H     42  40  30     2.056089821003   105.61145116   182.61762251

---------------------
BASIS SET INFORMATION
---------------------
There are 3 groups of distinct atoms

 Group   1 Type C   : 11s6p2d1f contracted to 5s3p2d1f pattern {62111/411/11/1}
 Group   2 Type O   : 11s6p2d1f contracted to 5s3p2d1f pattern {62111/411/11/1}
 Group   3 Type H   : 5s1p contracted to 3s1p pattern {311/1}

Atom   0C    basis set group =>   1
Atom   1C    basis set group =>   1
Atom   2C    basis set group =>   1
Atom   3C    basis set group =>   1
Atom   4C    basis set group =>   1
Atom   5C    basis set group =>   1
Atom   6C    basis set group =>   1
Atom   7C    basis set group =>   1
Atom   8C    basis set group =>   1
Atom   9C    basis set group =>   1
Atom  10C    basis set group =>   1
Atom  11C    basis set group =>   1
Atom  12C    basis set group =>   1
Atom  13C    basis set group =>   1
Atom  14C    basis set group =>   1
Atom  15C    basis set group =>   1
Atom  16C    basis set group =>   1
Atom  17C    basis set group =>   1
Atom  18O    basis set group =>   2
Atom  19O    basis set group =>   2
Atom  20O    basis set group =>   2
Atom  21O    basis set group =>   2
Atom  22O    basis set group =>   2
Atom  23C    basis set group =>   1
Atom  24C    basis set group =>   1
Atom  25C    basis set group =>   1
Atom  26C    basis set group =>   1
Atom  27O    basis set group =>   2
Atom  28C    basis set group =>   1
Atom  29C    basis set group =>   1
Atom  30C    basis set group =>   1
Atom  31C    basis set group =>   1
Atom  32C    basis set group =>   1
Atom  33C    basis set group =>   1
Atom  34C    basis set group =>   1
Atom  35C    basis set group =>   1
Atom  36O    basis set group =>   2
Atom  37O    basis set group =>   2
Atom  38O    basis set group =>   2
Atom  39O    basis set group =>   2
Atom  40O    basis set group =>   2
Atom  41C    basis set group =>   1
Atom  42H    basis set group =>   3
Atom  43H    basis set group =>   3
Atom  44H    basis set group =>   3
Atom  45H    basis set group =>   3
Atom  46H    basis set group =>   3
Atom  47H    basis set group =>   3
Atom  48H    basis set group =>   3
Atom  49H    basis set group =>   3
Atom  50H    basis set group =>   3
Atom  51H    basis set group =>   3
Atom  52H    basis set group =>   3
Atom  53H    basis set group =>   3
Atom  54H    basis set group =>   3
Atom  55H    basis set group =>   3
Atom  56H    basis set group =>   3
Atom  57H    basis set group =>   3
Atom  58H    basis set group =>   3
Atom  59H    basis set group =>   3
Atom  60H    basis set group =>   3
Atom  61H    basis set group =>   3
Atom  62H    basis set group =>   3
Atom  63H    basis set group =>   3
Atom  64H    basis set group =>   3
Atom  65H    basis set group =>   3
Atom  66H    basis set group =>   3
Atom  67H    basis set group =>   3
Atom  68H    basis set group =>   3
Atom  69H    basis set group =>   3
Atom  70H    basis set group =>   3
Atom  71H    basis set group =>   3
Atom  72H    basis set group =>   3
Atom  73H    basis set group =>   3
Atom  74H    basis set group =>   3
Atom  75H    basis set group =>   3
Atom  76H    basis set group =>   3
Atom  77H    basis set group =>   3
Atom  78H    basis set group =>   3
Atom  79H    basis set group =>   3
Atom  80H    basis set group =>   3
Atom  81H    basis set group =>   3
---------------------------------
AUXILIARY/J BASIS SET INFORMATION
---------------------------------
There are 3 groups of distinct atoms

 Group   1 Type C   : 12s5p4d2f1g contracted to 6s4p3d1f1g pattern {711111/2111/211/2/1}
 Group   2 Type O   : 12s5p4d2f1g contracted to 6s4p3d1f1g pattern {711111/2111/211/2/1}
 Group   3 Type H   : 5s2p1d contracted to 3s1p1d pattern {311/2/1}

Atom   0C    basis set group =>   1
Atom   1C    basis set group =>   1
Atom   2C    basis set group =>   1
Atom   3C    basis set group =>   1
Atom   4C    basis set group =>   1
Atom   5C    basis set group =>   1
Atom   6C    basis set group =>   1
Atom   7C    basis set group =>   1
Atom   8C    basis set group =>   1
Atom   9C    basis set group =>   1
Atom  10C    basis set group =>   1
Atom  11C    basis set group =>   1
Atom  12C    basis set group =>   1
Atom  13C    basis set group =>   1
Atom  14C    basis set group =>   1
Atom  15C    basis set group =>   1
Atom  16C    basis set group =>   1
Atom  17C    basis set group =>   1
Atom  18O    basis set group =>   2
Atom  19O    basis set group =>   2
Atom  20O    basis set group =>   2
Atom  21O    basis set group =>   2
Atom  22O    basis set group =>   2
Atom  23C    basis set group =>   1
Atom  24C    basis set group =>   1
Atom  25C    basis set group =>   1
Atom  26C    basis set group =>   1
Atom  27O    basis set group =>   2
Atom  28C    basis set group =>   1
Atom  29C    basis set group =>   1
Atom  30C    basis set group =>   1
Atom  31C    basis set group =>   1
Atom  32C    basis set group =>   1
Atom  33C    basis set group =>   1
Atom  34C    basis set group =>   1
Atom  35C    basis set group =>   1
Atom  36O    basis set group =>   2
Atom  37O    basis set group =>   2
Atom  38O    basis set group =>   2
Atom  39O    basis set group =>   2
Atom  40O    basis set group =>   2
Atom  41C    basis set group =>   1
Atom  42H    basis set group =>   3
Atom  43H    basis set group =>   3
Atom  44H    basis set group =>   3
Atom  45H    basis set group =>   3
Atom  46H    basis set group =>   3
Atom  47H    basis set group =>   3
Atom  48H    basis set group =>   3
Atom  49H    basis set group =>   3
Atom  50H    basis set group =>   3
Atom  51H    basis set group =>   3
Atom  52H    basis set group =>   3
Atom  53H    basis set group =>   3
Atom  54H    basis set group =>   3
Atom  55H    basis set group =>   3
Atom  56H    basis set group =>   3
Atom  57H    basis set group =>   3
Atom  58H    basis set group =>   3
Atom  59H    basis set group =>   3
Atom  60H    basis set group =>   3
Atom  61H    basis set group =>   3
Atom  62H    basis set group =>   3
Atom  63H    basis set group =>   3
Atom  64H    basis set group =>   3
Atom  65H    basis set group =>   3
Atom  66H    basis set group =>   3
Atom  67H    basis set group =>   3
Atom  68H    basis set group =>   3
Atom  69H    basis set group =>   3
Atom  70H    basis set group =>   3
Atom  71H    basis set group =>   3
Atom  72H    basis set group =>   3
Atom  73H    basis set group =>   3
Atom  74H    basis set group =>   3
Atom  75H    basis set group =>   3
Atom  76H    basis set group =>   3
Atom  77H    basis set group =>   3
Atom  78H    basis set group =>   3
Atom  79H    basis set group =>   3
Atom  80H    basis set group =>   3
Atom  81H    basis set group =>   3
--------------------------------------------------------------------------
WARNING: There was an error initializing an OpenFabrics device.

  Local host:   c08b01n06
  Local device: mlx5_0
--------------------------------------------------------------------------
--------------------------------------------------------------------------
WARNING: There is at least one non-excluded one OpenFabrics device found,
but there are no active ports detected (or Open MPI was unable to use
them).  This is most certainly not what you wanted.  Check your
cables, subnet manager configuration, etc.  The openib BTL will be
ignored for this job.

  Local host: c08b01n06
--------------------------------------------------------------------------
[c08b01n06:2844243] 60 more processes have sent help message help-mpi-btl-openib.txt / error in device init
[c08b01n06:2844243] Set MCA parameter "orte_base_help_aggregate" to 0 to see all help / error messages
[c08b01n06:2844243] 2 more processes have sent help message help-mpi-btl-openib.txt / no active ports found


           ************************************************************
           *        Program running with 64 parallel MPI-processes    *
           *              working on a common directory               *
           ************************************************************
------------------------------------------------------------------------------
                             ORCA STARTUP CALCULATIONS
                           -- RI-GTO INTEGRALS CHOSEN --
------------------------------------------------------------------------------
------------------------------------------------------------------------------
                   ___                                                        
                  /   \      - P O W E R E D   B Y -                         
                 /     \                                                     
                 |  |  |   _    _      __       _____    __    __             
                 |  |  |  | |  | |    /  \     |  _  \  |  |  /  |          
                  \  \/   | |  | |   /    \    | | | |  |  | /  /          
                 / \  \   | |__| |  /  /\  \   | |_| |  |  |/  /          
                |  |  |   |  __  | /  /__\  \  |    /   |      \           
                |  |  |   | |  | | |   __   |  |    \   |  |\   \          
                \     /   | |  | | |  |  |  |  | |\  \  |  | \   \       
                 \___/    |_|  |_| |__|  |__|  |_| \__\ |__|  \__/        
                                                                              
                      - O R C A' S   B I G   F R I E N D -                    
                                      &                                       
                       - I N T E G R A L  F E E D E R -                       
                                                                              
 v1 FN, 2020, v2 2021, v3 2022-2024                                           
------------------------------------------------------------------------------


----------------------
SHARK INTEGRAL PACKAGE
----------------------

Number of atoms                             ...     82
Number of basis functions                   ...   1542
Number of shells                            ...    622
Maximum angular momentum                    ...      3
Integral batch strategy                     ... SHARK/LIBINT Hybrid
RI-J (if used) integral strategy            ... SPLIT-RIJ (Revised 2003 algorithm where possible)
Printlevel                                  ...      1
Contraction scheme used                     ... SEGMENTED contraction
Prescreening option                         ... SCHWARTZ
   Thresh                                   ... 2.500e-11
   Tcut                                     ... 2.500e-12
   Tpresel                                  ... 2.500e-12 
Coulomb Range Separation                    ... NOT USED
Exchange Range Separation                   ... NOT USED
Multipole approximations                    ... NOT USED
Finite Nucleus Model                        ... NOT USED
CABS basis                                  ... NOT available
Auxiliary Coulomb fitting basis             ... AVAILABLE
   # of basis functions in Aux-J            ...   2498
   # of shells in Aux-J                     ...    830
   Maximum angular momentum in Aux-J        ...      4
Auxiliary J/K fitting basis                 ... NOT available
Auxiliary Correlation fitting basis         ... NOT available
Auxiliary 'external' fitting basis          ... NOT available

Checking pre-screening integrals            ... done (  0.3 sec) Dimension = 622
   => SHARK Basis and OBASIS are compatible. Storing Pre-screening
Shell pair information
Shell pair cut-off parameter TPreSel        ...   2.5e-12
Total number of shell pairs                 ...    193753
Shell pairs after pre-screening             ...    117825
Total number of primitive shell pairs       ...    584784
Primitive shell pairs kept                  ...    222299
          la=0 lb=0:  32827 shell pairs
          la=1 lb=0:  35124 shell pairs
          la=1 lb=1:   9513 shell pairs
          la=2 lb=0:  15969 shell pairs
          la=2 lb=1:   8776 shell pairs
          la=2 lb=2:   2019 shell pairs
          la=3 lb=0:   7299 shell pairs
          la=3 lb=1:   4089 shell pairs
          la=3 lb=2:   1777 shell pairs
          la=3 lb=3:    432 shell pairs

Checking whether 4 symmetric matrices of dimension 1542 fit in memory
:Max Core in MB      =   6000.00
 MB in use           =    141.11
 MB left             =   5858.89
 MB needed           =     36.31
 Data fit in memory  = YES
Calculating RI/J V-Matrix + Cholesky decomp.... done (  5.5 sec)
Calculating Nuclear repulsion               ... done (  0.0 sec) ENN=   5807.872596015018 Eh

Diagonalization of the overlap matrix:
Smallest eigenvalue                        ... 2.960e-06
Time for diagonalization                   ...   25.454 sec
Threshold for overlap eigenvalues          ... 1.000e-07
Number of eigenvalues below threshold      ... 0
Time for construction of square roots      ...    2.179 sec
Total time needed                          ...   27.957 sec

-------------------
DFT GRID GENERATION
-------------------

General Integration Accuracy     IntAcc      ... 4.388
Radial Grid Type                 RadialGrid  ... OptM3 with GC (2021)
Angular Grid (max. ang.)         AngularGrid ... 4 (Lebedev-302)
Angular grid pruning method      GridPruning ... 4 (adaptive)
Weight generation scheme         WeightScheme... mBecke (2022)
Basis function cutoff            BFCut       ... 1.0000e-11
Integration weight cutoff        WCut        ... 1.0000e-14
Partially contracted basis set               ... off
Rotationally invariant grid construction     ... off
Angular grids for H and He will be reduced by one unit

Total number of grid points                  ...   373283
Total number of batches                      ...     5869
Average number of points per batch           ...       63
Average number of grid points per atom       ...     4552

--------------------
COSX GRID GENERATION
--------------------

GRIDX 1
-------
General Integration Accuracy     IntAcc      ... 3.816
Radial Grid Type                 RadialGrid  ... OptM3 with GC (2021)
Angular Grid (max. ang.)         AngularGrid ... 1 (Lebedev-50)
Angular grid pruning method      GridPruning ... 4 (adaptive)
Weight generation scheme         WeightScheme... mBecke (2022)
Basis function cutoff            BFCut       ... 1.0000e-11
Integration weight cutoff        WCut        ... 1.0000e-14
Partially contracted basis set               ... on
Rotationally invariant grid construction     ... off
Angular grids for H and He will be reduced by one unit

Total number of grid points                  ...    47234
Total number of batches                      ...      413
Average number of points per batch           ...      114
Average number of grid points per atom       ...      576
UseSFitting                                  ... on

GRIDX 2
-------
General Integration Accuracy     IntAcc      ... 4.020
Radial Grid Type                 RadialGrid  ... OptM3 with GC (2021)
Angular Grid (max. ang.)         AngularGrid ... 2 (Lebedev-110)
Angular grid pruning method      GridPruning ... 4 (adaptive)
Weight generation scheme         WeightScheme... mBecke (2022)
[...]
freq.     648.46  E(vib)   ...       0.08 
freq.     659.59  E(vib)   ...       0.08 
freq.     667.62  E(vib)   ...       0.08 
freq.     689.70  E(vib)   ...       0.07 
freq.     726.30  E(vib)   ...       0.06 
freq.     737.88  E(vib)   ...       0.06 
freq.     743.97  E(vib)   ...       0.06 
freq.     756.01  E(vib)   ...       0.06 
freq.     760.80  E(vib)   ...       0.06 
freq.     770.16  E(vib)   ...       0.05 
freq.     780.69  E(vib)   ...       0.05 
freq.     803.52  E(vib)   ...       0.05 
freq.     815.91  E(vib)   ...       0.05 
freq.     816.09  E(vib)   ...       0.05 
freq.     831.98  E(vib)   ...       0.04 
freq.     838.23  E(vib)   ...       0.04 
freq.     854.91  E(vib)   ...       0.04 
freq.     857.41  E(vib)   ...       0.04 
freq.     875.85  E(vib)   ...       0.04 
freq.     883.90  E(vib)   ...       0.04 
freq.     886.57  E(vib)   ...       0.04 
freq.     903.56  E(vib)   ...       0.03 
freq.     907.91  E(vib)   ...       0.03 
freq.     917.94  E(vib)   ...       0.03 
freq.     930.24  E(vib)   ...       0.03 
freq.     931.05  E(vib)   ...       0.03 
freq.     949.00  E(vib)   ...       0.03 
freq.     956.85  E(vib)   ...       0.03 
freq.     958.48  E(vib)   ...       0.03 
freq.     972.46  E(vib)   ...       0.03 
freq.     985.22  E(vib)   ...       0.02 
freq.     996.52  E(vib)   ...       0.02 
freq.    1015.23  E(vib)   ...       0.02 
freq.    1024.47  E(vib)   ...       0.02 
freq.    1039.94  E(vib)   ...       0.02 
freq.    1048.00  E(vib)   ...       0.02 
freq.    1048.90  E(vib)   ...       0.02 
freq.    1055.93  E(vib)   ...       0.02 
freq.    1060.42  E(vib)   ...       0.02 
freq.    1065.85  E(vib)   ...       0.02 
freq.    1089.70  E(vib)   ...       0.02 
freq.    1092.33  E(vib)   ...       0.02 
freq.    1112.64  E(vib)   ...       0.01 
freq.    1116.53  E(vib)   ...       0.01 
freq.    1137.46  E(vib)   ...       0.01 
freq.    1142.85  E(vib)   ...       0.01 
freq.    1145.72  E(vib)   ...       0.01 
freq.    1150.54  E(vib)   ...       0.01 
freq.    1165.84  E(vib)   ...       0.01 
freq.    1170.52  E(vib)   ...       0.01 
freq.    1171.13  E(vib)   ...       0.01 
freq.    1171.21  E(vib)   ...       0.01 
freq.    1172.23  E(vib)   ...       0.01 
freq.    1172.72  E(vib)   ...       0.01 
freq.    1180.80  E(vib)   ...       0.01 
freq.    1181.79  E(vib)   ...       0.01 
freq.    1198.88  E(vib)   ...       0.01 
freq.    1199.27  E(vib)   ...       0.01 
freq.    1207.87  E(vib)   ...       0.01 
freq.    1213.88  E(vib)   ...       0.01 
freq.    1218.18  E(vib)   ...       0.01 
freq.    1222.09  E(vib)   ...       0.01 
freq.    1226.14  E(vib)   ...       0.01 
freq.    1227.64  E(vib)   ...       0.01 
freq.    1239.08  E(vib)   ...       0.01 
freq.    1242.94  E(vib)   ...       0.01 
freq.    1246.67  E(vib)   ...       0.01 
freq.    1249.85  E(vib)   ...       0.01 
freq.    1263.49  E(vib)   ...       0.01 
freq.    1273.83  E(vib)   ...       0.01 
freq.    1277.34  E(vib)   ...       0.01 
freq.    1290.31  E(vib)   ...       0.01 
freq.    1290.98  E(vib)   ...       0.01 
freq.    1296.34  E(vib)   ...       0.01 
freq.    1297.73  E(vib)   ...       0.01 
freq.    1308.29  E(vib)   ...       0.01 
freq.    1320.60  E(vib)   ...       0.01 
freq.    1326.44  E(vib)   ...       0.01 
freq.    1340.00  E(vib)   ...       0.01 
freq.    1343.75  E(vib)   ...       0.01 
freq.    1346.88  E(vib)   ...       0.01 
freq.    1358.82  E(vib)   ...       0.01 
freq.    1362.46  E(vib)   ...       0.01 
freq.    1364.32  E(vib)   ...       0.01 
freq.    1373.06  E(vib)   ...       0.01 
freq.    1384.12  E(vib)   ...       0.00 
freq.    1390.59  E(vib)   ...       0.00 
freq.    1395.20  E(vib)   ...       0.00 
freq.    1396.59  E(vib)   ...       0.00 
freq.    1407.78  E(vib)   ...       0.00 
freq.    1417.34  E(vib)   ...       0.00 
freq.    1426.70  E(vib)   ...       0.00 
freq.    1430.48  E(vib)   ...       0.00 
freq.    1434.67  E(vib)   ...       0.00 
freq.    1452.88  E(vib)   ...       0.00 
freq.    1455.43  E(vib)   ...       0.00 
freq.    1457.64  E(vib)   ...       0.00 
freq.    1460.62  E(vib)   ...       0.00 
freq.    1474.72  E(vib)   ...       0.00 
freq.    1477.41  E(vib)   ...       0.00 
freq.    1480.08  E(vib)   ...       0.00 
freq.    1480.49  E(vib)   ...       0.00 
freq.    1480.64  E(vib)   ...       0.00 
freq.    1480.72  E(vib)   ...       0.00 
freq.    1484.31  E(vib)   ...       0.00 
freq.    1484.88  E(vib)   ...       0.00 
freq.    1486.44  E(vib)   ...       0.00 
freq.    1490.50  E(vib)   ...       0.00 
freq.    1490.87  E(vib)   ...       0.00 
freq.    1491.61  E(vib)   ...       0.00 
freq.    1492.01  E(vib)   ...       0.00 
freq.    1492.22  E(vib)   ...       0.00 
freq.    1503.28  E(vib)   ...       0.00 
freq.    1504.59  E(vib)   ...       0.00 
freq.    1515.35  E(vib)   ...       0.00 
freq.    1536.47  E(vib)   ...       0.00 
freq.    1544.18  E(vib)   ...       0.00 
freq.    1544.76  E(vib)   ...       0.00 
freq.    1628.35  E(vib)   ...       0.00 
freq.    1636.70  E(vib)   ...       0.00 
freq.    1641.04  E(vib)   ...       0.00 
freq.    1644.20  E(vib)   ...       0.00 
freq.    1649.04  E(vib)   ...       0.00 
freq.    1649.86  E(vib)   ...       0.00 
freq.    2980.74  E(vib)   ...       0.00 
freq.    2998.74  E(vib)   ...       0.00 
freq.    3018.80  E(vib)   ...       0.00 
freq.    3020.38  E(vib)   ...       0.00 
freq.    3021.20  E(vib)   ...       0.00 
freq.    3023.31  E(vib)   ...       0.00 
freq.    3024.37  E(vib)   ...       0.00 
freq.    3028.44  E(vib)   ...       0.00 
freq.    3029.83  E(vib)   ...       0.00 
freq.    3033.46  E(vib)   ...       0.00 
freq.    3039.21  E(vib)   ...       0.00 
freq.    3046.21  E(vib)   ...       0.00 
freq.    3048.19  E(vib)   ...       0.00 
freq.    3072.06  E(vib)   ...       0.00 
freq.    3082.38  E(vib)   ...       0.00 
freq.    3083.75  E(vib)   ...       0.00 
freq.    3085.07  E(vib)   ...       0.00 
freq.    3086.52  E(vib)   ...       0.00 
freq.    3088.65  E(vib)   ...       0.00 
freq.    3093.90  E(vib)   ...       0.00 
freq.    3099.95  E(vib)   ...       0.00 
freq.    3100.44  E(vib)   ...       0.00 
freq.    3138.79  E(vib)   ...       0.00 
freq.    3142.17  E(vib)   ...       0.00 
freq.    3144.82  E(vib)   ...       0.00 
freq.    3157.56  E(vib)   ...       0.00 
freq.    3163.07  E(vib)   ...       0.00 
freq.    3184.67  E(vib)   ...       0.00 
freq.    3188.34  E(vib)   ...       0.00 
freq.    3198.54  E(vib)   ...       0.00 
freq.    3210.61  E(vib)   ...       0.00 
freq.    3218.39  E(vib)   ...       0.00 
freq.    3221.03  E(vib)   ...       0.00 
freq.    3232.34  E(vib)   ...       0.00 
freq.    3540.79  E(vib)   ...       0.00 
freq.    3607.28  E(vib)   ...       0.00 
freq.    3638.28  E(vib)   ...       0.00 
freq.    3691.40  E(vib)   ...       0.00 
freq.    3724.73  E(vib)   ...       0.00 
freq.    3751.62  E(vib)   ...       0.00 

------------
INNER ENERGY
------------

The inner energy is: U= E(el) + E(ZPE) + E(vib) + E(rot) + E(trans)
    E(el)   - is the total energy from the electronic structure calculation
              = E(kin-el) + E(nuc-el) + E(el-el) + E(nuc-nuc)
    E(ZPE)  - the the zero temperature vibrational energy from the frequency calculation
    E(vib)  - the the finite temperature correction to E(ZPE) due to population
              of excited vibrational states
    E(rot)  - is the rotational thermal energy
    E(trans)- is the translational thermal energy

Summary of contributions to the inner energy U:
Electronic energy                ...  -2032.63935499 Eh
Zero point energy                ...      0.68037032 Eh     426.94 kcal/mol
Thermal vibrational correction   ...      0.03952722 Eh      24.80 kcal/mol
Thermal rotational correction    ...      0.00141627 Eh       0.89 kcal/mol
Thermal translational correction ...      0.00141627 Eh       0.89 kcal/mol
-----------------------------------------------------------------------
Total thermal energy                  -2031.91662490 Eh


Summary of corrections to the electronic energy:
(perhaps to be used in another calculation)
Total thermal correction                  0.04235977 Eh      26.58 kcal/mol
Non-thermal (ZPE) correction              0.68037032 Eh     426.94 kcal/mol
-----------------------------------------------------------------------
Total correction                          0.72273009 Eh     453.52 kcal/mol


--------
ENTHALPY
--------

The enthalpy is H = U + kB*T
                kB is Boltzmann's constant
Total thermal energy              ...  -2031.91662490 Eh 
Thermal Enthalpy correction       ...      0.00094421 Eh       0.59 kcal/mol
-----------------------------------------------------------------------
Total Enthalpy                    ...  -2031.91568069 Eh


Note: Only C1 symmetry has been detected, increase convergence thresholds 
      if your molecule has a higher symmetry. Symmetry factor of 1.0 is   
      used for the rotational entropy correction. 
 

Note: Rotational entropy computed according to Herzberg 
Infrared and Raman Spectra, Chapter V,1, Van Nostrand Reinhold, 1945 
Point Group:  C1, Symmetry Number:   1  
Rotational constants in cm-1:     0.003896     0.002311     0.001936 

Vibrational entropy computed according to the QRRHO of S. Grimme
Chem.Eur.J. 2012 18 9955 using a reference frequency of 100.0 cm-1


-------
ENTROPY
-------

The entropy contributions are T*S = T*(S(el)+S(vib)+S(rot)+S(trans))
     S(el)   - electronic entropy
     S(vib)  - vibrational entropy
     S(rot)  - rotational entropy
     S(trans)- translational entropy
The entropies will be listed as multiplied by the temperature to get
units of energy

Electronic entropy                ...      0.00000000 Eh      0.00 kcal/mol
Vibrational entropy               ...      0.07076381 Eh     44.40 kcal/mol
Rotational entropy                ...      0.01794475 Eh     11.26 kcal/mol
Translational entropy             ...      0.02138181 Eh     13.42 kcal/mol
-----------------------------------------------------------------------
Final entropy term                ...      0.11009037 Eh     69.08 kcal/mol

In case the symmetry of your molecule has not been determined correctly
or in case you have a reason to use a different symmetry number we print 
out the resulting rotational entropy values for sn=1,12:

 non-linear molecules -----------------------------------
|  sn= 1 | S(rot)=       0.01794475 Eh     11.26 kcal/mol|
|  sn= 2 | S(rot)=       0.01729029 Eh     10.85 kcal/mol|
|  sn= 3 | S(rot)=       0.01690746 Eh     10.61 kcal/mol|
|  sn= 4 | S(rot)=       0.01663584 Eh     10.44 kcal/mol|
|  sn= 5 | S(rot)=       0.01642515 Eh     10.31 kcal/mol|
|  sn= 6 | S(rot)=       0.01625300 Eh     10.20 kcal/mol|
|  sn= 7 | S(rot)=       0.01610746 Eh     10.11 kcal/mol|
|  sn= 8 | S(rot)=       0.01598138 Eh     10.03 kcal/mol|
|  sn= 9 | S(rot)=       0.01587017 Eh      9.96 kcal/mol|
|  sn=10 | S(rot)=       0.01577069 Eh      9.90 kcal/mol|
|  sn=11 | S(rot)=       0.01568070 Eh      9.84 kcal/mol|
|  sn=12 | S(rot)=       0.01559855 Eh      9.79 kcal/mol|
 linear molecules ---------------------------------------
|  Dinfh | S(rot)=       0.01122425 Eh      7.04 kcal/mol|
|  Cinfv | S(rot)=       0.01187870 Eh      7.45 kcal/mol|
 --------------------------------------------------------


-------------------
GIBBS FREE ENERGY
-------------------

The Gibbs free energy is G = H - T*S

Total enthalpy                    ...  -2031.91568069 Eh 
Total entropy correction          ...     -0.11009037 Eh    -69.08 kcal/mol
-----------------------------------------------------------------------
Final Gibbs free energy         ...  -2032.02577106 Eh

For completeness - the Gibbs free energy minus the electronic energy
G-E(el)                           ...      0.61358393 Eh    385.03 kcal/mol


Maximum memory used throughout the entire PROP-calculation: 1822.8 MB
--------------------------------------------------------------------------
WARNING: There was an error initializing an OpenFabrics device.

  Local host:   c08b01n06
  Local device: mlx5_0
--------------------------------------------------------------------------
--------------------------------------------------------------------------
WARNING: There is at least one non-excluded one OpenFabrics device found,
but there are no active ports detected (or Open MPI was unable to use
them).  This is most certainly not what you wanted.  Check your
cables, subnet manager configuration, etc.  The openib BTL will be
ignored for this job.

  Local host: c08b01n06
--------------------------------------------------------------------------
[c08b01n06:2914509] 60 more processes have sent help message help-mpi-btl-openib.txt / error in device init
[c08b01n06:2914509] Set MCA parameter "orte_base_help_aggregate" to 0 to see all help / error messages
[c08b01n06:2914509] 2 more processes have sent help message help-mpi-btl-openib.txt / no active ports found

--------------------------------
SUGGESTED CITATIONS FOR THIS RUN
--------------------------------

Below you find a list of papers that are relevant to this ORCA run
We neither can nor want to force you to cite these papers, but we appreciate if you do
You receive ORCA, which is the product of decades of hard work by many enthusiastic individuals, for free
The only thing we kindly ask in return is that you cite our papers,
We deeply appreciate it, if you show your appreciation for ORCA by not just citing the generic ORCA reference.

Please note that relegating all ORCA citations to the supporting information does *not* help us.
SI sections are not indexed - citations you put there will not count into any citation statistics
But we need these citations in order to attract the funding resources that allow us to do what we are doing

Therefore, if you are a happy ORCA user, please consider citing a few of the papers listed below in the main body of your paper

In addition to the list printed below, the program has created the file opt-conf-9.bibtex that contains the list in bibtex format
You can import this file easily into all common literature databanks and citation aid programs


List of essential papers. We consider these as the minimum necessary citations

  1. Neese, F.
     Software update: the ORCA program system, version 6.0
     WIRES Comput. Molec. Sci. 2025 15(1), e70019
     doi.org/10.1002/wcms.7019

List of papers to cite with high priority. The work reported in these papers was absolutely
necessary for this run to complete.
Our perspective: the developers of density functionals and basis sets usually get cited in chemistry papers
Good! But without the algorithms to do something with them, the functionals or basis sets would not do anything.
Hence, in our opinion, the algorithm design and method developments papers are equally worthy of getting cited

  1. Neese, F.
     An improvement of the resolution of the identity approximation for the formation of the Coulomb matrix
     J. Comp. Chem. 2003 24(14), 1740-1747
     doi.org/10.1002/jcc.10318
  2. Neese, F.; Wennmohs, F.; Hansen, A.; Becker, U.
     Efficient, approximate and parallel Hartree-Fock and hybrid DFT calculations. A 'chain-of-spheres' algorithm for the Hartree-Fock exchange
     Chem. Phys. 2009 356(1-3), 98-109
     doi.org/10.1016/j.chemphys.2008.10.036
  3. Bykov, D.; Petrenko, T.; Izsak, R.; Kossmann, S.; Becker, U.; Valeev, E.; Neese, F.
     Efficient implementation of the analytic second derivatives of Hartree-Fock and hybrid DFT energies: a detailed analysis of different approximations
     Molec. Phys. 2015 113 , 1961-1977
     doi.org/10.1080/00268976.2015.1025114
  4. Caldeweyher, E.; Bannwarth, C.; Grimme, S.
     Extension of the D3 dispersion coefficient model
     J. Chem. Phys. 2017 147 , 034112
     doi.org/10.1063/1.4993215
  5. Caldeweyher, E.; Ehlert, S.; Hansen, A.; Neugebauer, H.; Spicher, S.; Bannwarth, C.; Grimme, S.
     A generally applicable atomic-charge dependent London dispersion correction
     J. Chem. Phys. 2019 150 , 154122
     doi.org/10.1063/1.5090222
  6. Garcia-Rates, M.; Neese, F.
     Efficient implementation of the analytical second derivatives of hartree-fock and hybrid DFT energies within the framework of the conductor-like polarizable continuum model
     J. Comput. Chem. 2019 40 , 1816-1828
     doi.org/10.1002/jcc.25833
  7. Caldeweyher, E.; Mewes, J.; Ehlert, S.; Grimme, S.
     Extension and evaluation of the D4 London-dispersion model for periodic systems
     Phys. Chem. Chem. Phys. 2020 22(16), 8499-8512
     doi.org/10.1039/D0CP00502A
  8. Garcia-Rates, M.; Neese, F.
     Effect of the Solute Cavity on the Solvation Energy and its Derivatives within the Framework of the Gaussian Charge Scheme
     J. Comput. Chem. 2020 41 , 922-939
     doi.org/10.1002/jcc.26139
  9. Helmich-Paris, B.; de Souza, B.; Neese, F.; Izsák, R.
     An improved chain of spheres for exchange algorithm
     J. Chem. Phys. 2021 155(10), 104109
     doi.org/10.1063/5.0058766
 10. Neese, F.
     The SHARK Integral Generation and Digestion System
     J. Comp. Chem. 2022 44(3), 381
     doi.org/10.1002/jcc.26942
 11. Wittmann, L.; Gordiy, I.; Friede, M.; Helmich-Paris, B.; Grimme, S.; Hansen, A.; Bursch, M.
     Extension of the D3 and D4 London Dispersion Corrections to the full Actinides Series
     Phys. Chem. Chem. Phys. 2024 26(32), 21379-21394
     doi.org/10.1039/D4CP01514B

List of suggested additional citations. These are papers that are important in the 'surrounding' of 
of this run, or papers that preceded the highly important papers. If you like your results we are grateful for a citation.

  1. Izsak, R.; Neese, F.
     An overlap fitted chain of spheres exchange method
     J. Chem. Phys. 2011 135 , 144105
     doi.org/10.1063/1.3646921
  2. Izsak, R.; Hansen, A.; Neese, F.
     The resolution of identity and chain of spheres approximations for the LPNO-CCSD singles Fock term
     Molec. Phys. 2012 110 , 2413-2417
     doi.org/10.1080/00268976.2012.687466
  3. Neese, F.
     The ORCA program system
     WIRES Comput. Molec. Sci. 2012 2(1), 73-78
     doi.org/10.1002/wcms.81
  4. Izsak, R.; Neese, F.; Klopper, W.
     Robust fitting techniques in the chain of spheres approximation to the Fock exchange: The role of the complementary space
     J. Chem. Phys. 2013 139 , 
     doi.org/10.1063/1.4819264
  5. Neese, F.
     Software update: the ORCA program system, version 4.0
     WIRES Comput. Molec. Sci. 2018 8(1), 1-6
     doi.org/10.1002/wcms.1327
  6. Neese, F.; Wennmohs, F.; Becker, U.; Riplinger, C.
     The ORCA quantum chemistry program package
     J. Chem. Phys. 2020 152(22), 224108
     doi.org/10.1063/5.0004608
  7. Neese, F.
     Software update: The ORCA program system—Version 5.0
     WIRES Comput. Molec. Sci. 2022 12(1), e1606
     doi.org/10.1002/wcms.1606

List of optional additional citations

  1. Neese, F.
     Approximate second-order SCF convergence for spin unrestricted wavefunctions
     Chem. Phys. Lett. 2000 325(1-3), 93-98
     doi.org/10.1016/s0009-2614(00)00662-x

Timings for individual modules:

Sum of individual times          ...    18164.948 sec (= 302.749 min)
Startup calculation              ...     1501.308 sec (=  25.022 min)   8.3 %
SCF iterations                   ...     9774.339 sec (= 162.906 min)  53.8 %
Property integrals               ...     1628.539 sec (=  27.142 min)   9.0 %
SCF Response                     ...     3438.165 sec (=  57.303 min)  18.9 %
Property calculations            ...      751.219 sec (=  12.520 min)   4.1 %
SCF Gradient evaluation          ...     1057.876 sec (=  17.631 min)   5.8 %
Geometry relaxation              ...       13.504 sec (=   0.225 min)   0.1 %
                             ****ORCA TERMINATED NORMALLY****
TOTAL RUN TIME: 0 days 5 hours 9 minutes 0 seconds 367 msec
