
                                 *****************
                                 * O   R   C   A *
                                 *****************

                                            #,                                       
                                            ###                                      
                                            ####                                     
                                            #####                                    
                                            ######                                   
                                           ########,                                 
                                     ,,################,,,,,                         
                               ,,#################################,,                 
                          ,,##########################################,,             
                       ,#########################################, ''#####,          
                    ,#############################################,,   '####,        
                  ,##################################################,,,,####,       
                ,###########''''           ''''###############################       
              ,#####''   ,,,,##########,,,,          '''####'''          '####       
            ,##' ,,,,###########################,,,                        '##       
           ' ,,###''''                  '''############,,,                           
         ,,##''                                '''############,,,,        ,,,,,,###''
      ,#''                                            '''#######################'''  
     '                                                          ''''####''''         
             ,#######,   #######,   ,#######,      ##                                
            ,#'     '#,  ##    ##  ,#'     '#,    #''#        ,####,    ,#,          
            ##       ##  ##   ,#'  ##            #'  '#       #'       ,# #          
            ##       ##  #######   ##           ,######,      #####,      #          
            '#,     ,#'  ##    ##  '#,     ,#' ,#      #,     #,   #      #          
             '#######'   ##     ##  '#######'  #'      '#     '####' #    #          



                #########################################################
                #                        -***-                          #
                #          Department of theory and spectroscopy        #
                #                                                       #
                #                      Frank Neese                      #
                #                                                       #
                #     Directorship, Architecture, Infrastructure        #
                #                    SHARK, DRIVERS                     #
                #        Core code/Algorithms in most modules           #
                #                                                       #
                #        Max Planck Institute fuer Kohlenforschung      #
                #                Kaiser Wilhelm Platz 1                 #
                #                 D-45470 Muelheim/Ruhr                 #
                #                      Germany                          #
                #                                                       #
                #                  All rights reserved                  #
                #                        -***-                          #
                #########################################################


                         Program Version 6.1.0-f.0  -   RELEASE   -


 With contributions from (in alphabetic order):
[Max-Planck-Institut fuer Kohlenforschung]                               
  Daniel Aravena         : Magnetic Suceptibility                        
  Michael Atanasov       : Ab Initio Ligand Field Theory (pilot matlab implementation)
  Alexander A. Auer      : GIAO ZORA, VPT2 properties, NMR spectrum      
  Ute Becker             : All parallelization in ORCA, NUMFREQ, NUMCALC 
  Giovanni Bistoni       : ED, misc. LED, open-shell LED, HFLD           
  Dmytro Bykov           : pre 5.0 version of the SCF Hessian            
  Marcos Casanova-Páez   : Triplet and SCS-CIS(D). UHF-(DLPNO)-IP/EA/STEOM-CCSD. UHF-CVS-IP/STEOM-CCSD   
  Vijay G. Chilkuri      : MRCI spin determinant printing, contributions to CSF-ICE 
  Pauline Colinet        : FMM embedding                                 
  Dipayan Datta          : RHF DLPNO-CCSD density                        
  Achintya Kumar Dutta   : EOM-CC, STEOM-CC                              
  Nicolas Foglia         : Exact transition moments, OPA infrastructure, MCD improvements    
  Dmitry Ganyushin       : Spin-Orbit,Spin-Spin,Magnetic field MRCI      
  Miquel Garcia-Rates    : C-PCM and meta-GGA Hessian, CCSD/C-PCM, Gaussian charge scheme 
  Tiago L. C. Gouveia    : GS-ROHF, GS-ROCIS                             
  Yang Guo               : DLPNO-NEVPT2, F12-NEVPT2, CIM, IAO-localization        
  Andreas Hansen         : Spin unrestricted coupled pair/coupled cluster methods 
  Ingolf Harden          : AUTO-CI MPn and infrastructure                
  Benjamin Helmich-Paris : MC-RPA, TRAH-(SCF,CASSCF), AVAS, COSX integrals, SCF dyn. polar., MC-PDFT, srDFT 
  Lee Huntington         : MR-EOM, pCC                                   
  Robert Izsak           : Overlap fitted RIJCOSX, COSX-SCS-MP3, EOM     
  Riya Kayal             : Wick's Theorem for AUTO-CI, AUTO-CI UHF-CCSDT 
  Emily Kempfer          : AUTO-CI RHF CISDT and CCSDT, approximate NEVPT4
  Christian Kollmar      : KDIIS, OOCD, Brueckner-CCSD(T), CCSD density, CASPT2, CASPT2-K, improved NEVPT2 
  Axel Koslowski         : Symmetry handling                             
  Simone Kossmann        : meta-GGA functionals, TD-DFT gradient, OOMP2, (MP2 Hessian; deprecated post 5.0) 
  Lucas Lang             : DCDCAS, Hyperfine gauge corrections, ICE-SOC+SSC
  Marvin Lechner         : AUTO-CI (C++ implementation), FIC-MRCC        
  Spencer Leger          : CASSCF response                               
  Dagmar Lenk            : GEPOL surface, SMD, ORCA-2-JSON               
  Dimitrios Liakos       : Extrapolation schemes; Compound Job, Property file
  Dimitrios Manganas     : Further ROCIS development; embedding schemes. LFT, Crystal Embedding 
  Dimitrios Pantazis     : SARC Basis sets                               
  Anastasios Papadopoulos: AUTO-CI, single reference methods and gradients 
  Taras Petrenko         : pre 6.0 DFT Hessian and TD-DFT gradient,  ECA, NRVS 
  Petra Pikulova         : Analytic Raman intensities                    
  Peter Pinski           : DLPNO-MP2, DLPNO-MP2 Gradient                 
  Shashank Vittal Rao    : ES-AILFT, MagRelax                            
  Christoph Reimann      : Effective Core Potentials                     
  Marius Retegan         : Local ZFS, SOC                                
  Christoph Riplinger    : Optimizer, TS searches, QM/MM, DLPNO-CCSD(T), (RO)-DLPNO pert. Triples 
  Michael Roemelt        : Original ROCIS implementation, recursive CI coupling coefficients
  Masaaki Saitow         : Open-shell DLPNO-CCSD energy and density      
  Barbara Sandhoefer     : DKH picture change effects                    
  Yorick L. A. Schmerwitz: GMF and freeze-and-release deltaSCF, NEB S-IDPP initial path                    
  Kantharuban Sivalingam : CASSCF convergence/infrastructure, NEVPT2, NEVPT3, NEVPT4(SD), FIC-MRCI and CEPA variants
  Bernardo de Souza      : ESD, SOC TD-DFT                               
  Georgi L. Stoychev     : AutoAux, RI-MP2 NMR, DLPNO-MP2 response, X2C  
  Van Anh Tran           : RI-MP2 g-tensors                              
  Willem Van den Heuvel  : Paramagnetic NMR                              
  Zikuan Wang            : NOTCH, Electric field optimization            
  Frank Wennmohs         : Technical directorship and infrastructure     
  Hang Xu                : AUTO-CI-Response properties                   
                                                                         
[FACCTs GmbH]                                                            
  Markus Bursch, Nicolas Foglia, Miquel Garcia-Rates, Ingolf Harden, Hagen Neugebauer, Anastasios Papadopoulos, 
  Christoph Riplinger, Bernardo de Souza, Georgi L. Stoychev                                                    
                                                                 
  APM, various basis sets, CI-OPT, improved COSX, DLPNO-Multilevel,           
  DOCKER, DRACO, updates on ESD, Fragmentator, GOAT, IRC, LR-CPCM, L-BFGS, MBIS, meta-GGA TD-DFT gradient, ML-optimized integration grids, 
  MM, NACMEs, nearIR, NEB, NEB-TS, NL-DFT gradient (VV10), 2- and 3-layer-ONIOM, interface openCOSMO-RS, QMMM,   
  Crystal-QMMM, RESP, rigid body optimization, SF, symmetry and pop. for TD-DFT, various functionals, SOLVATOR                                   
                                                                         
[Other institutions]                                                     
  V. Asgeirsson          : NEB                                           
  Christoph Bannwarth    : sTDA-DFT, sTD-DFT, PBEh-3c, B97-3c, D3        
  Giovanni Bistoni       : ETS/NOCV, ADLD/ADEX, COVALED                  
  Martin Brehm           : Molecular dynamics                            
  Ronald Cardenas        : ETS/NOCV                                      
  Martina Colucci        : COVALED                                       
  Sebastian Ehlert       : rSCAN, r2SCAN, r2SCAN-3c, D4, dhf basis sets  
  Marvin Friede          : D4 for Fr, Ra, Ac-Lr                          
  Lars Goerigk           : TD-DFT with DH, B97 family of functionals     
  Stefan Grimme          : VdW corrections, initial TS optimization, DFT functionals, gCP, sTDA/sTD-DF 
  Waldemar Hujo          : DFT-NL                                        
  H. Jonsson             : NEB                                           
  Holger Kruse           : gCP                                           
  Marcel Mueller         : wB97X-3c, vDZP basis set                      
  Hagen Neugebauer       : wr2SCAN, Native XTB                           
  Gianluca Regni         : ADLD/ADEX                                     
  Tobias Risthaus        : pre 6.0 range-separated hybrid DFT and stability analysis
  Lukas Wittmann         : regularized MP2, r2SCAN double-hybrids, wr2SCAN        
                                                                         
We gratefully acknowledge several colleagues who have allowed us to      
interface, adapt or use parts of their codes:                            
  Ed Valeev, F. Pavosevic, A. Kumar             : LibInt (2-el integral package), F12 methods 
  Garnet Chan, S. Sharma, J. Yang, R. Olivares  : DMRG                   
  Ulf Ekstrom                                   : XCFun DFT Library      
  Mihaly Kallay                                 : mrcc  (arbitrary order and MRCC methods)
  Frank Weinhold                                : gennbo (NPA and NBO analysis)           
  Simon Mueller                                 : openCOSMO-RS                            
  Christopher J. Cramer and Donald G. Truhlar   : smd solvation model                     
  S Lehtola, MJT Oliveira, MAL Marques          : LibXC Library                           
  Liviu Ungur et al                             : ANISO software                          


 Your calculation uses the libint2 library for the computation of 2-el integrals
 For citations please refer to: http://libint.valeyev.net

 Your ORCA version has been built with support for libXC version: 7.0.0
 For citations please refer to: https://libxc.gitlab.io

 This ORCA versions uses:
   CBLAS   interface :  Fast vector & matrix operations
   LAPACKE interface :  Fast linear algebra routines
   SCALAPACK package :  Parallel linear algebra routines
   Shared memory     :  Shared parallel matrices
   BLAS/LAPACK       :  OpenBLAS 0.3.29  USE64BITINT DYNAMIC_ARCH NO_AFFINITY Cooperlake SINGLE_THREADED
        Core in use  :  Cooperlake
   Copyright (c) 2011-2014, The OpenBLAS Project


  ***********************************
  * Starting time: Tue Mar  3 21:10:37 2026
  * Host name:     c04b01n02
  * Process ID:    3969298
  * Working dir.:  /lustre1/jiangy/jiangy_liuxy/NMR/B9D7C2-SSSS-NMR/opt_conf
  ***********************************

NOTE: MaxCore=5000 MB was set to SCF,MP2,MDCI,CIPSI,MRCI,RASCI and CIS
      => If you want to overwrite this, your respective input block should be placed after the MaxCore statement


***************************************
The coordinates will be read from file: opt-conf-15.xyz
***************************************



Warning: The global flag for NMR shieldings has been found
         but shieldings for certain elements have also been explicitly requested in the EPRNMR block
         ==>> only the requested shieldings will be calculated

================================================================================

----- Orbital basis set information -----
Your calculation utilizes the basis: pcSseg-2
   F. Jensen, J. Chem. Theory Comput. 11, 132 (2015).

----- AuxJ basis set information -----
Your calculation utilizes the AutoAux generation procedure.
  G. L. Stoychev, A. A. Auer, F. Neese, J. Chem. Theory Comput. 13, 554 (2017)

----- AuxC basis set information -----
Your calculation utilizes the AutoAux generation procedure.
  G. L. Stoychev, A. A. Auer, F. Neese, J. Chem. Theory Comput. 13, 554 (2017)

----- AuxJK basis set information -----
Your calculation utilizes the AutoAux generation procedure.
  G. L. Stoychev, A. A. Auer, F. Neese, J. Chem. Theory Comput. 13, 554 (2017)

----- AuxX basis set information -----
Your calculation utilizes the AutoAux generation procedure.
  G. L. Stoychev, A. A. Auer, F. Neese, J. Chem. Theory Comput. 13, 554 (2017)

================================================================================
                                        WARNINGS
                       Please study these warnings very carefully!
================================================================================


================================================================================
                                       INPUT FILE
================================================================================
NAME = nmr-conf-15.inp
|  1> !TPSS PCSSEG-2 AUTOAUX NMR CPCM(Methanol)
|  2> 
|  3> %pal nprocs 60 end
|  4> %maxcore 5000
|  5> 
|  6> *XYZFILE 0 1 opt-conf-15.xyz
|  7> 
|  8> %EPRNMR
|  9>    NUCLEI = ALL C {SHIFT}
| 10>    NUCLEI = ALL H {SHIFT}
| 11>    TAU DOBSON
| 12> END
| 13> 
| 14> 
| 15>                          ****END OF INPUT****
================================================================================

                       ****************************
                       * Single Point Calculation *
                       ****************************

---------------------------------
CARTESIAN COORDINATES (ANGSTROEM)
---------------------------------
  C     28.751798  -26.962199    1.545772
  C     29.850121  -26.136817    1.279549
  C     29.756336  -25.151948    0.289867
  C     28.576932  -25.018473   -0.432104
  C     27.499137  -25.856648   -0.189291
  C     27.589326  -26.824149    0.802017
  C     26.230162  -25.737321   -0.986291
  C     26.143848  -26.799108   -2.103476
  C     24.708119  -26.920623   -2.653951
  C     23.682122  -27.271548   -1.549239
  C     24.131742  -28.274944   -0.521173
  C     24.068100  -27.942671    0.830838
  C     24.459052  -28.841126    1.807155
  C     24.936113  -30.107833    1.437290
  C     24.988442  -30.444038    0.096401
  C     24.582478  -29.539343   -0.869940
  C     27.173809  -26.418130   -3.179066
  C     24.598333  -27.911877   -3.838126
  O     30.866862  -24.379534    0.115727
  O     28.935891  -27.864619    2.552647
  O     30.978517  -26.269766    2.060118
  O     25.340971  -30.997744    2.386664
  O     24.437362  -28.608337    3.167518
  C     32.153553  -26.748374    1.405205
  C     32.074414  -28.285860    1.242189
  C     31.030916  -28.690553    0.213291
  C     33.315737  -26.339901    2.315715
  O     33.430806  -24.944772    2.392249
  C     30.147554  -29.720163    0.522773
  C     29.143038  -30.076523   -0.356800
  C     29.013461  -29.389959   -1.571733
  C     29.930320  -28.411251   -1.907028
  C     30.938739  -28.069630   -1.022338
  C     27.846023  -28.671162    2.927474
  C     30.841009  -23.367428   -0.861059
  C     23.926055  -27.380535    3.622772
  O     31.831241  -28.868221    2.495184
  O     27.450863  -27.421195   -4.127758
  O     24.898771  -27.330855   -5.077169
  O     28.219463  -31.077159   -0.160293
  O     27.989974  -29.706092   -2.425202
  C     28.426055  -31.971768    0.908100
  H     28.484152  -24.250133   -1.182785
  H     26.741520  -27.466173    0.978290
  H     26.160370  -24.745693   -1.437568
  H     25.390720  -25.864226   -0.307378
  H     26.436442  -27.766479   -1.682021
  H     24.415752  -25.945686   -3.061714
  H     23.387789  -26.354564   -1.035353
  H     22.781947  -27.655321   -2.037279
  H     23.696813  -26.969694    1.115481
  H     25.342166  -31.425993   -0.172516
  H     24.607119  -29.831555   -1.906561
  H     26.818368  -25.554813   -3.749775
  H     28.105262  -26.138372   -2.668815
  H     23.561040  -28.249269   -3.924566
  H     25.234380  -28.788462   -3.664656
  H     25.162158  -30.606766    3.252257
  H     32.273544  -26.256656    0.435482
  H     33.058383  -28.650562    0.920456
  H     33.150466  -26.775487    3.310634
  H     34.258834  -26.715118    1.913706
  H     32.538767  -24.596393    2.519350
  H     30.265875  -30.230619    1.464836
  H     29.857791  -27.928579   -2.868304
  H     31.650925  -27.313614   -1.312420
  H     27.015243  -28.067583    3.303356
  H     27.497286  -29.285833    2.093507
  H     28.213925  -29.311873    3.728029
  H     30.676329  -23.778764   -1.862023
  H     30.073278  -22.618762   -0.643026
  H     31.823278  -22.899606   -0.819019
  H     22.885338  -27.242050    3.315134
  H     23.978042  -27.424680    4.709564
  H     24.527674  -26.538079    3.265642
  H     31.053037  -28.412733    2.857429
  H     27.693274  -28.232473   -3.653857
  H     25.864651  -27.242568   -5.122111
  H     27.501877  -30.442360   -2.029461
  H     27.651135  -32.729959    0.810962
  H     29.412378  -32.440257    0.844954
  H     28.316916  -31.477879    1.876586

----------------------------
CARTESIAN COORDINATES (A.U.)
----------------------------
  NO LB      ZA    FRAG     MASS         X           Y           Z
   0 C     6.0000    0    12.011   54.333024  -50.951173    2.921086
   1 C     6.0000    0    12.011   56.408555  -49.391427    2.417997
   2 C     6.0000    0    12.011   56.231326  -47.530294    0.547769
   3 C     6.0000    0    12.011   54.002576  -47.278063   -0.816558
   4 C     6.0000    0    12.011   51.965837  -48.861984   -0.357709
   5 C     6.0000    0    12.011   52.136270  -50.690295    1.515592
   6 C     6.0000    0    12.011   49.567823  -48.636488   -1.863820
   7 C     6.0000    0    12.011   49.404713  -50.642975   -3.974993
   8 C     6.0000    0    12.011   46.691579  -50.872604   -5.015241
   9 C     6.0000    0    12.011   44.752724  -51.535757   -2.927637
  10 C     6.0000    0    12.011   45.602383  -53.431901   -0.984874
  11 C     6.0000    0    12.011   45.482118  -52.803995    1.570056
  12 C     6.0000    0    12.011   46.220909  -54.501829    3.415029
  13 C     6.0000    0    12.011   47.122424  -56.895559    2.716084
  14 C     6.0000    0    12.011   47.221312  -57.530894    0.182171
  15 C     6.0000    0    12.011   46.454152  -55.821268   -1.643948
  16 C     6.0000    0    12.011   51.351057  -49.923030   -6.007564
  17 C     6.0000    0    12.011   46.484113  -52.745804   -7.253007
  18 O     8.0000    0    15.999   58.329917  -46.070642    0.218693
  19 O     8.0000    0    15.999   54.680910  -52.656498    4.823803
  20 O     8.0000    0    15.999   58.540913  -49.642663    3.893059
  21 O     8.0000    0    15.999   47.887495  -58.577248    4.510141
  22 O     8.0000    0    15.999   46.179922  -54.061923    5.985741
  23 C     6.0000    0    12.011   60.761410  -50.547102    2.655453
  24 C     6.0000    0    12.011   60.611858  -53.452528    2.347396
  25 C     6.0000    0    12.011   58.639932  -54.217287    0.403062
  26 C     6.0000    0    12.011   62.957619  -49.775200    4.376068
  27 O     8.0000    0    15.999   63.175068  -47.138787    4.520696
  28 C     6.0000    0    12.011   56.970621  -56.162968    0.987897
  29 C     6.0000    0    12.011   55.072360  -56.836392   -0.674255
  30 C     6.0000    0    12.011   54.827496  -55.538974   -2.970145
  31 C     6.0000    0    12.011   56.560108  -53.689483   -3.603761
  32 C     6.0000    0    12.011   58.465743  -53.043914   -1.931939
  33 C     6.0000    0    12.011   52.621357  -54.180643    5.532124
  34 C     6.0000    0    12.011   58.281061  -44.158040   -1.627166
  35 C     6.0000    0    12.011   45.213691  -51.741712    6.846046
  36 O     8.0000    0    15.999   60.152328  -54.553031    4.715215
  37 O     8.0000    0    15.999   51.874614  -51.818549   -7.800332
  38 O     8.0000    0    15.999   47.051859  -51.647830   -9.594458
  39 O     8.0000    0    15.999   53.327056  -58.727319   -0.302909
  40 O     8.0000    0    15.999   52.893386  -56.136379   -4.582968
  41 C     6.0000    0    12.011   53.717460  -60.417885    1.716059
  42 H     1.0000    0     1.008   53.827247  -45.826110   -2.235139
  43 H     1.0000    0     1.008   50.534149  -51.903545    1.848701
  44 H     1.0000    0     1.008   49.435935  -46.762583   -2.716609
  45 H     1.0000    0     1.008   47.981507  -48.876303   -0.580860
  46 H     1.0000    0     1.008   49.957634  -52.471041   -3.178558
  47 H     1.0000    0     1.008   46.139084  -49.030240   -5.785801
  48 H     1.0000    0     1.008   44.196516  -49.802908   -1.956533
  49 H     1.0000    0     1.008   43.051641  -52.260983   -3.849900
  50 H     1.0000    0     1.008   44.780487  -50.965336    2.107953
  51 H     1.0000    0     1.008   47.889754  -59.386521   -0.326008
  52 H     1.0000    0     1.008   46.500715  -56.373468   -3.602879
  53 H     1.0000    0     1.008   50.679370  -48.291598   -7.086047
  54 H     1.0000    0     1.008   53.111248  -49.394364   -5.043330
  55 H     1.0000    0     1.008   44.523914  -53.383382   -7.416355
  56 H     1.0000    0     1.008   47.686067  -54.402309   -6.925196
  57 H     1.0000    0     1.008   47.549588  -57.838406    6.145876
  58 H     1.0000    0     1.008   60.988159  -49.617888    0.822942
  59 H     1.0000    0     1.008   62.471291  -54.141717    1.739410
  60 H     1.0000    0     1.008   62.645301  -50.598338    6.256191
  61 H     1.0000    0     1.008   64.739814  -50.484257    3.616380
  62 H     1.0000    0     1.008   61.489357  -46.480447    4.760881
  63 H     1.0000    0     1.008   57.194215  -57.127592    2.768139
  64 H     1.0000    0     1.008   56.423048  -52.777365   -5.420309
  65 H     1.0000    0     1.008   59.811580  -51.615250   -2.480114
  66 H     1.0000    0     1.008   51.051411  -53.040045    6.242439
  67 H     1.0000    0     1.008   51.962340  -55.342204    3.956155
  68 H     1.0000    0     1.008   53.316592  -55.391412    7.044953
  69 H     1.0000    0     1.008   57.969860  -44.935353   -3.518714
  70 H     1.0000    0     1.008   56.830260  -42.743267   -1.215143
  71 H     1.0000    0     1.008   60.137280  -43.273984   -1.547723
  72 H     1.0000    0     1.008   43.247021  -51.480013    6.264695
  73 H     1.0000    0     1.008   45.311933  -51.825135    8.899786
  74 H     1.0000    0     1.008   46.350586  -50.149701    6.171169
  75 H     1.0000    0     1.008   58.681735  -53.692283    5.399758
  76 H     1.0000    0     1.008   52.332704  -53.351641   -6.904789
  77 H     1.0000    0     1.008   48.877107  -51.480992   -9.679387
  78 H     1.0000    0     1.008   51.971016  -57.527723   -3.835125
  79 H     1.0000    0     1.008   52.253073  -61.850658    1.532496
  80 H     1.0000    0     1.008   55.581340  -61.303202    1.596731
  81 H     1.0000    0     1.008   53.511217  -59.484571    3.546233

--------------------------------
INTERNAL COORDINATES (ANGSTROEM)
--------------------------------
 C      0   0   0     0.000000000000     0.00000000     0.00000000
 C      1   0   0     1.399444421105     0.00000000     0.00000000
 C      2   1   0     1.399369269221   119.80401715     0.00000000
 C      3   2   1     1.389262509845   119.47532723   359.04522125
 C      4   3   2     1.386772573528   120.71279494   359.47177808
 C      1   2   3     1.386928426798   119.80782249     1.78781490
 C      5   4   3     1.503244751601   121.01533892   181.30834316
 C      7   5   4     1.543678355525   112.10501415   100.05038840
 C      8   7   5     1.542435071306   111.37799681   164.54465902
 C      9   8   7     1.547969630282   112.34082266   302.44273717
 C     10   9   8     1.505284519428   116.13856499   320.06822364
 C     11  10   9     1.393696157949   119.33946353   125.34000872
 C     12  11  10     1.383206468633   121.12850169   179.35050669
 C     13  12  11     1.403187712328   119.76276816     0.36785873
 C     14  13  12     1.383385230132   119.19245904   359.04837742
 C     15  14  13     1.384591243764   120.43747885     0.37085713
 C      8   7   5     1.537158985672   107.36526679   288.95788331
 C      9   8   7     1.548195203983   112.91849761   176.36108045
 O      3   2   1     1.363897699391   115.74125565   178.87280685
 O      1   2   3     1.364568781209   115.12095976   181.67907421
 O      2   1   3     1.378491812340   118.54416963   176.34869122
 O     14  13  12     1.362777613478   120.45573478   179.16543918
 O     13  12  11     1.380306685716   125.56673260   179.83934698
 C     21   2   1     1.427826022585   116.50339195   114.19584847
 C     24  21   2     1.548127529544   109.82361236   280.74954956
 C     25  24  21     1.520294071975   111.75974779    70.55026884
 C     24  21   2     1.531845092980   105.20930462   160.65723560
 O     27  24  21     1.401957786858   111.10475200   295.35617982
 C     26  25  24     1.391475033542   118.82816482   226.00703528
 C     29  26  25     1.381917278405   120.71136037   176.86518543
 C     30  29  26     1.401507050138   119.51392313   359.87438649
 C     31  30  29     1.382361277549   119.72068229     3.24304068
 C     32  31  30     1.384301228317   120.19000281   357.22304521
 C     20   1   2     1.406705517915   118.11614566   176.23381640
 C     19   3   2     1.406818425950   118.75853885   180.13885693
 C     23  13  12     1.405770681910   118.17599044     2.82084795
 O     25  24  21     1.402952351440   109.09042035   306.12152017
 O     17   8   7     1.408160446246   115.25808787   166.45831390
 O     18   9   8     1.401098371455   113.30892575   274.79761122
 O     30  29  26     1.375818428615   125.77509501   179.72345511
 O     31  30  29     1.369625610265   119.74911855   182.38454381
 C     40  30  29     1.408711243011   118.14820492   348.64113045
 H      4   3   2     1.078182173812   120.22151127   178.69311415
 H      6   1   2     1.077980877642   120.81199095   178.60357400
 H      7   5   4     1.091717863222   110.19568997   338.73439561
 H      7   5   4     1.087056123640   108.14846036   220.46644250
 H      8   7   5     1.095008046512   108.31034621    45.36603563
 H      9   8   7     1.096471954278   108.11166978    60.12481865
 H     10   9   8     1.091591020436   108.91965482    83.01151922
 H     10   9   8     1.093516931915   107.85860177   198.14296595
 H     12  11  10     1.079610433976   119.09999539     0.00000000
 H     15  14  13     1.077810023230   118.40294914   180.96336720
 H     16  15  14     1.077302016186   119.18511365   181.60617966
 H     17   8   7     1.094240865641   110.04993314   286.14929533
 H     17   8   7     1.098282850160   107.83693593    44.29631442
 H     18   9   8     1.094203602948   108.96982092   158.12166886
 H     18   9   8     1.096835579169   110.46319857    39.12931096
 H     22  14  13     0.966483204917   107.74566900     4.33512478
 H     24  21   2     1.093868140193   110.25595746    43.39607626
 H     25  24  21     1.097595550025   108.36252906   190.89250603
 H     27  24  21     1.098595552161   108.56812920    57.62322359
 H     27  24  21     1.091710149552   110.17443445   177.03760494
 H     28  27  24     0.966052280350   106.87335684    45.05155619
 H     29  26  25     1.077983835474   118.36403624   356.94828441
 H     32  31  30     1.078093077244   119.25036895   176.41944381
 H     33  32  31     1.078386054318   118.82860426   179.09035765
 H     34  20   1     1.093521309167   111.32974377   297.96762341
 H     34  20   1     1.093132755753   111.48668960    60.29178586
 H     34  20   1     1.089381251762   105.74608010   179.50284547
 H     35  19   3     1.094644690309   111.55082079   298.99857105
 H     35  19   3     1.094280457438   111.51575466    61.77707361
 H     35  19   3     1.088796111071   105.41026491   180.33483280
 H     36  23  13     1.094034277107   111.43759871    59.74524765
 H     36  23  13     1.088930406682   105.69033017   178.42255793
 H     36  23  13     1.095088412131   111.49859816   297.07770285
 H     37  25  24     0.971747208805   106.09139945    52.36205590
 H     38  17   8     0.970317452590   108.40211994   306.98561768
 H     39  18   9     0.970946744145   106.97488009    76.24313261
 H     41  31  30     0.967956901145   107.31474303   357.53140629
 H     42  40  30     1.088480898887   105.67997593   185.99494758
 H     42  40  30     1.093756269235   111.12947232   305.03339814
 H     42  40  30     1.092612616449   111.74942505    67.76440438

---------------------------
INTERNAL COORDINATES (A.U.)
---------------------------
 C      0   0   0     0.000000000000     0.00000000     0.00000000
 C      1   0   0     2.644566695532     0.00000000     0.00000000
 C      2   1   0     2.644424679054   119.80401715     0.00000000
 C      3   2   1     2.625325671732   119.47532723   359.04522125
 C      4   3   2     2.620620374002   120.71279494   359.47177808
 C      1   2   3     2.620914893999   119.80782249     1.78781490
 C      5   4   3     2.840720892781   121.01533892   181.30834316
 C      7   5   4     2.917129330803   112.10501415   100.05038840
 C      8   7   5     2.914779864123   111.37799681   164.54465902
 C      9   8   7     2.925238664861   112.34082266   302.44273717
 C     10   9   8     2.844575495351   116.13856499   320.06822364
 C     11  10   9     2.633704052421   119.33946353   125.34000872
 C     12  11  10     2.613881412384   121.12850169   179.35050669
 C     13  12  11     2.651640490783   119.76276816     0.36785873
 C     14  13  12     2.614219222660   119.19245904   359.04837742
 C     15  14  13     2.616498258140   120.43747885     0.37085713
 C      8   7   5     2.904809507217   107.36526679   288.95788331
 C      9   8   7     2.925664937378   112.91849761   176.36108045
 O      3   2   1     2.577393126535   115.74125565   178.87280685
 O      1   2   3     2.578661287385   115.12095976   181.67907421
 O      2   1   3     2.604972003176   118.54416963   176.34869122
 O     14  13  12     2.575276470912   120.45573478   179.16543918
 O     13  12  11     2.608401616825   125.56673260   179.83934698
 C     21   2   1     2.698200149571   116.50339195   114.19584847
 C     24  21   2     2.925537051222   109.82361236   280.74954956
 C     25  24  21     2.872939439057   111.75974779    70.55026884
 C     24  21   2     2.894767705324   105.20930462   160.65723560
 O     27  24  21     2.649316268479   111.10475200   295.35617982
 C     26  25  24     2.629506735583   118.82816482   226.00703528
 C     29  26  25     2.611445195919   120.71136037   176.86518543
 C     30  29  26     2.648464499521   119.51392313   359.87438649
 C     31  30  29     2.612284232705   119.72068229     3.24304068
 C     32  31  30     2.615950208370   120.19000281   357.22304521
 C     20   1   2     2.658288179935   118.11614566   176.23381640
 C     19   3   2     2.658501545200   118.75853885   180.13885693
 C     23  13  12     2.656521595906   118.17599044     2.82084795
 O     25  24  21     2.651195723162   109.09042035   306.12152017
 O     17   8   7     2.661037596025   115.25808787   166.45831390
 O     18   9   8     2.647692208733   113.30892575   274.79761122
 O     30  29  26     2.599920040084   125.77509501   179.72345511
 O     31  30  29     2.588217309406   119.74911855   182.38454381
 C     40  30  29     2.662078451067   118.14820492   348.64113045
 H      4   3   2     2.037469030981   120.22151127   178.69311415
 H      6   1   2     2.037088636347   120.81199095   178.60357400
 H      7   5   4     2.063047777000   110.19568997   338.73439561
 H      7   5   4     2.054238365882   108.14846036   220.46644250
 H      8   7   5     2.069265322348   108.31034621    45.36603563
 H      9   8   7     2.072031707112   108.11166978    60.12481865
 H     10   9   8     2.062808078871   108.91965482    83.01151922
 H     10   9   8     2.066447524125   107.85860177   198.14296595
 H     12  11  10     2.040168051539   119.09999539     0.00000000
 H     15  14  13     2.036765768300   118.40294914   180.96336720
 H     16  15  14     2.035805774113   119.18511365   181.60617966
 H     17   8   7     2.067815560607   110.04993314   286.14929533
 H     17   8   7     2.075453804385   107.83693593    44.29631442
 H     18   9   8     2.067745144322   108.96982092   158.12166886
 H     18   9   8     2.072718858571   110.46319857    39.12931096
 H     22  14  13     1.826388570327   107.74566900     4.33512478
 H     24  21   2     2.067111211587   110.25595746    43.39607626
 H     25  24  21     2.074154995359   108.36252906   190.89250603
 H     27  24  21     2.076044725529   108.56812920    57.62322359
 H     27  24  21     2.063033200275   110.17443445   177.03760494
 H     28  27  24     1.825574240912   106.87335684    45.05155619
 H     29  26  25     2.037094225839   118.36403624   356.94828441
 H     32  31  30     2.037300662867   119.25036895   176.41944381
 H     33  32  31     2.037854309300   118.82860426   179.09035765
 H     34  20   1     2.066455795933   111.32974377   297.96762341
 H     34  20   1     2.065721536392   111.48668960    60.29178586
 H     34  20   1     2.058632221258   105.74608010   179.50284547
 H     35  19   3     2.068578678635   111.55082079   298.99857105
 H     35  19   3     2.067890378260   111.51575466    61.77707361
 H     35  19   3     2.057526465602   105.41026491   180.33483280
 H     36  23  13     2.067425164855   111.43759871    59.74524765
 H     36  23  13     2.057780247529   105.69033017   178.42255793
 H     36  23  13     2.069417191358   111.49859816   297.07770285
 H     37  25  24     1.836336096045   106.09139945    52.36205590
 H     38  17   8     1.833634248358   108.40211994   306.98561768
 H     39  18   9     1.834823437056   106.97488009    76.24313261
 H     41  31  30     1.829173452603   107.31474303   357.53140629
 H     42  40  30     2.056930800901   105.67997593   185.99494758
 H     42  40  30     2.066899806113   111.12947232   305.03339814
 H     42  40  30     2.064738615557   111.74942505    67.76440438

---------------------
BASIS SET INFORMATION
---------------------
There are 3 groups of distinct atoms

 Group   1 Type C   : 11s7p2d1f contracted to 4s5p2d1f pattern {7211/31111/11/1}
 Group   2 Type O   : 11s7p2d1f contracted to 4s5p2d1f pattern {7211/31111/11/1}
 Group   3 Type H   : 6s3p1d contracted to 3s2p1d pattern {411/21/1}

Atom   0C    basis set group =>   1
Atom   1C    basis set group =>   1
Atom   2C    basis set group =>   1
Atom   3C    basis set group =>   1
Atom   4C    basis set group =>   1
Atom   5C    basis set group =>   1
Atom   6C    basis set group =>   1
Atom   7C    basis set group =>   1
Atom   8C    basis set group =>   1
Atom   9C    basis set group =>   1
Atom  10C    basis set group =>   1
Atom  11C    basis set group =>   1
Atom  12C    basis set group =>   1
Atom  13C    basis set group =>   1
Atom  14C    basis set group =>   1
Atom  15C    basis set group =>   1
Atom  16C    basis set group =>   1
Atom  17C    basis set group =>   1
Atom  18O    basis set group =>   2
Atom  19O    basis set group =>   2
Atom  20O    basis set group =>   2
Atom  21O    basis set group =>   2
Atom  22O    basis set group =>   2
Atom  23C    basis set group =>   1
Atom  24C    basis set group =>   1
Atom  25C    basis set group =>   1
Atom  26C    basis set group =>   1
Atom  27O    basis set group =>   2
Atom  28C    basis set group =>   1
Atom  29C    basis set group =>   1
Atom  30C    basis set group =>   1
Atom  31C    basis set group =>   1
Atom  32C    basis set group =>   1
Atom  33C    basis set group =>   1
Atom  34C    basis set group =>   1
Atom  35C    basis set group =>   1
Atom  36O    basis set group =>   2
Atom  37O    basis set group =>   2
Atom  38O    basis set group =>   2
Atom  39O    basis set group =>   2
Atom  40O    basis set group =>   2
Atom  41C    basis set group =>   1
Atom  42H    basis set group =>   3
Atom  43H    basis set group =>   3
Atom  44H    basis set group =>   3
Atom  45H    basis set group =>   3
Atom  46H    basis set group =>   3
Atom  47H    basis set group =>   3
Atom  48H    basis set group =>   3
Atom  49H    basis set group =>   3
Atom  50H    basis set group =>   3
Atom  51H    basis set group =>   3
Atom  52H    basis set group =>   3
Atom  53H    basis set group =>   3
Atom  54H    basis set group =>   3
Atom  55H    basis set group =>   3
Atom  56H    basis set group =>   3
Atom  57H    basis set group =>   3
Atom  58H    basis set group =>   3
Atom  59H    basis set group =>   3
Atom  60H    basis set group =>   3
Atom  61H    basis set group =>   3
Atom  62H    basis set group =>   3
Atom  63H    basis set group =>   3
Atom  64H    basis set group =>   3
Atom  65H    basis set group =>   3
Atom  66H    basis set group =>   3
Atom  67H    basis set group =>   3
Atom  68H    basis set group =>   3
Atom  69H    basis set group =>   3
Atom  70H    basis set group =>   3
Atom  71H    basis set group =>   3
Atom  72H    basis set group =>   3
Atom  73H    basis set group =>   3
Atom  74H    basis set group =>   3
Atom  75H    basis set group =>   3
Atom  76H    basis set group =>   3
Atom  77H    basis set group =>   3
Atom  78H    basis set group =>   3
Atom  79H    basis set group =>   3
Atom  80H    basis set group =>   3
Atom  81H    basis set group =>   3
---------------------------------
AUXILIARY/J BASIS SET INFORMATION
---------------------------------
There are 3 groups of distinct atoms

 Group   1 Type C   : 15s13p12d5f5g contracted to 15s13p12d5f5g pattern {111111111111111/1111111111111/111111111111/11111/11111}
 Group   2 Type O   : 15s13p12d5f5g contracted to 15s13p12d5f5g pattern {111111111111111/1111111111111/111111111111/11111/11111}
 Group   3 Type H   : 12s4p3d2f contracted to 12s4p3d2f pattern {111111111111/1111/111/11}

Atom   0C    basis set group =>   1
Atom   1C    basis set group =>   1
Atom   2C    basis set group =>   1
Atom   3C    basis set group =>   1
Atom   4C    basis set group =>   1
Atom   5C    basis set group =>   1
Atom   6C    basis set group =>   1
Atom   7C    basis set group =>   1
Atom   8C    basis set group =>   1
Atom   9C    basis set group =>   1
Atom  10C    basis set group =>   1
Atom  11C    basis set group =>   1
Atom  12C    basis set group =>   1
Atom  13C    basis set group =>   1
Atom  14C    basis set group =>   1
Atom  15C    basis set group =>   1
Atom  16C    basis set group =>   1
Atom  17C    basis set group =>   1
Atom  18O    basis set group =>   2
Atom  19O    basis set group =>   2
Atom  20O    basis set group =>   2
Atom  21O    basis set group =>   2
Atom  22O    basis set group =>   2
Atom  23C    basis set group =>   1
Atom  24C    basis set group =>   1
Atom  25C    basis set group =>   1
Atom  26C    basis set group =>   1
Atom  27O    basis set group =>   2
Atom  28C    basis set group =>   1
Atom  29C    basis set group =>   1
Atom  30C    basis set group =>   1
Atom  31C    basis set group =>   1
Atom  32C    basis set group =>   1
Atom  33C    basis set group =>   1
Atom  34C    basis set group =>   1
Atom  35C    basis set group =>   1
Atom  36O    basis set group =>   2
Atom  37O    basis set group =>   2
Atom  38O    basis set group =>   2
Atom  39O    basis set group =>   2
Atom  40O    basis set group =>   2
Atom  41C    basis set group =>   1
Atom  42H    basis set group =>   3
Atom  43H    basis set group =>   3
Atom  44H    basis set group =>   3
Atom  45H    basis set group =>   3
Atom  46H    basis set group =>   3
Atom  47H    basis set group =>   3
Atom  48H    basis set group =>   3
Atom  49H    basis set group =>   3
Atom  50H    basis set group =>   3
Atom  51H    basis set group =>   3
Atom  52H    basis set group =>   3
Atom  53H    basis set group =>   3
Atom  54H    basis set group =>   3
Atom  55H    basis set group =>   3
Atom  56H    basis set group =>   3
Atom  57H    basis set group =>   3
Atom  58H    basis set group =>   3
Atom  59H    basis set group =>   3
Atom  60H    basis set group =>   3
Atom  61H    basis set group =>   3
Atom  62H    basis set group =>   3
Atom  63H    basis set group =>   3
Atom  64H    basis set group =>   3
Atom  65H    basis set group =>   3
Atom  66H    basis set group =>   3
Atom  67H    basis set group =>   3
Atom  68H    basis set group =>   3
Atom  69H    basis set group =>   3
Atom  70H    basis set group =>   3
Atom  71H    basis set group =>   3
Atom  72H    basis set group =>   3
Atom  73H    basis set group =>   3
Atom  74H    basis set group =>   3
Atom  75H    basis set group =>   3
Atom  76H    basis set group =>   3
Atom  77H    basis set group =>   3
Atom  78H    basis set group =>   3
Atom  79H    basis set group =>   3
Atom  80H    basis set group =>   3
Atom  81H    basis set group =>   3
---------------------------------
AUXILIARY/C BASIS SET INFORMATION
---------------------------------
There are 3 groups of distinct atoms

 Group   1 Type C   : 15s13p12d5f5g contracted to 15s13p12d5f5g pattern {111111111111111/1111111111111/111111111111/11111/11111}
 Group   2 Type O   : 15s13p12d5f5g contracted to 15s13p12d5f5g pattern {111111111111111/1111111111111/111111111111/11111/11111}
 Group   3 Type H   : 12s4p3d2f contracted to 12s4p3d2f pattern {111111111111/1111/111/11}

Atom   0C    basis set group =>   1
Atom   1C    basis set group =>   1
Atom   2C    basis set group =>   1
Atom   3C    basis set group =>   1
Atom   4C    basis set group =>   1
Atom   5C    basis set group =>   1
Atom   6C    basis set group =>   1
Atom   7C    basis set group =>   1
Atom   8C    basis set group =>   1
Atom   9C    basis set group =>   1
Atom  10C    basis set group =>   1
Atom  11C    basis set group =>   1
Atom  12C    basis set group =>   1
Atom  13C    basis set group =>   1
Atom  14C    basis set group =>   1
Atom  15C    basis set group =>   1
Atom  16C    basis set group =>   1
Atom  17C    basis set group =>   1
Atom  18O    basis set group =>   2
Atom  19O    basis set group =>   2
Atom  20O    basis set group =>   2
Atom  21O    basis set group =>   2
Atom  22O    basis set group =>   2
Atom  23C    basis set group =>   1
Atom  24C    basis set group =>   1
Atom  25C    basis set group =>   1
Atom  26C    basis set group =>   1
Atom  27O    basis set group =>   2
Atom  28C    basis set group =>   1
Atom  29C    basis set group =>   1
Atom  30C    basis set group =>   1
Atom  31C    basis set group =>   1
Atom  32C    basis set group =>   1
Atom  33C    basis set group =>   1
Atom  34C    basis set group =>   1
Atom  35C    basis set group =>   1
Atom  36O    basis set group =>   2
Atom  37O    basis set group =>   2
Atom  38O    basis set group =>   2
Atom  39O    basis set group =>   2
Atom  40O    basis set group =>   2
Atom  41C    basis set group =>   1
Atom  42H    basis set group =>   3
Atom  43H    basis set group =>   3
Atom  44H    basis set group =>   3
Atom  45H    basis set group =>   3
Atom  46H    basis set group =>   3
Atom  47H    basis set group =>   3
Atom  48H    basis set group =>   3
Atom  49H    basis set group =>   3
Atom  50H    basis set group =>   3
Atom  51H    basis set group =>   3
Atom  52H    basis set group =>   3
Atom  53H    basis set group =>   3
Atom  54H    basis set group =>   3
Atom  55H    basis set group =>   3
Atom  56H    basis set group =>   3
Atom  57H    basis set group =>   3
Atom  58H    basis set group =>   3
Atom  59H    basis set group =>   3
Atom  60H    basis set group =>   3
Atom  61H    basis set group =>   3
Atom  62H    basis set group =>   3
Atom  63H    basis set group =>   3
Atom  64H    basis set group =>   3
Atom  65H    basis set group =>   3
Atom  66H    basis set group =>   3
Atom  67H    basis set group =>   3
Atom  68H    basis set group =>   3
Atom  69H    basis set group =>   3
Atom  70H    basis set group =>   3
Atom  71H    basis set group =>   3
Atom  72H    basis set group =>   3
Atom  73H    basis set group =>   3
Atom  74H    basis set group =>   3
Atom  75H    basis set group =>   3
Atom  76H    basis set group =>   3
Atom  77H    basis set group =>   3
Atom  78H    basis set group =>   3
Atom  79H    basis set group =>   3
Atom  80H    basis set group =>   3
Atom  81H    basis set group =>   3
----------------------------------
AUXILIARY/JK BASIS SET INFORMATION
----------------------------------
There are 3 groups of distinct atoms

 Group   1 Type C   : 15s13p12d5f5g contracted to 15s13p12d5f5g pattern {111111111111111/1111111111111/111111111111/11111/11111}
 Group   2 Type O   : 15s13p12d5f5g contracted to 15s13p12d5f5g pattern {111111111111111/1111111111111/111111111111/11111/11111}
 Group   3 Type H   : 12s4p3d2f contracted to 12s4p3d2f pattern {111111111111/1111/111/11}

Atom   0C    basis set group =>   1
Atom   1C    basis set group =>   1
Atom   2C    basis set group =>   1
Atom   3C    basis set group =>   1
Atom   4C    basis set group =>   1
Atom   5C    basis set group =>   1
Atom   6C    basis set group =>   1
Atom   7C    basis set group =>   1
Atom   8C    basis set group =>   1
Atom   9C    basis set group =>   1
Atom  10C    basis set group =>   1
Atom  11C    basis set group =>   1
Atom  12C    basis set group =>   1
Atom  13C    basis set group =>   1
Atom  14C    basis set group =>   1
Atom  15C    basis set group =>   1
Atom  16C    basis set group =>   1
Atom  17C    basis set group =>   1
Atom  18O    basis set group =>   2
Atom  19O    basis set group =>   2
Atom  20O    basis set group =>   2
Atom  21O    basis set group =>   2
Atom  22O    basis set group =>   2
Atom  23C    basis set group =>   1
Atom  24C    basis set group =>   1
Atom  25C    basis set group =>   1
Atom  26C    basis set group =>   1
Atom  27O    basis set group =>   2
Atom  28C    basis set group =>   1
Atom  29C    basis set group =>   1
Atom  30C    basis set group =>   1
Atom  31C    basis set group =>   1
Atom  32C    basis set group =>   1
Atom  33C    basis set group =>   1
Atom  34C    basis set group =>   1
Atom  35C    basis set group =>   1
Atom  36O    basis set group =>   2
Atom  37O    basis set group =>   2
Atom  38O    basis set group =>   2
Atom  39O    basis set group =>   2
Atom  40O    basis set group =>   2
Atom  41C    basis set group =>   1
Atom  42H    basis set group =>   3
Atom  43H    basis set group =>   3
Atom  44H    basis set group =>   3
Atom  45H    basis set group =>   3
Atom  46H    basis set group =>   3
Atom  47H    basis set group =>   3
Atom  48H    basis set group =>   3
Atom  49H    basis set group =>   3
Atom  50H    basis set group =>   3
Atom  51H    basis set group =>   3
Atom  52H    basis set group =>   3
Atom  53H    basis set group =>   3
Atom  54H    basis set group =>   3
Atom  55H    basis set group =>   3
Atom  56H    basis set group =>   3
Atom  57H    basis set group =>   3
Atom  58H    basis set group =>   3
Atom  59H    basis set group =>   3
Atom  60H    basis set group =>   3
Atom  61H    basis set group =>   3
Atom  62H    basis set group =>   3
Atom  63H    basis set group =>   3
Atom  64H    basis set group =>   3
Atom  65H    basis set group =>   3
Atom  66H    basis set group =>   3
Atom  67H    basis set group =>   3
Atom  68H    basis set group =>   3
Atom  69H    basis set group =>   3
Atom  70H    basis set group =>   3
Atom  71H    basis set group =>   3
Atom  72H    basis set group =>   3
Atom  73H    basis set group =>   3
Atom  74H    basis set group =>   3
Atom  75H    basis set group =>   3
Atom  76H    basis set group =>   3
Atom  77H    basis set group =>   3
Atom  78H    basis set group =>   3
Atom  79H    basis set group =>   3
Atom  80H    basis set group =>   3
Atom  81H    basis set group =>   3
---------------------------------
AUXILIARY/X BASIS SET INFORMATION
---------------------------------
There are 3 groups of distinct atoms

 Group   1 Type C   : 15s13p12d5f5g contracted to 15s13p12d5f5g pattern {111111111111111/1111111111111/111111111111/11111/11111}
 Group   2 Type O   : 15s13p12d5f5g contracted to 15s13p12d5f5g pattern {111111111111111/1111111111111/111111111111/11111/11111}
 Group   3 Type H   : 12s4p3d2f contracted to 12s4p3d2f pattern {111111111111/1111/111/11}

Atom   0C    basis set group =>   1
Atom   1C    basis set group =>   1
Atom   2C    basis set group =>   1
Atom   3C    basis set group =>   1
Atom   4C    basis set group =>   1
Atom   5C    basis set group =>   1
Atom   6C    basis set group =>   1
Atom   7C    basis set group =>   1
Atom   8C    basis set group =>   1
Atom   9C    basis set group =>   1
Atom  10C    basis set group =>   1
Atom  11C    basis set group =>   1
Atom  12C    basis set group =>   1
Atom  13C    basis set group =>   1
Atom  14C    basis set group =>   1
Atom  15C    basis set group =>   1
Atom  16C    basis set group =>   1
Atom  17C    basis set group =>   1
Atom  18O    basis set group =>   2
Atom  19O    basis set group =>   2
Atom  20O    basis set group =>   2
Atom  21O    basis set group =>   2
Atom  22O    basis set group =>   2
Atom  23C    basis set group =>   1
Atom  24C    basis set group =>   1
Atom  25C    basis set group =>   1
Atom  26C    basis set group =>   1
Atom  27O    basis set group =>   2
Atom  28C    basis set group =>   1
Atom  29C    basis set group =>   1
Atom  30C    basis set group =>   1
Atom  31C    basis set group =>   1
Atom  32C    basis set group =>   1
Atom  33C    basis set group =>   1
Atom  34C    basis set group =>   1
Atom  35C    basis set group =>   1
Atom  36O    basis set group =>   2
Atom  37O    basis set group =>   2
Atom  38O    basis set group =>   2
Atom  39O    basis set group =>   2
Atom  40O    basis set group =>   2
Atom  41C    basis set group =>   1
Atom  42H    basis set group =>   3
Atom  43H    basis set group =>   3
Atom  44H    basis set group =>   3
Atom  45H    basis set group =>   3
Atom  46H    basis set group =>   3
Atom  47H    basis set group =>   3
Atom  48H    basis set group =>   3
Atom  49H    basis set group =>   3
Atom  50H    basis set group =>   3
Atom  51H    basis set group =>   3
Atom  52H    basis set group =>   3
Atom  53H    basis set group =>   3
Atom  54H    basis set group =>   3
Atom  55H    basis set group =>   3
Atom  56H    basis set group =>   3
Atom  57H    basis set group =>   3
Atom  58H    basis set group =>   3
Atom  59H    basis set group =>   3
Atom  60H    basis set group =>   3
Atom  61H    basis set group =>   3
Atom  62H    basis set group =>   3
Atom  63H    basis set group =>   3
Atom  64H    basis set group =>   3
Atom  65H    basis set group =>   3
Atom  66H    basis set group =>   3
Atom  67H    basis set group =>   3
Atom  68H    basis set group =>   3
Atom  69H    basis set group =>   3
Atom  70H    basis set group =>   3
Atom  71H    basis set group =>   3
Atom  72H    basis set group =>   3
Atom  73H    basis set group =>   3
Atom  74H    basis set group =>   3
Atom  75H    basis set group =>   3
Atom  76H    basis set group =>   3
Atom  77H    basis set group =>   3
Atom  78H    basis set group =>   3
Atom  79H    basis set group =>   3
Atom  80H    basis set group =>   3
Atom  81H    basis set group =>   3
--------------------------------------------------------------------------
WARNING: There is at least one non-excluded one OpenFabrics device found,
but there are no active ports detected (or Open MPI was unable to use
them).  This is most certainly not what you wanted.  Check your
cables, subnet manager configuration, etc.  The openib BTL will be
ignored for this job.

  Local host: c04b01n02
--------------------------------------------------------------------------
--------------------------------------------------------------------------
WARNING: There was an error initializing an OpenFabrics device.

  Local host:   c04b01n02
  Local device: mlx5_0
--------------------------------------------------------------------------
[c04b01n02:3969299] 10 more processes have sent help message help-mpi-btl-openib.txt / no active ports found
[c04b01n02:3969299] Set MCA parameter "orte_base_help_aggregate" to 0 to see all help / error messages
[c04b01n02:3969299] 48 more processes have sent help message help-mpi-btl-openib.txt / error in device init


           ************************************************************
           *        Program running with 60 parallel MPI-processes    *
           *              working on a common directory               *
           ************************************************************
------------------------------------------------------------------------------
                             ORCA STARTUP CALCULATIONS
                           -- RI-GTO INTEGRALS CHOSEN --
------------------------------------------------------------------------------
------------------------------------------------------------------------------
                   ___                                                        
                  /   \      - P O W E R E D   B Y -                         
                 /     \                                                     
                 |  |  |   _    _      __       _____    __    __             
                 |  |  |  | |  | |    /  \     |  _  \  |  |  /  |          
                  \  \/   | |  | |   /    \    | | | |  |  | /  /          
                 / \  \   | |__| |  /  /\  \   | |_| |  |  |/  /          
                |  |  |   |  __  | /  /__\  \  |    /   |      \           
                |  |  |   | |  | | |   __   |  |    \   |  |\   \          
                \     /   | |  | | |  |  |  |  | |\  \  |  | \   \       
                 \___/    |_|  |_| |__|  |__|  |_| \__\ |__|  \__/        
                                                                              
                      - O R C A' S   B I G   F R I E N D -                    
                                      &                                       
                       - I N T E G R A L  F E E D E R -                       
                                                                              
 v1 FN, 2020, v2 2021, v3 2022-2024                                           
------------------------------------------------------------------------------


----------------------
SHARK INTEGRAL PACKAGE
----------------------

Number of atoms                             ...     82
Number of basis functions                   ...   2072
Number of shells                            ...    744
Maximum angular momentum                    ...      3
Integral batch strategy                     ... SHARK/LIBINT Hybrid
RI-J (if used) integral strategy            ... SPLIT-RIJ (Revised 2003 algorithm where possible)
Printlevel                                  ...      1
Contraction scheme used                     ... SEGMENTED contraction
Prescreening option                         ... SCHWARTZ
   Thresh                                   ... 1.000e-10
   Tcut                                     ... 1.000e-11
   Tpresel                                  ... 1.000e-11 
Coulomb Range Separation                    ... NOT USED
Exchange Range Separation                   ... NOT USED
Multipole approximations                    ... NOT USED
Finite Nucleus Model                        ... NOT USED
CABS basis                                  ... NOT available
Auxiliary Coulomb fitting basis             ... AVAILABLE
   # of basis functions in Aux-J            ...  10268
   # of shells in Aux-J                     ...   2940
   Maximum angular momentum in Aux-J        ...      4
Auxiliary J/K fitting basis                 ... AVAILABLE
   # of basis functions in Aux-JK           ...  10268
   # of shells in Aux-JK                    ...   2940
   Maximum angular momentum in Aux-JK       ...      4
Auxiliary Correlation fitting basis         ... AVAILABLE
   # of basis functions in Aux-C            ...  10268
   # of shells in Aux-C                     ...   2940
   Maximum angular momentum in Aux-C        ...      4
Auxiliary 'external' fitting basis          ... NOT available

Checking pre-screening integrals            ... done (  0.0 sec) Dimension = 744
   => SHARK Basis and OBASIS are compatible. Storing Pre-screening
Shell pair information
Shell pair cut-off parameter TPreSel        ...   1.0e-11
Total number of shell pairs                 ...    277140
Shell pairs after pre-screening             ...    154902
Total number of primitive shell pairs       ...    823733
Primitive shell pairs kept                  ...    284225
          la=0 lb=0:  29375 shell pairs
          la=1 lb=0:  51404 shell pairs
          la=1 lb=1:  21025 shell pairs
          la=2 lb=0:  20266 shell pairs
          la=2 lb=1:  15491 shell pairs
          la=2 lb=2:   2765 shell pairs
          la=3 lb=0:   7032 shell pairs
          la=3 lb=1:   5299 shell pairs
          la=3 lb=2:   1892 shell pairs
          la=3 lb=3:    353 shell pairs

Checking whether 4 symmetric matrices of dimension 2072 fit in memory
:Max Core in MB      =   5000.00
 MB in use           =    191.12
 MB left             =   4808.88
 MB needed           =     65.54
 Data fit in memory  = YES
Calculating RI/J V-Matrix + Cholesky decomp.... done ( 10.1 sec)
Calculating RI/JK V-Matrix + Cholesky decomp.... done (  4.0 sec)
Calculating RI/C V-Matrix + Cholesky decomp.... done (  4.0 sec)
Calculating Nuclear repulsion               ... done (  0.0 sec) ENN=   5818.750006395503 Eh

Diagonalization of the overlap matrix:
Smallest eigenvalue                        ... 5.646e-06
Time for diagonalization                   ...    5.796 sec
Threshold for overlap eigenvalues          ... 1.000e-07
Number of eigenvalues below threshold      ... 0
Time for construction of square roots      ...    0.483 sec
Total time needed                          ...    6.607 sec

-------------------
DFT GRID GENERATION
-------------------

General Integration Accuracy     IntAcc      ... 4.388
Radial Grid Type                 RadialGrid  ... OptM3 with GC (2021)
Angular Grid (max. ang.)         AngularGrid ... 4 (Lebedev-302)
Angular grid pruning method      GridPruning ... 4 (adaptive)
Weight generation scheme         WeightScheme... mBecke (2022)
Basis function cutoff            BFCut       ... 1.0000e-10
Integration weight cutoff        WCut        ... 1.0000e-14
Partially contracted basis set               ... off
Rotationally invariant grid construction     ... off
Angular grids for H and He will be reduced by one unit
Diffuse basis detected: some atoms will have their outermost
                        angular grid increased by 1.

Total number of grid points                  ...   376261
Total number of batches                      ...     5920
Average number of points per batch           ...       63
Average number of grid points per atom       ...     4589
Grids setup in   4.6 sec
Initializing property integral containers    ... done (  0.0 sec)

SHARK setup successfully completed in  48.6 seconds

Maximum memory used throughout the entire STARTUP-calculation: 263.2 MB
--------------------------------------------------------------------------
WARNING: There was an error initializing an OpenFabrics device.

  Local host:   c04b01n02
  Local device: mlx5_0
--------------------------------------------------------------------------
--------------------------------------------------------------------------
WARNING: There is at least one non-excluded one OpenFabrics device found,
but there are no active ports detected (or Open MPI was unable to use
them).  This is most certainly not what you wanted.  Check your
cables, subnet manager configuration, etc.  The openib BTL will be
ignored for this job.

  Local host: c04b01n02
--------------------------------------------------------------------------


           ************************************************************
           *        Program running with 60 parallel MPI-processes    *
           *              working on a common directory               *
           ************************************************************
-------------------------------------------------------------------------------
                                 ORCA GUESS
                   Start orbitals & Density for SCF / CASSCF
-------------------------------------------------------------------------------

------------
SCF SETTINGS
------------
Hamiltonian:
 Density Functional     Method          .... DFT(GTOs)
 Exchange Functional    Exchange        .... TPSS
 Correlation Functional Correlation     .... TPSS
 LDA part of GGA corr.  LDAOpt          .... PW91-LDA
 Gradients option       PostSCFGGA      .... off
   NL short-range parameter             ....  5.000000
 RI-approximation to the Coulomb term is turned on
   Number of AuxJ basis functions       .... 10268


General Settings:
 Integral files         IntName         .... nmr-conf-15
 Hartree-Fock type      HFTyp           .... RHF
 Total Charge           Charge          ....    0
 Multiplicity           Mult            ....    1
 Number of Electrons    NEL             ....  314
 Basis Dimension        Dim             .... 2072
 Nuclear Repulsion      ENuc            ....   5818.7500063955 Eh

Convergence Acceleration:
 AO-DIIS                CNVDIIS         .... on
   Start iteration      DIISMaxIt       ....    12
   Startup error        DIISStart       ....  0.200000
   # of expansion vecs  DIISMaxEq       ....     5
   Bias factor          DIISBfac        ....   1.050
   Max. coefficient     DIISMaxC        ....  10.000
 MO-DIIS                CNVKDIIS        .... off
 Trust-Rad. Augm. Hess. CNVTRAH         .... auto
   Auto Start mean grad. ratio tolernc. ....  1.125000
   Auto Start start iteration           ....    50
   Auto Start num. interpolation iter.  ....    10
   Max. Number of Micro iterations      ....    24
   Max. Number of Macro iterations      .... Maxiter - #DIIS iter
   Number of Davidson start vectors     ....     2
   Converg. threshold    (grad. norm)   ....   5.000e-05
   Grad. Scal. Fac. for Micro threshold ....   0.100
   Minimum threshold for Micro iter.    ....   1.000e-02
   NR start threshold (gradient norm)   ....   1.000e-04
   Initial trust radius                 ....   0.400
   Minimum AH scaling param. (alpha)    ....   1.000
   Maximum AH scaling param. (alpha)    .... 1000.000
   Quad. conv. algorithm                .... NR
   White noise on init. David. guess    .... on
   Maximum white noise                  ....   0.010
   Pseudo random numbers                .... off
   Inactive MOs                         .... canonical
   Orbital update algorithm             .... Taylor
   Preconditioner                       .... Diag
   Full preconditioner red. dimension   ....   250
 SOSCF                 CNVSOSCF           .... on
   Start iteration     SOSCFMaxIt         ....   150
   Startup grad/error  SOSCFStart         ....  0.003300
   Hessian update      SOSCFHessUp        .... L-BFGS
   Autom. constraints  SOSCFAutoConstrain .... off
 Level Shifting         CNVShift        .... on
   Level shift para.    LevelShift      ....    0.2500
   Turn off err/grad.   ShiftErr        ....    0.0010
 Zerner damping         CNVZerner       .... off
 Static damping         CNVDamp         .... on
   Fraction old density DampFac         ....    0.7000
   Max. Damping (<1)    DampMax         ....    0.9800
   Min. Damping (>=0)   DampMin         ....    0.0000
   Turn off err/grad.   DampErr         ....    0.1000

SCF Procedure:
 Maximum # iterations   MaxIter         ....   125
 SCF integral mode      SCFMode         .... Direct
   Integral package                     .... SHARK and LIBINT hybrid scheme
 Reset frequency        DirectResetFreq ....    20
 Integral Threshold     Thresh          ....  1.000e-10 Eh
 Primitive CutOff       TCut            ....  1.000e-11 Eh

Convergence Tolerance:
 Convergence Check Mode ConvCheckMode   .... Total+1el-Energy
 Convergence forced     ConvForced      .... 0
 Energy Change          TolE            ....  1.000e-06 Eh
 1-El. energy change                    ....  1.000e-03 Eh
 Orbital Gradient       TolG            ....  5.000e-05
 Orbital Rotation angle TolX            ....  5.000e-05
 DIIS Error             TolErr          ....  1.000e-06

------------------------------
INITIAL GUESS: MODEL POTENTIAL
------------------------------
Loading Hartree-Fock densities                     ... done
Calculating cut-offs                               ... done
Initializing the effective Hamiltonian             ... done
Setting up the integral package (SHARK)            ... done
Starting the Coulomb interaction                   ... [c04b01n02:3969735] 53 more processes have sent help message help-mpi-btl-openib.txt / error in device init
[c04b01n02:3969735] Set MCA parameter "orte_base_help_aggregate" to 0 to see all help / error messages
[c04b01n02:3969735] 5 more processes have sent help message help-mpi-btl-openib.txt / no active ports found
done (   4.7 sec)
Making the grid                                    ... done (   0.6 sec)
Mapping shells                                     ... done
Starting the XC term evaluation                    ... done (   1.2 sec)
  promolecular density results
     # of electrons  =    313.970254473
     EX              =   -260.373662816
     EC              =    -10.671758941
     EX+EC           =   -271.045421757
Transforming the Hamiltonian                       ... done (   0.3 sec)
Diagonalizing the Hamiltonian                      ... done (   0.5 sec)
Back transforming the eigenvectors                 ... done (   0.3 sec)
Now organizing SCF variables                       ... done
                      ------------------
                      INITIAL GUESS DONE (   8.7 sec)
                      ------------------
             **** ENERGY FILE WAS UPDATED (nmr-conf-15.en.tmp) ****
Finished Guess after  15.9 sec
Maximum memory used throughout the entire GUESS-calculation: 296.5 MB
--------------------------------------------------------------------------
WARNING: There was an error initializing an OpenFabrics device.

  Local host:   c04b01n02
  Local device: mlx5_0
--------------------------------------------------------------------------
--------------------------------------------------------------------------
WARNING: There is at least one non-excluded one OpenFabrics device found,
but there are no active ports detected (or Open MPI was unable to use
them).  This is most certainly not what you wanted.  Check your
cables, subnet manager configuration, etc.  The openib BTL will be
ignored for this job.

  Local host: c04b01n02
--------------------------------------------------------------------------


           ************************************************************
           *        Program running with 60 parallel MPI-processes    *
           *              working on a common directory               *
           ************************************************************

-------------------------------------------------------------------------------------------
                                      ORCA LEAN-SCF
                              memory conserving SCF solver
-------------------------------------------------------------------------------------------

--------------------
CPCM SOLVATION MODEL
--------------------
CPCM parameters:
  Epsilon                                         ...      33.4280
  Refrac                                          ...       1.3288
  Rsolv                                           ...       1.3000
  Surface type                                    ... GAUSSIAN VDW
  Discretization scheme                           ... Constant charge density
    Threshold for H atoms                         ...       5.0000 (charges/Ang^2)
    Threshold for non-H atoms                     ...       5.0000 (charges/Ang^2)
  Epsilon function type                           ...         CPCM
Solvent:                                          ... METHANOL
Radii:
  Scheme                                          ... Element-dependent radii
  Radius for C  used is    3.8550 Bohr (=   2.0400 Ang.)
  Radius for O  used is    3.4469 Bohr (=   1.8240 Ang.)
  Radius for H  used is    2.4944 Bohr (=   1.3200 Ang.)
Calculating surface                               ...        done! (  0.2s)
Cavity surface points                             ...         5919
Cavity Volume                                     ...    4493.3462
Cavity Surface-area                               ...    1924.2986
Calculating surface distance matrix               ...        [c04b01n02:3970132] 51 more processes have sent help message help-mpi-btl-openib.txt / error in device init
[c04b01n02:3970132] Set MCA parameter "orte_base_help_aggregate" to 0 to see all help / error messages
[c04b01n02:3970132] 7 more processes have sent help message help-mpi-btl-openib.txt / no active ports found
done! (  0.2s)
Performing Cholesky decomposition & store         ...        done! (  0.6s)
Overall time for CPCM initialization              ...                 1.3s

----------------------------------------D-I-I-S--------------------------------------------
Iteration    Energy (Eh)           Delta-E    RMSDP     MaxDP     DIISErr   Damp  Time(sec)
-------------------------------------------------------------------------------------------
               ***  Starting incremental Fock matrix formation  ***
    1    -2032.9968673787598163     0.00e+00  8.35e-03  3.29e-01  2.40e-01  0.700  16.1
    2    -2033.4078565875870481    -4.11e-01  6.81e-03  2.54e-01  8.53e-02  0.700   9.5
                               ***Turning on AO-DIIS***
    3    -2033.5614231033414399    -1.54e-01  2.94e-03  7.52e-02  2.48e-02  0.700   8.5
    4    -2033.6540584978101833    -9.26e-02  5.03e-03  6.90e-02  1.19e-02  0.000  13.4
    5    -2033.8593546052243255    -2.05e-01  1.34e-03  2.92e-02  4.72e-03  0.000   9.2
                              *** Initializing SOSCF ***
---------------------------------------S-O-S-C-F--------------------------------------
Iteration    Energy (Eh)           Delta-E    RMSDP     MaxDP     MaxGrad    Time(sec)
--------------------------------------------------------------------------------------
    6    -2033.8607108840624278    -1.36e-03  4.18e-04  8.99e-03  1.52e-03     8.4
               *** Restarting incremental Fock matrix formation ***
    7    -2033.8608246484018309    -1.14e-04  3.18e-04  4.96e-03  1.37e-04    10.0
    8    -2033.8608027362515713     2.19e-05  8.36e-05  2.33e-03  5.04e-04     9.3
    9    -2033.8608395034370915    -3.68e-05  8.37e-05  2.18e-03  9.85e-05     6.8
   10    -2033.8608394065468019     9.69e-08  2.18e-05  4.46e-04  1.00e-04     5.9
                 **** Energy Check signals convergence ****

               *****************************************************
               *                     SUCCESS                       *
               *           SCF CONVERGED AFTER  10 CYCLES          *
               *****************************************************

             **** ENERGY FILE WAS UPDATED (nmr-conf-15.en.tmp) ****

----------------
TOTAL SCF ENERGY
----------------

Total Energy       :      -2033.86084005472003 Eh          -55344.16710 eV

Components:
Nuclear Repulsion  :       5818.75000639550308 Eh          158336.23733 eV
Electronic Energy  :      -7852.57206518693329 Eh         -213679.34914 eV
One Electron Energy:     -14364.26823814714044 Eh         -390871.61029 eV
Two Electron Energy:       6511.69617296020715 Eh          177192.26115 eV
CPCM Dielectric    :         -0.03878126328975 Eh              -1.05529 eV

Virial components:
Potential Energy   :      -4061.58153835700159 Eh         -110521.25245 eV
Kinetic Energy     :       2027.72069830228179 Eh           55177.08535 eV
Virial Ratio       :          2.00302810034813

DFT components:
N(Alpha)           :      156.999780104178 electrons
N(Beta)            :      156.999780104178 electrons
N(Total)           :      313.999560208356 electrons
E(X)               :     -268.193476627081 Eh       
E(C)               :      -10.624956144053 Eh       
E(XC)              :     -278.818432771135 Eh       

CPCM Solvation Model Properties:
Surface-charge          :         -0.04283376687511
Corrected charge        :          0.00000000000000
Outlying charge corr.   :          0.00008015036390 Eh               0.00218 eV
Free-energy (cav+disp)  :  This term is not implemented in the current solvation scheme

---------------
SCF CONVERGENCE
---------------

  Last Energy change         ...   -9.6890e-08  Tolerance :   1.0000e-06
  Last MAX-Density change    ...    4.4584e-04  Tolerance :   1.0000e-05
  Last RMS-Density change    ...    2.1756e-05  Tolerance :   1.0000e-06
  Last DIIS Error            ...    1.5174e-03  Tolerance :   1.0000e-06
  Last Orbital Gradient      ...    1.0036e-04  Tolerance :   5.0000e-05
  Last Orbital Rotation      ...    1.9686e-04  Tolerance :   5.0000e-05


----------------
ORBITAL ENERGIES
----------------

  NO   OCC          E(Eh)            E(eV) 
   0   2.0000     -18.919200      -514.8176 
   1   2.0000     -18.918042      -514.7861 
   2   2.0000     -18.916604      -514.7470 
   3   2.0000     -18.914096      -514.6787 
   4   2.0000     -18.912858      -514.6450 
   5   2.0000     -18.910290      -514.5752 
   6   2.0000     -18.907391      -514.4963 
   7   2.0000     -18.881063      -513.7799 
   8   2.0000     -18.879324      -513.7325 
   9   2.0000     -18.878858      -513.7198 
  10   2.0000     -18.864630      -513.3327 
  11   2.0000     -10.044335      -273.3202 
  12   2.0000     -10.044289      -273.3190 
  13   2.0000     -10.044202      -273.3166 
  14   2.0000     -10.043815      -273.3061 
  15   2.0000     -10.043594      -273.3001 
  16   2.0000     -10.041991      -273.2565 
  17   2.0000     -10.041618      -273.2463 
  18   2.0000     -10.040334      -273.2114 
  19   2.0000     -10.034991      -273.0660 
  20   2.0000     -10.033850      -273.0349 
  21   2.0000     -10.033378      -273.0221 
  22   2.0000     -10.032934      -273.0100 
  23   2.0000     -10.030786      -272.9516 
  24   2.0000     -10.029135      -272.9066 
  25   2.0000     -10.023291      -272.7476 
  26   2.0000     -10.019052      -272.6323 
  27   2.0000      -9.989706      -271.8337 
  28   2.0000      -9.986429      -271.7445 
  29   2.0000      -9.986305      -271.7412 
  30   2.0000      -9.983934      -271.6766 
  31   2.0000      -9.983828      -271.6738 
  32   2.0000      -9.983525      -271.6655 
  33   2.0000      -9.982946      -271.6498 
  34   2.0000      -9.982000      -271.6240 
  35   2.0000      -9.981789      -271.6183 
  36   2.0000      -9.981681      -271.6154 
  37   2.0000      -9.981601      -271.6132 
  38   2.0000      -9.980636      -271.5869 
  39   2.0000      -9.977286      -271.4957 
  40   2.0000      -9.976141      -271.4646 
  41   2.0000      -9.974402      -271.4173 
  42   2.0000      -1.015082       -27.6218 
  43   2.0000      -1.014439       -27.6043 
  44   2.0000      -1.011775       -27.5318 
  45   2.0000      -1.002599       -27.2821 
  46   2.0000      -0.989874       -26.9358 
  47   2.0000      -0.989564       -26.9274 
  48   2.0000      -0.985809       -26.8252 
  49   2.0000      -0.964056       -26.2333 
  50   2.0000      -0.961496       -26.1636 
  51   2.0000      -0.956812       -26.0362 
  52   2.0000      -0.943719       -25.6799 
  53   2.0000      -0.801054       -21.7978 
  54   2.0000      -0.797796       -21.7091 
  55   2.0000      -0.796305       -21.6686 
  56   2.0000      -0.759540       -20.6681 
  57   2.0000      -0.731406       -19.9026 
  58   2.0000      -0.717707       -19.5298 
  59   2.0000      -0.702548       -19.1173 
  60   2.0000      -0.701800       -19.0970 
  61   2.0000      -0.699278       -19.0283 
  62   2.0000      -0.698385       -19.0040 
  63   2.0000      -0.686716       -18.6865 
  64   2.0000      -0.670346       -18.2410 
  65   2.0000      -0.651127       -17.7181 
  66   2.0000      -0.647760       -17.6264 
  67   2.0000      -0.645075       -17.5534 
  68   2.0000      -0.638129       -17.3644 
  69   2.0000      -0.620367       -16.8810 
  70   2.0000      -0.616843       -16.7852 
  71   2.0000      -0.611403       -16.6371 
  72   2.0000      -0.580126       -15.7860 
  73   2.0000      -0.566902       -15.4262 
  74   2.0000      -0.559801       -15.2330 
  75   2.0000      -0.559599       -15.2275 
  76   2.0000      -0.548906       -14.9365 
  77   2.0000      -0.545477       -14.8432 
  78   2.0000      -0.542893       -14.7729 
  79   2.0000      -0.533428       -14.5153 
  80   2.0000      -0.516484       -14.0542 
  81   2.0000      -0.512548       -13.9471 
  82   2.0000      -0.507359       -13.8059 
  83   2.0000      -0.496284       -13.5046 
  84   2.0000      -0.484666       -13.1884 
  85   2.0000      -0.480236       -13.0679 
  86   2.0000      -0.475974       -12.9519 
  87   2.0000      -0.474264       -12.9054 
  88   2.0000      -0.468239       -12.7414 
  89   2.0000      -0.459594       -12.5062 
  90   2.0000      -0.457203       -12.4411 
  91   2.0000      -0.451182       -12.2773 
  92   2.0000      -0.446443       -12.1483 
  93   2.0000      -0.443559       -12.0699 
  94   2.0000      -0.439421       -11.9573 
  95   2.0000      -0.435240       -11.8435 
  96   2.0000      -0.428672       -11.6648 
  97   2.0000      -0.427743       -11.6395 
  98   2.0000      -0.423375       -11.5206 
  99   2.0000      -0.422024       -11.4839 
 100   2.0000      -0.418350       -11.3839 
 101   2.0000      -0.411216       -11.1898 
 102   2.0000      -0.408766       -11.1231 
 103   2.0000      -0.406777       -11.0690 
 104   2.0000      -0.402118       -10.9422 
 105   2.0000      -0.400599       -10.9009 
 106   2.0000      -0.400018       -10.8851 
 107   2.0000      -0.393947       -10.7198 
 108   2.0000      -0.390435       -10.6243 
 109   2.0000      -0.389522       -10.5994 
 110   2.0000      -0.384103       -10.4520 
 111   2.0000      -0.381913       -10.3924 
 112   2.0000      -0.378691       -10.3047 
 113   2.0000      -0.376720       -10.2511 
 114   2.0000      -0.374702       -10.1962 
 115   2.0000      -0.371835       -10.1181 
 116   2.0000      -0.369907       -10.0657 
 117   2.0000      -0.366103        -9.9622 
[...]
  X           0.5320763   -0.0468931   -0.8453968
  Y           0.7585080    0.4700854    0.4513151
  Z           0.3762451   -0.8813744    0.2856901

 --------------
 Nucleus  73H :
 --------------

Diamagnetic contribution to the shielding tensor (ppm) : 
            65.809         59.981        13.544
            40.711         83.570        20.044
           103.055        -54.384        87.135

Paramagnetic contribution to the shielding tensor (ppm): 
           -41.194        -61.841       -16.264
           -42.784        -57.451       -15.903
          -105.015         56.086       -55.271

Total shielding tensor (ppm): 
            24.615         -1.860        -2.720
            -2.072         26.119         4.141
            -1.960          1.702        31.864


 Diagonalized sT*s matrix:
 
 sDSO           120.440           84.002           32.072  iso=      78.838
 sPSO           -97.192          -58.653            1.928  iso=     -51.306
        ---------------  ---------------  ---------------
 Total           23.248           25.349           34.000  iso=      27.533

 Orientation: 
  X           0.8482898   -0.4402157   -0.2943034
  Y           0.5263584    0.7617404    0.3777543
  Z           0.0578894   -0.4753542    0.8778879

 --------------
 Nucleus  74H :
 --------------

Diamagnetic contribution to the shielding tensor (ppm) : 
           177.206         47.520        23.223
           134.640         88.079        29.776
            72.844        -11.428        98.261

Paramagnetic contribution to the shielding tensor (ppm): 
          -151.111        -47.094       -23.927
          -134.328        -56.957       -28.690
           -74.836         13.400       -71.929

Total shielding tensor (ppm): 
            26.095          0.426        -0.704
             0.312         31.122         1.085
            -1.992          1.972        26.332


 Diagonalized sT*s matrix:
 
 sDSO           152.924          118.924           91.698  iso=     121.182
 sPSO          -128.334          -91.533          -60.130  iso=     -93.332
        ---------------  ---------------  ---------------
 Total           24.590           27.391           31.568  iso=      27.850

 Orientation: 
  X           0.6719017   -0.7405740    0.0099113
  Y          -0.1968359   -0.1914524   -0.9615621
  Z           0.7140054    0.6441243   -0.2744088

 --------------
 Nucleus  75H :
 --------------

Diamagnetic contribution to the shielding tensor (ppm) : 
           122.167        -53.823         9.164
            67.816         -1.829        16.558
            41.992       -110.803       -61.202

Paramagnetic contribution to the shielding tensor (ppm): 
           -87.077         48.298       -15.460
           -72.232         26.738       -16.178
           -47.305        111.057        85.460

Total shielding tensor (ppm): 
            35.090         -5.524        -6.296
            -4.416         24.908         0.380
            -5.313          0.254        24.258


 Diagonalized sT*s matrix:
 
 sDSO           -17.399           21.623           54.911  iso=      19.712
 sPSO            38.141            2.725          -15.745  iso=       8.374
        ---------------  ---------------  ---------------
 Total           20.742           24.348           39.167  iso=      28.085

 Orientation: 
  X          -0.4785621    0.0560995   -0.8762598
  Y          -0.4968437    0.8055249    0.3229180
  Z          -0.7239646   -0.5899004    0.3576210

 --------------
 Nucleus  76H :
 --------------

Diamagnetic contribution to the shielding tensor (ppm) : 
           -56.252        -11.334        28.433
           -83.456         47.577        23.671
          -224.655         82.986        16.108

Paramagnetic contribution to the shielding tensor (ppm): 
            76.706          4.555       -25.518
            77.133        -11.342       -33.456
           227.773        -90.633        10.902

Total shielding tensor (ppm): 
            20.454         -6.779         2.915
            -6.323         36.235        -9.785
             3.118         -7.647        27.009


 Diagonalized sT*s matrix:
 
 sDSO           -76.661          102.305          -18.212  iso=       2.477
 sPSO            94.748          -80.385           61.904  iso=      25.422
        ---------------  ---------------  ---------------
 Total           18.086           21.920           43.692  iso=      27.899

 Orientation: 
  X           0.9385871   -0.1828116    0.2926333
  Y           0.3447506    0.4619873   -0.8171381
  Z           0.0141895    0.8678408    0.4966398

 --------------
 Nucleus  77H :
 --------------

Diamagnetic contribution to the shielding tensor (ppm) : 
            11.377         17.992        41.965
           -26.390         32.950        50.213
          -148.733        117.211         0.055

Paramagnetic contribution to the shielding tensor (ppm): 
            29.027        -16.993       -40.150
            29.053        -18.089       -51.822
           150.117       -119.171        25.086

Total shielding tensor (ppm): 
            40.404          0.999         1.815
             2.663         14.861        -1.609
             1.384         -1.960        25.141


 Diagonalized sT*s matrix:
 
 sDSO            62.974          -19.902            1.310  iso=      14.794
 sPSO           -48.574           45.240           39.359  iso=      12.008
        ---------------  ---------------  ---------------
 Total           14.399           25.337           40.669  iso=      26.802

 Orientation: 
  X          -0.0658075   -0.0875148   -0.9939872
  Y           0.9817020   -0.1840675   -0.0487881
  Z           0.1786911    0.9790099   -0.0980265

 --------------
 Nucleus  78H :
 --------------

Diamagnetic contribution to the shielding tensor (ppm) : 
           -61.499         24.979        39.431
           -90.323         68.874        39.684
          -111.823         50.094       -26.372

Paramagnetic contribution to the shielding tensor (ppm): 
            85.317        -19.693       -40.131
            96.776        -42.028       -47.345
           113.390        -55.360        51.506

Total shielding tensor (ppm): 
            23.818          5.285        -0.700
             6.453         26.846        -7.661
             1.568         -5.267        25.134


 Diagonalized sT*s matrix:
 
 sDSO            80.146          -79.795          -19.348  iso=      -6.332
 sPSO           -63.529          104.653           53.671  iso=      31.598
        ---------------  ---------------  ---------------
 Total           16.617           24.858           34.323  iso=      25.266

 Orientation: 
  X           0.5385605    0.7401145   -0.4027196
  Y          -0.6664724    0.0817534   -0.7410337
  Z          -0.5155260    0.6674930    0.5372951

 --------------
 Nucleus  79H :
 --------------

Diamagnetic contribution to the shielding tensor (ppm) : 
          -144.370         27.664        36.784
          -159.280         66.738        34.419
            21.114        -18.664       -75.665

Paramagnetic contribution to the shielding tensor (ppm): 
           170.074        -27.286       -36.084
           162.383        -35.766       -36.736
           -21.781         15.486       100.780

Total shielding tensor (ppm): 
            25.705          0.378         0.700
             3.103         30.972        -2.316
            -0.667         -3.178        25.115


 Diagonalized sT*s matrix:
 
 sDSO           -53.623          -95.864           -3.810  iso=     -51.099
 sPSO            77.387          121.449           36.252  iso=      78.363
        ---------------  ---------------  ---------------
 Total           23.764           25.585           32.442  iso=      27.264

 Orientation: 
  X          -0.3709342   -0.8916416   -0.2595824
  Y           0.4102882    0.0934148   -0.9071589
  Z           0.8331095   -0.4429999    0.3311793

 --------------
 Nucleus  80H :
 --------------

Diamagnetic contribution to the shielding tensor (ppm) : 
          -122.590        -84.489        26.300
          -163.623        -28.005        22.485
            38.972        -57.974      -220.380

Paramagnetic contribution to the shielding tensor (ppm): 
           150.016         80.496       -24.945
           159.819         59.982       -25.323
           -36.378         56.681       245.149

Total shielding tensor (ppm): 
            27.426         -3.994         1.355
            -3.804         31.977        -2.839
             2.594         -1.293        24.768


 Diagonalized sT*s matrix:
 
 sDSO          -225.291         -198.717           53.032  iso=    -123.658
 sPSO           249.009          224.197          -18.059  iso=     151.716
        ---------------  ---------------  ---------------
 Total           23.718           25.480           34.974  iso=      28.057

 Orientation: 
  X          -0.4608021   -0.7352173    0.4971086
  Y           0.0119390   -0.5652050   -0.8248641
  Z           0.8874226   -0.3741641    0.2692254

 --------------
 Nucleus  81H :
 --------------

Diamagnetic contribution to the shielding tensor (ppm) : 
           -81.976        -18.029        45.035
          -108.262         30.101        46.541
           135.887       -121.776       -68.880

Paramagnetic contribution to the shielding tensor (ppm): 
           107.792         17.369       -45.319
           108.302         -3.881       -48.617
          -135.933        121.618        99.359

Total shielding tensor (ppm): 
            25.816         -0.660        -0.284
             0.041         26.220        -2.076
            -0.046         -0.158        30.479


 Diagonalized sT*s matrix:
 
 sDSO           -85.912           16.655          -51.498  iso=     -40.251
 sPSO           111.446            9.572           82.252  iso=      67.756
        ---------------  ---------------  ---------------
 Total           25.534           26.226           30.754  iso=      27.505

 Orientation: 
  X           0.7824985   -0.6223907   -0.0180525
  Y           0.6039338    0.7657109   -0.2212481
  Z           0.1515257    0.1622238    0.9750505



--------------------------------
CHEMICAL SHIELDING SUMMARY (ppm)
--------------------------------


  Nucleus  Element    Isotropic     Anisotropy
  -------  -------  ------------   ------------
      0       C           26.130        121.623 
      1       C           42.539         94.270 
      2       C           27.462        116.715 
      3       C           75.296        127.608 
      4       C           40.791        194.222 
      5       C           77.511        137.265 
      6       C          143.250         31.977 
      7       C          131.983         19.995 
      8       C          128.095         21.450 
      9       C          137.781         27.769 
     10       C           46.977        182.032 
     11       C           66.601        139.679 
     12       C           30.411        116.280 
     13       C           32.783        123.533 
     14       C           65.563        148.347 
     15       C           58.891        164.130 
     16       C          112.306         64.665 
     17       C          105.684         56.215 
     23       C           92.908         25.343 
     24       C          104.632         34.060 
     25       C           43.619        168.656 
     26       C          110.706         52.942 
     28       C           72.763        167.573 
     29       C           31.452        113.751 
     30       C           34.381        118.859 
     31       C           70.490        144.411 
     32       C           63.000        170.369 
     33       C          125.486         72.472 
     34       C          126.151         75.519 
     35       C          125.815         74.246 
     41       C          125.061         73.667 
     42       H           25.670          9.774 
     43       H           27.125          8.529 
     44       H           30.176          7.267 
     45       H           28.715          6.722 
     46       H           30.380          4.897 
     47       H           30.000          6.050 
     48       H           28.386          6.528 
     49       H           28.539          7.926 
     50       H           24.759          8.636 
     51       H           24.488          3.871 
     52       H           24.834          7.596 
     53       H           28.077          4.915 
     54       H           27.374          8.741 
     55       H           27.787          5.150 
     56       H           26.959          4.754 
     57       H           25.698         12.747 
     58       H           26.381          2.300 
     59       H           27.002          6.506 
     60       H           27.355          6.708 
     61       H           27.890          5.232 
     62       H           29.429         14.447 
     63       H           24.395         10.881 
     64       H           25.490          5.107 
     65       H           25.282          5.128 
     66       H           28.351         11.265 
     67       H           28.695          9.632 
     68       H           27.693          6.542 
     69       H           27.802          8.048 
     70       H           27.920          9.851 
     71       H           27.507          9.766 
     72       H           27.940         10.012 
     73       H           27.533          9.702 
     74       H           27.850          5.577 
     75       H           28.085         16.622 
     76       H           27.899         23.689 
     77       H           26.802         20.801 
     78       H           25.266         13.586 
     79       H           27.264          7.768 
     80       H           28.057         10.375 
     81       H           27.505          4.874 


NMR shielding tensor and spin rotation calculation done in   2.4 sec 

Maximum memory used throughout the entire PROP-calculation: 372.2 MB
[c04b01n02:3971414] 52 more processes have sent help message help-mpi-btl-openib.txt / error in device init
[c04b01n02:3971414] Set MCA parameter "orte_base_help_aggregate" to 0 to see all help / error messages
[c04b01n02:3971414] 6 more processes have sent help message help-mpi-btl-openib.txt / no active ports found
--------------------------------------------------------------------------
WARNING: There is at least one non-excluded one OpenFabrics device found,
but there are no active ports detected (or Open MPI was unable to use
them).  This is most certainly not what you wanted.  Check your
cables, subnet manager configuration, etc.  The openib BTL will be
ignored for this job.

  Local host: c04b01n02
--------------------------------------------------------------------------
--------------------------------------------------------------------------
WARNING: There was an error initializing an OpenFabrics device.

  Local host:   c04b01n02
  Local device: mlx5_0
--------------------------------------------------------------------------
[c04b01n02:3971839] 12 more processes have sent help message help-mpi-btl-openib.txt / no active ports found
[c04b01n02:3971839] Set MCA parameter "orte_base_help_aggregate" to 0 to see all help / error messages
[c04b01n02:3971839] 46 more processes have sent help message help-mpi-btl-openib.txt / error in device init

--------------------------------
SUGGESTED CITATIONS FOR THIS RUN
--------------------------------

Below you find a list of papers that are relevant to this ORCA run
We neither can nor want to force you to cite these papers, but we appreciate if you do
You receive ORCA, which is the product of decades of hard work by many enthusiastic individuals, for free
The only thing we kindly ask in return is that you cite our papers,
We deeply appreciate it, if you show your appreciation for ORCA by not just citing the generic ORCA reference.

Please note that relegating all ORCA citations to the supporting information does *not* help us.
SI sections are not indexed - citations you put there will not count into any citation statistics
But we need these citations in order to attract the funding resources that allow us to do what we are doing

Therefore, if you are a happy ORCA user, please consider citing a few of the papers listed below in the main body of your paper

In addition to the list printed below, the program has created the file nmr-conf-15.bibtex that contains the list in bibtex format
You can import this file easily into all common literature databanks and citation aid programs


List of essential papers. We consider these as the minimum necessary citations

  1. Neese, F.
     Software update: the ORCA program system, version 6.0
     WIRES Comput. Molec. Sci. 2025 15(1), e70019
     doi.org/10.1002/wcms.7019

List of papers to cite with high priority. The work reported in these papers was absolutely
necessary for this run to complete.
Our perspective: the developers of density functionals and basis sets usually get cited in chemistry papers
Good! But without the algorithms to do something with them, the functionals or basis sets would not do anything.
Hence, in our opinion, the algorithm design and method developments papers are equally worthy of getting cited

  1. Neese, F.
     An improvement of the resolution of the identity approximation for the formation of the Coulomb matrix
     J. Comp. Chem. 2003 24(14), 1740-1747
     doi.org/10.1002/jcc.10318
  2. Stoychev, G.L.; Auer, A.A.; Neese, F.
     Automatic Generation of Auxiliary Basis Sets
     J. Theo. Comp. Chem. 2017 13 , 554-562
     doi.org/10.1021/acs.jctc.6b01041
  3. Stoychev, G.L.; Auer, A.A.; Izsak, R.; Neese, F.
     Self-Consistent Field Calculation of Nuclear Magnetic Resonance Chemical Shielding Constants Using Gauge-Including Atomic Orbitals and Approximate Two-Electron Integrals
     J. Chem. Theory Comput. 2018 14(2), 619-637
     doi.org/10.1021/acs.jctc.7b01006
  4. Garcia-Rates, M.; Neese, F.
     Effect of the Solute Cavity on the Solvation Energy and its Derivatives within the Framework of the Gaussian Charge Scheme
     J. Comput. Chem. 2020 41 , 922-939
     doi.org/10.1002/jcc.26139
  5. Neese, F.
     The SHARK Integral Generation and Digestion System
     J. Comp. Chem. 2022 44(3), 381
     doi.org/10.1002/jcc.26942

List of suggested additional citations. These are papers that are important in the 'surrounding' of 
of this run, or papers that preceded the highly important papers. If you like your results we are grateful for a citation.

  1. Neese, F.
     The ORCA program system
     WIRES Comput. Molec. Sci. 2012 2(1), 73-78
     doi.org/10.1002/wcms.81
  2. Neese, F.
     Software update: the ORCA program system, version 4.0
     WIRES Comput. Molec. Sci. 2018 8(1), 1-6
     doi.org/10.1002/wcms.1327
  3. Neese, F.; Wennmohs, F.; Becker, U.; Riplinger, C.
     The ORCA quantum chemistry program package
     J. Chem. Phys. 2020 152(22), 224108
     doi.org/10.1063/5.0004608
  4. Neese, F.
     Software update: The ORCA program system—Version 5.0
     WIRES Comput. Molec. Sci. 2022 12(1), e1606
     doi.org/10.1002/wcms.1606

List of optional additional citations

  1. Neese, F.
     Approximate second-order SCF convergence for spin unrestricted wavefunctions
     Chem. Phys. Lett. 2000 325(1-3), 93-98
     doi.org/10.1016/s0009-2614(00)00662-x

Timings for individual modules:

Sum of individual times          ...      324.449 sec (=   5.407 min)
Startup calculation              ...      110.086 sec (=   1.835 min)  33.9 %
SCF iterations                   ...      135.619 sec (=   2.260 min)  41.8 %
Property integrals               ...       54.791 sec (=   0.913 min)  16.9 %
SCF Response                     ...       16.443 sec (=   0.274 min)   5.1 %
Property calculations            ...        7.510 sec (=   0.125 min)   2.3 %
                             ****ORCA TERMINATED NORMALLY****
TOTAL RUN TIME: 0 days 0 hours 5 minutes 50 seconds 81 msec
