
                                 *****************
                                 * O   R   C   A *
                                 *****************

                                            #,                                       
                                            ###                                      
                                            ####                                     
                                            #####                                    
                                            ######                                   
                                           ########,                                 
                                     ,,################,,,,,                         
                               ,,#################################,,                 
                          ,,##########################################,,             
                       ,#########################################, ''#####,          
                    ,#############################################,,   '####,        
                  ,##################################################,,,,####,       
                ,###########''''           ''''###############################       
              ,#####''   ,,,,##########,,,,          '''####'''          '####       
            ,##' ,,,,###########################,,,                        '##       
           ' ,,###''''                  '''############,,,                           
         ,,##''                                '''############,,,,        ,,,,,,###''
      ,#''                                            '''#######################'''  
     '                                                          ''''####''''         
             ,#######,   #######,   ,#######,      ##                                
            ,#'     '#,  ##    ##  ,#'     '#,    #''#        ,####,    ,#,          
            ##       ##  ##   ,#'  ##            #'  '#       #'       ,# #          
            ##       ##  #######   ##           ,######,      #####,      #          
            '#,     ,#'  ##    ##  '#,     ,#' ,#      #,     #,   #      #          
             '#######'   ##     ##  '#######'  #'      '#     '####' #    #          



                #########################################################
                #                        -***-                          #
                #          Department of theory and spectroscopy        #
                #                                                       #
                #                      Frank Neese                      #
                #                                                       #
                #     Directorship, Architecture, Infrastructure        #
                #                    SHARK, DRIVERS                     #
                #        Core code/Algorithms in most modules           #
                #                                                       #
                #        Max Planck Institute fuer Kohlenforschung      #
                #                Kaiser Wilhelm Platz 1                 #
                #                 D-45470 Muelheim/Ruhr                 #
                #                      Germany                          #
                #                                                       #
                #                  All rights reserved                  #
                #                        -***-                          #
                #########################################################


                         Program Version 6.1.0-f.0  -   RELEASE   -


 With contributions from (in alphabetic order):
[Max-Planck-Institut fuer Kohlenforschung]                               
  Daniel Aravena         : Magnetic Suceptibility                        
  Michael Atanasov       : Ab Initio Ligand Field Theory (pilot matlab implementation)
  Alexander A. Auer      : GIAO ZORA, VPT2 properties, NMR spectrum      
  Ute Becker             : All parallelization in ORCA, NUMFREQ, NUMCALC 
  Giovanni Bistoni       : ED, misc. LED, open-shell LED, HFLD           
  Dmytro Bykov           : pre 5.0 version of the SCF Hessian            
  Marcos Casanova-Páez   : Triplet and SCS-CIS(D). UHF-(DLPNO)-IP/EA/STEOM-CCSD. UHF-CVS-IP/STEOM-CCSD   
  Vijay G. Chilkuri      : MRCI spin determinant printing, contributions to CSF-ICE 
  Pauline Colinet        : FMM embedding                                 
  Dipayan Datta          : RHF DLPNO-CCSD density                        
  Achintya Kumar Dutta   : EOM-CC, STEOM-CC                              
  Nicolas Foglia         : Exact transition moments, OPA infrastructure, MCD improvements    
  Dmitry Ganyushin       : Spin-Orbit,Spin-Spin,Magnetic field MRCI      
  Miquel Garcia-Rates    : C-PCM and meta-GGA Hessian, CCSD/C-PCM, Gaussian charge scheme 
  Tiago L. C. Gouveia    : GS-ROHF, GS-ROCIS                             
  Yang Guo               : DLPNO-NEVPT2, F12-NEVPT2, CIM, IAO-localization        
  Andreas Hansen         : Spin unrestricted coupled pair/coupled cluster methods 
  Ingolf Harden          : AUTO-CI MPn and infrastructure                
  Benjamin Helmich-Paris : MC-RPA, TRAH-(SCF,CASSCF), AVAS, COSX integrals, SCF dyn. polar., MC-PDFT, srDFT 
  Lee Huntington         : MR-EOM, pCC                                   
  Robert Izsak           : Overlap fitted RIJCOSX, COSX-SCS-MP3, EOM     
  Riya Kayal             : Wick's Theorem for AUTO-CI, AUTO-CI UHF-CCSDT 
  Emily Kempfer          : AUTO-CI RHF CISDT and CCSDT, approximate NEVPT4
  Christian Kollmar      : KDIIS, OOCD, Brueckner-CCSD(T), CCSD density, CASPT2, CASPT2-K, improved NEVPT2 
  Axel Koslowski         : Symmetry handling                             
  Simone Kossmann        : meta-GGA functionals, TD-DFT gradient, OOMP2, (MP2 Hessian; deprecated post 5.0) 
  Lucas Lang             : DCDCAS, Hyperfine gauge corrections, ICE-SOC+SSC
  Marvin Lechner         : AUTO-CI (C++ implementation), FIC-MRCC        
  Spencer Leger          : CASSCF response                               
  Dagmar Lenk            : GEPOL surface, SMD, ORCA-2-JSON               
  Dimitrios Liakos       : Extrapolation schemes; Compound Job, Property file
  Dimitrios Manganas     : Further ROCIS development; embedding schemes. LFT, Crystal Embedding 
  Dimitrios Pantazis     : SARC Basis sets                               
  Anastasios Papadopoulos: AUTO-CI, single reference methods and gradients 
  Taras Petrenko         : pre 6.0 DFT Hessian and TD-DFT gradient,  ECA, NRVS 
  Petra Pikulova         : Analytic Raman intensities                    
  Peter Pinski           : DLPNO-MP2, DLPNO-MP2 Gradient                 
  Shashank Vittal Rao    : ES-AILFT, MagRelax                            
  Christoph Reimann      : Effective Core Potentials                     
  Marius Retegan         : Local ZFS, SOC                                
  Christoph Riplinger    : Optimizer, TS searches, QM/MM, DLPNO-CCSD(T), (RO)-DLPNO pert. Triples 
  Michael Roemelt        : Original ROCIS implementation, recursive CI coupling coefficients
  Masaaki Saitow         : Open-shell DLPNO-CCSD energy and density      
  Barbara Sandhoefer     : DKH picture change effects                    
  Yorick L. A. Schmerwitz: GMF and freeze-and-release deltaSCF, NEB S-IDPP initial path                    
  Kantharuban Sivalingam : CASSCF convergence/infrastructure, NEVPT2, NEVPT3, NEVPT4(SD), FIC-MRCI and CEPA variants
  Bernardo de Souza      : ESD, SOC TD-DFT                               
  Georgi L. Stoychev     : AutoAux, RI-MP2 NMR, DLPNO-MP2 response, X2C  
  Van Anh Tran           : RI-MP2 g-tensors                              
  Willem Van den Heuvel  : Paramagnetic NMR                              
  Zikuan Wang            : NOTCH, Electric field optimization            
  Frank Wennmohs         : Technical directorship and infrastructure     
  Hang Xu                : AUTO-CI-Response properties                   
                                                                         
[FACCTs GmbH]                                                            
  Markus Bursch, Nicolas Foglia, Miquel Garcia-Rates, Ingolf Harden, Hagen Neugebauer, Anastasios Papadopoulos, 
  Christoph Riplinger, Bernardo de Souza, Georgi L. Stoychev                                                    
                                                                 
  APM, various basis sets, CI-OPT, improved COSX, DLPNO-Multilevel,           
  DOCKER, DRACO, updates on ESD, Fragmentator, GOAT, IRC, LR-CPCM, L-BFGS, MBIS, meta-GGA TD-DFT gradient, ML-optimized integration grids, 
  MM, NACMEs, nearIR, NEB, NEB-TS, NL-DFT gradient (VV10), 2- and 3-layer-ONIOM, interface openCOSMO-RS, QMMM,   
  Crystal-QMMM, RESP, rigid body optimization, SF, symmetry and pop. for TD-DFT, various functionals, SOLVATOR                                   
                                                                         
[Other institutions]                                                     
  V. Asgeirsson          : NEB                                           
  Christoph Bannwarth    : sTDA-DFT, sTD-DFT, PBEh-3c, B97-3c, D3        
  Giovanni Bistoni       : ETS/NOCV, ADLD/ADEX, COVALED                  
  Martin Brehm           : Molecular dynamics                            
  Ronald Cardenas        : ETS/NOCV                                      
  Martina Colucci        : COVALED                                       
  Sebastian Ehlert       : rSCAN, r2SCAN, r2SCAN-3c, D4, dhf basis sets  
  Marvin Friede          : D4 for Fr, Ra, Ac-Lr                          
  Lars Goerigk           : TD-DFT with DH, B97 family of functionals     
  Stefan Grimme          : VdW corrections, initial TS optimization, DFT functionals, gCP, sTDA/sTD-DF 
  Waldemar Hujo          : DFT-NL                                        
  H. Jonsson             : NEB                                           
  Holger Kruse           : gCP                                           
  Marcel Mueller         : wB97X-3c, vDZP basis set                      
  Hagen Neugebauer       : wr2SCAN, Native XTB                           
  Gianluca Regni         : ADLD/ADEX                                     
  Tobias Risthaus        : pre 6.0 range-separated hybrid DFT and stability analysis
  Lukas Wittmann         : regularized MP2, r2SCAN double-hybrids, wr2SCAN        
                                                                         
We gratefully acknowledge several colleagues who have allowed us to      
interface, adapt or use parts of their codes:                            
  Ed Valeev, F. Pavosevic, A. Kumar             : LibInt (2-el integral package), F12 methods 
  Garnet Chan, S. Sharma, J. Yang, R. Olivares  : DMRG                   
  Ulf Ekstrom                                   : XCFun DFT Library      
  Mihaly Kallay                                 : mrcc  (arbitrary order and MRCC methods)
  Frank Weinhold                                : gennbo (NPA and NBO analysis)           
  Simon Mueller                                 : openCOSMO-RS                            
  Christopher J. Cramer and Donald G. Truhlar   : smd solvation model                     
  S Lehtola, MJT Oliveira, MAL Marques          : LibXC Library                           
  Liviu Ungur et al                             : ANISO software                          


 Your calculation uses the libint2 library for the computation of 2-el integrals
 For citations please refer to: http://libint.valeyev.net

 Your ORCA version has been built with support for libXC version: 7.0.0
 For citations please refer to: https://libxc.gitlab.io

 This ORCA versions uses:
   CBLAS   interface :  Fast vector & matrix operations
   LAPACKE interface :  Fast linear algebra routines
   SCALAPACK package :  Parallel linear algebra routines
   Shared memory     :  Shared parallel matrices
   BLAS/LAPACK       :  OpenBLAS 0.3.29  USE64BITINT DYNAMIC_ARCH NO_AFFINITY Cooperlake SINGLE_THREADED
        Core in use  :  Cooperlake
   Copyright (c) 2011-2014, The OpenBLAS Project


  ***********************************
  * Starting time: Tue Mar  3 20:59:37 2026
  * Host name:     c01b01n05
  * Process ID:    2596048
  * Working dir.:  /lustre1/jiangy/jiangy_liuxy/NMR/B9D7C2-SSSS-NMR/opt_conf
  ***********************************

NOTE: MaxCore=5000 MB was set to SCF,MP2,MDCI,CIPSI,MRCI,RASCI and CIS
      => If you want to overwrite this, your respective input block should be placed after the MaxCore statement


***************************************
The coordinates will be read from file: opt-conf-0.xyz
***************************************



Warning: The global flag for NMR shieldings has been found
         but shieldings for certain elements have also been explicitly requested in the EPRNMR block
         ==>> only the requested shieldings will be calculated

================================================================================

----- Orbital basis set information -----
Your calculation utilizes the basis: pcSseg-2
   F. Jensen, J. Chem. Theory Comput. 11, 132 (2015).

----- AuxJ basis set information -----
Your calculation utilizes the AutoAux generation procedure.
  G. L. Stoychev, A. A. Auer, F. Neese, J. Chem. Theory Comput. 13, 554 (2017)

----- AuxC basis set information -----
Your calculation utilizes the AutoAux generation procedure.
  G. L. Stoychev, A. A. Auer, F. Neese, J. Chem. Theory Comput. 13, 554 (2017)

----- AuxJK basis set information -----
Your calculation utilizes the AutoAux generation procedure.
  G. L. Stoychev, A. A. Auer, F. Neese, J. Chem. Theory Comput. 13, 554 (2017)

----- AuxX basis set information -----
Your calculation utilizes the AutoAux generation procedure.
  G. L. Stoychev, A. A. Auer, F. Neese, J. Chem. Theory Comput. 13, 554 (2017)

================================================================================
                                        WARNINGS
                       Please study these warnings very carefully!
================================================================================


================================================================================
                                       INPUT FILE
================================================================================
NAME = nmr-conf-0.inp
|  1> !TPSS PCSSEG-2 AUTOAUX NMR CPCM(Methanol)
|  2> 
|  3> %pal nprocs 60 end
|  4> %maxcore 5000
|  5> 
|  6> *XYZFILE 0 1 opt-conf-0.xyz
|  7> 
|  8> %EPRNMR
|  9>    NUCLEI = ALL C {SHIFT}
| 10>    NUCLEI = ALL H {SHIFT}
| 11>    TAU DOBSON
| 12> END
| 13> 
| 14> 
| 15>                          ****END OF INPUT****
================================================================================

                       ****************************
                       * Single Point Calculation *
                       ****************************

---------------------------------
CARTESIAN COORDINATES (ANGSTROEM)
---------------------------------
  C     30.216297  -25.176454   -0.244966
  C     30.229517  -25.845141    0.980962
  C     29.037619  -26.359097    1.496563
  C     27.847626  -26.227145    0.787671
  C     27.837324  -25.564133   -0.438704
  C     29.021787  -25.041750   -0.951278
  C     26.537833  -25.393722   -1.184512
  C     26.028837  -26.652234   -1.926127
  C     24.539127  -26.449174   -2.295020
  C     23.604502  -26.423448   -1.046539
  C     23.952772  -27.306581    0.130458
  C     24.052228  -28.697583    0.000143
  C     24.362459  -29.489863    1.093683
  C     24.575874  -28.906074    2.352330
  C     24.468017  -27.536137    2.491596
  C     24.162533  -26.744404    1.384872
  C     26.939054  -26.942831   -3.120618
  C     24.006835  -27.354733   -3.412146
  O     29.144225  -26.980961    2.705578
  O     31.415332  -24.695706   -0.667003
  O     31.378729  -25.950736    1.728471
  O     24.891026  -29.683206    3.431779
  O     24.486256  -30.849452    1.074985
  C     32.408962  -26.849177    1.261052
  C     32.030017  -28.316982    1.523728
  C     30.977408  -28.850643    0.556735
  C     33.660932  -26.437377    2.011961
  O     34.039425  -25.096995    1.710354
  C     29.923095  -29.627843    1.038781
  C     28.937508  -30.090234    0.179592
  C     29.009477  -29.790559   -1.184318
  C     30.067558  -29.049966   -1.675081
  C     31.049757  -28.585756   -0.807347
  C     31.474626  -24.042704   -1.933240
  C     27.959503  -27.527250    3.285570
  C     24.292580  -31.524835   -0.164884
  O     31.655447  -28.493980    2.883244
  O     26.799787  -28.270742   -3.651913
  O     24.124632  -28.757736   -3.179866
  O     27.848904  -30.828355    0.540505
  O     28.031356  -30.234842   -2.037887
  C     27.807881  -31.379922    1.856579
  H     26.924511  -26.623138    1.183484
  H     29.003831  -24.519375   -1.896364
  H     26.637945  -24.581689   -1.910884
  H     25.772768  -25.081393   -0.473690
  H     26.113231  -27.502461   -1.244438
  H     24.467539  -25.445579   -2.734383
  H     23.550765  -25.398950   -0.675655
  H     22.593704  -26.666033   -1.389174
  H     23.901068  -29.140937   -0.972945
  H     24.632826  -27.091862    3.465138
  H     24.092100  -25.670584    1.509040
  H     26.720133  -26.256767   -3.942446
  H     27.980107  -26.786368   -2.829687
  H     24.506300  -27.098986   -4.352498
  H     22.942688  -27.148805   -3.545984
  H     24.915348  -30.608117    3.144198
  H     32.569658  -26.684565    0.196469
  H     32.944899  -28.903932    1.393250
  H     33.504325  -26.563919    3.087838
  H     34.489895  -27.076032    1.704954
  H     33.264608  -24.540756    1.867516
  H     29.867414  -29.849115    2.092631
  H     30.114953  -28.835461   -2.735278
  H     31.864858  -28.004139   -1.215386
  H     31.156681  -24.712375   -2.735663
  H     30.855024  -23.142749   -1.942433
  H     32.517147  -23.769066   -2.075947
  H     27.493032  -28.250564    2.616987
  H     28.276687  -28.021576    4.200227
  H     27.244717  -26.736427    3.519678
  H     23.274186  -31.378473   -0.532690
  H     25.002394  -31.172587   -0.915850
  H     24.463695  -32.579190    0.036808
  H     30.872179  -27.936737    3.034853
  H     27.277829  -28.892312   -3.074509
  H     25.073997  -28.939793   -3.302054
  H     27.393793  -30.759619   -1.528813
  H     26.904373  -31.981060    1.898798
  H     28.685517  -32.004664    2.037625
  H     27.756423  -30.593268    2.610459

----------------------------
CARTESIAN COORDINATES (A.U.)
----------------------------
  NO LB      ZA    FRAG     MASS         X           Y           Z
   0 C     6.0000    0    12.011   57.100525  -47.576603   -0.462918
   1 C     6.0000    0    12.011   57.125507  -48.840238    1.853750
   2 C     6.0000    0    12.011   54.873147  -49.811475    2.828094
   3 C     6.0000    0    12.011   52.624386  -49.562121    1.488482
   4 C     6.0000    0    12.011   52.604918  -48.309211   -0.829030
   5 C     6.0000    0    12.011   54.843230  -47.322049   -1.797655
   6 C     6.0000    0    12.011   50.149237  -47.987179   -2.238403
   7 C     6.0000    0    12.011   49.187373  -50.365423   -3.639853
   8 C     6.0000    0    12.011   46.372229  -49.981696   -4.336959
   9 C     6.0000    0    12.011   44.606045  -49.933081   -1.977673
  10 C     6.0000    0    12.011   45.264180  -51.601959    0.246530
  11 C     6.0000    0    12.011   45.452124  -54.230573    0.000271
  12 C     6.0000    0    12.011   46.038375  -55.727765    2.066762
  13 C     6.0000    0    12.011   46.441671  -54.624563    4.445260
  14 C     6.0000    0    12.011   46.237852  -52.035757    4.708434
  15 C     6.0000    0    12.011   45.660570  -50.539600    2.617028
  16 C     6.0000    0    12.011   50.907434  -50.914571   -5.897113
  17 C     6.0000    0    12.011   45.366343  -51.692953   -6.448022
  18 O     8.0000    0    15.999   55.074603  -50.986627    5.112801
  19 O     8.0000    0    15.999   59.366373  -46.668122   -1.260453
  20 O     8.0000    0    15.999   59.297204  -49.039784    3.266338
  21 O     8.0000    0    15.999   47.037223  -56.093131    6.485122
  22 O     8.0000    0    15.999   46.272318  -58.297016    2.031427
  23 C     6.0000    0    12.011   61.244062  -50.737591    2.383042
  24 C     6.0000    0    12.011   60.527960  -53.511342    2.879429
  25 C     6.0000    0    12.011   58.538817  -54.519813    1.052077
  26 C     6.0000    0    12.011   63.609942  -49.959402    3.802055
  27 O     8.0000    0    15.999   64.325192  -47.426446    3.232101
  28 C     6.0000    0    12.011   56.546455  -55.988510    1.963011
  29 C     6.0000    0    12.011   54.683964  -56.862302    0.339379
  30 C     6.0000    0    12.011   54.819967  -56.295997   -2.238037
  31 C     6.0000    0    12.011   56.819450  -54.896481   -3.165444
  32 C     6.0000    0    12.011   58.675538  -54.019250   -1.525665
  33 C     6.0000    0    12.011   59.478424  -45.434127   -3.653294
  34 C     6.0000    0    12.011   52.835804  -52.018964    6.208828
  35 C     6.0000    0    12.011   45.906322  -59.573304   -0.311586
  36 O     8.0000    0    15.999   59.820125  -53.845819    5.448541
  37 O     8.0000    0    15.999   50.644259  -53.423959   -6.901115
  38 O     8.0000    0    15.999   45.588948  -54.344245   -6.009075
  39 O     8.0000    0    15.999   52.626801  -58.257147    1.021406
  40 O     8.0000    0    15.999   52.971586  -57.135571   -3.851048
  41 C     6.0000    0    12.011   52.549279  -59.299458    3.508426
  42 H     1.0000    0     1.008   50.879952  -50.310440    2.236460
  43 H     1.0000    0     1.008   54.809297  -46.334904   -3.583609
  44 H     1.0000    0     1.008   50.338421  -46.452659   -3.611047
  45 H     1.0000    0     1.008   48.703474  -47.396964   -0.895144
  46 H     1.0000    0     1.008   49.346855  -51.972119   -2.351647
  47 H     1.0000    0     1.008   46.236947  -48.085175   -5.167235
  48 H     1.0000    0     1.008   44.504495  -47.997060   -1.276802
  49 H     1.0000    0     1.008   42.695914  -50.391500   -2.625157
  50 H     1.0000    0     1.008   45.166474  -55.068391   -1.838600
  51 H     1.0000    0     1.008   46.549295  -51.196200    6.548162
  52 H     1.0000    0     1.008   45.527471  -48.510373    2.851673
  53 H     1.0000    0     1.008   50.493734  -49.618098   -7.450144
  54 H     1.0000    0     1.008   52.874740  -50.618900   -5.347333
  55 H     1.0000    0     1.008   46.310196  -51.209662   -8.225030
  56 H     1.0000    0     1.008   43.355398  -51.303807   -6.700938
  57 H     1.0000    0     1.008   47.083184  -57.840959    5.941673
  58 H     1.0000    0     1.008   61.547733  -50.426519    0.371273
  59 H     1.0000    0     1.008   62.256837  -54.620515    2.632861
  60 H     1.0000    0     1.008   63.313999  -50.198533    5.835167
  61 H     1.0000    0     1.008   65.176456  -51.166285    3.221897
  62 H     1.0000    0     1.008   62.860999  -46.375308    3.529093
  63 H     1.0000    0     1.008   56.441233  -56.406653    3.954500
  64 H     1.0000    0     1.008   56.909014  -54.491124   -5.168926
  65 H     1.0000    0     1.008   60.215854  -52.920153   -2.296747
  66 H     1.0000    0     1.008   58.877594  -46.699621   -5.169654
  67 H     1.0000    0     1.008   58.307544  -43.733458   -3.670667
  68 H     1.0000    0     1.008   61.448503  -44.917025   -3.922972
  69 H     1.0000    0     1.008   51.954301  -53.385829    4.945389
  70 H     1.0000    0     1.008   53.435195  -52.953104    7.937278
  71 H     1.0000    0     1.008   51.485053  -50.524524    6.651228
  72 H     1.0000    0     1.008   43.981837  -59.296720   -1.006638
  73 H     1.0000    0     1.008   47.247677  -58.907652   -1.730705
  74 H     1.0000    0     1.008   46.229684  -61.565747    0.069557
  75 H     1.0000    0     1.008   58.339963  -52.792782    5.735042
  76 H     1.0000    0     1.008   51.547625  -54.598556   -5.809981
  77 H     1.0000    0     1.008   47.382988  -54.688283   -6.239978
  78 H     1.0000    0     1.008   51.766767  -58.127256   -2.889038
  79 H     1.0000    0     1.008   50.841898  -60.435445    3.588207
  80 H     1.0000    0     1.008   54.207772  -60.480050    3.850553
  81 H     1.0000    0     1.008   52.452039  -57.812898    4.933052

--------------------------------
INTERNAL COORDINATES (ANGSTROEM)
--------------------------------
 C      0   0   0     0.000000000000     0.00000000     0.00000000
 C      1   0   0     1.396501663986     0.00000000     0.00000000
 C      2   1   0     1.396644527233   119.48572964     0.00000000
 C      3   2   1     1.391410246802   120.45637928     1.02982352
 C      4   3   2     1.394160814129   119.97230927   359.23209459
 C      5   4   3     1.392325890524   119.73413093     0.28771319
 C      5   4   3     1.507960614288   119.68085869   181.57512398
 C      7   5   4     1.546907848706   115.38657263   282.88585796
 C      8   7   5     1.548079813706   108.91474219   164.34880490
 C      9   8   7     1.559772008285   112.83276576   291.94128837
 C     10   9   8     1.512130465358   118.38454804   325.49445379
 C     11  10   9     1.400629052955   121.59775321   300.69166762
 C     12  11  10     1.385561303439   120.68706879   180.50105483
 C     13  12  11     1.403761776927   120.25768029     0.28915096
 C     14  13  12     1.381215357715   119.40714476     0.28261949
 C     11  10   9     1.390537739549   120.05292026   121.71113512
 C      8   7   5     1.529623967620   109.45956786   289.96609673
 C      9   8   7     1.533408598862   115.47898927   160.39602319
 O      3   2   1     1.363743444926   115.36464160   180.78047896
 O      1   2   3     1.359014029295   115.69930338   179.32701266
 O      2   1   3     1.374994253101   121.46161464   183.39629041
 O     14  13  12     1.366918135890   120.44257564   180.44464039
 O     13  12  11     1.365341893351   125.37284625   180.14969896
 C     21   2   1     1.444664704592   117.89767617   287.26187598
 C     24  21   2     1.538522774063   111.24948058   284.72401210
 C     25  24  21     1.525730871928   113.29182428    75.61229290
 C     24  21   2     1.516862451576   105.04570910   163.10616979
 O     27  24  21     1.425078536999   111.70256278   298.13124902
 C     26  25  24     1.395701865336   119.80360834   223.33096989
 C     29  26  25     1.386864670776   120.56539903   178.21457116
 C     30  29  26     1.398297197478   119.75236862     0.85251732
 C     31  30  29     1.381615077790   120.05097891     0.76841088
 C     32  31  30     1.390384233558   119.88635731   359.01249393
 C     20   1   2     1.425932486964   118.32373397   177.91785889
 C     19   3   2     1.427721168185   118.01853257   179.98080564
 C     23  13  12     1.425106410828   118.13255055     0.44870745
 O     25  24  21     1.421236859530   110.30673355   308.63777912
 O     17   8   7     1.437016458697   113.99158343   163.39159955
 O     18   9   8     1.426971715215   115.68283465    57.79152485
 O     30  29  26     1.363869129291   125.71315646   181.57641601
 O     31  30  29     1.372110654561   120.04641413   180.58173240
 C     40  30  29     1.427571480751   118.42404973   348.50450793
 H      4   3   2     1.079638638290   120.64282694   180.01117571
 H      6   5   4     1.079993045487   119.30665742   180.71051471
 H      7   5   4     1.094091380871   109.47381298   160.31185136
 H      7   5   4     1.090018613203   108.34301165    44.51657472
 H      8   7   5     1.093026938966   107.96522183    46.17102038
 H      9   8   7     1.097892979271   106.14150400    46.93448042
 H     10   9   8     1.090888986312   108.48995592    87.80422551
 H     10   9   8     1.094512884546   107.40647716   201.51916994
 H     12  11  10     1.079959912376   118.79001436     1.64598565
 H     15  14  13     1.082739899845   119.06145249   179.94128585
 H     16  11  10     1.083268157857   119.62731652   358.92784471
 H     17   8   7     1.092708548677   110.41530514   283.11568202
 H     17   8   7     1.092206247117   109.38809688    41.27158067
 H     18   9   8     1.095049916106   109.22955137   293.90011336
 H     18   9   8     1.092120016512   108.43116162   177.42909615
 H     22  14  13     0.968893434172   108.30746290   359.46959448
 H     24  21   2     1.089154076697   109.11548776    46.68105317
 H     25  24  21     1.094780382364   106.57750099   194.57523375
 H     27  24  21     1.094554375239   109.70123840    61.36753135
 H     27  24  21     1.090556410676   109.21048038   180.19617531
 H     28  27  24     0.966665634719   107.09327939    53.07293743
 H     29  26  25     1.078268545478   119.39565667   359.58763249
 H     32  31  30     1.082717326016   119.17917539   179.32649802
 H     33  32  31     1.081277966865   118.46348233   180.30599711
 H     34  20   1     1.092442461741   111.06548102   300.43054427
 H     34  20   1     1.092662287717   111.16611529    62.61020020
 H     34  20   1     1.087241458439   105.76460313   181.48884257
 H     35  19   3     1.089853783700   111.09393451    57.40066316
 H     35  19   3     1.086995974955   105.88462963   176.60006626
 H     35  19   3     1.091388478922   110.69219351   295.64596954
 H     36  23  13     1.092624719284   110.85826381   297.55217495
 H     36  23  13     1.091725257218   110.92763734    59.23421393
 H     36  23  13     1.087026336198   106.07243627   178.38017355
 H     37  25  24     0.973146183596   106.84855563    61.95296438
 H     38  17   8     0.973790026892   108.84672889   282.08352889
 H     39  18   9     0.974355929035   104.10683776   286.08440319
 H     41  31  30     0.970068526134   108.49492751   358.12609971
 H     42  40  30     1.086036661469   105.87887568   184.18214450
 H     42  40  30     1.092395070561   110.52806856   303.51888410
 H     42  40  30     1.090782381805   111.09227603    65.43975649

---------------------------
INTERNAL COORDINATES (A.U.)
---------------------------
 C      0   0   0     0.000000000000     0.00000000     0.00000000
 C      1   0   0     2.639005690499     0.00000000     0.00000000
 C      2   1   0     2.639275662910   119.48572964     0.00000000
 C      3   2   1     2.629384306387   120.45637928     1.02982352
 C      4   3   2     2.634582125349   119.97230927   359.23209459
 C      5   4   3     2.631114622257   119.73413093     0.28771319
 C      5   4   3     2.849632581745   119.68085869   181.57512398
 C      7   5   4     2.923232188467   115.38657263   282.88585796
 C      8   7   5     2.925446881356   108.91474219   164.34880490
 C      9   8   7     2.947541927015   112.83276576   291.94128837
 C     10   9   8     2.857512458285   118.38454804   325.49445379
 C     11  10   9     2.646805325298   121.59775321   300.69166762
 C     12  11  10     2.618331405258   120.68706879   180.50105483
 C     13  12  11     2.652725315659   120.25768029     0.28915096
 C     14  13  12     2.610118758048   119.40714476     0.28261949
 C     11  10   9     2.627735506629   120.05292026   121.71113512
 C      8   7   5     2.890570386685   109.45956786   289.96609673
 C      9   8   7     2.897722303250   115.47898927   160.39602319
 O      3   2   1     2.577101627841   115.36464160   180.78047896
 O      1   2   3     2.568164327525   115.69930338   179.32701266
 O      2   1   3     2.598362574077   121.46161464   183.39629041
 O     14  13  12     2.583100924323   120.44257564   180.44464039
 O     13  12  11     2.580122257602   125.37284625   180.14969896
 C     21   2   1     2.730020647021   117.89767617   287.26187598
 C     24  21   2     2.907386693780   111.24948058   284.72401210
 C     25  24  21     2.883213502012   113.29182428    75.61229290
 C     24  21   2     2.866454616306   105.04570910   163.10616979
 O     27  24  21     2.693008154258   111.70256278   298.13124902
 C     26  25  24     2.637494290088   119.80360834   223.33096989
 C     29  26  25     2.620794412578   120.56539903   178.21457116
 C     30  29  26     2.642398757062   119.75236862     0.85251732
 C     31  30  29     2.610874119520   120.05097891     0.76841088
 C     32  31  30     2.627445422346   119.88635731   359.01249393
 C     20   1   2     2.694621885824   118.32373397   177.91785889
 C     19   3   2     2.698002003472   118.01853257   179.98080564
 C     23  13  12     2.693060828160   118.13255055     0.44870745
 O     25  24  21     2.685748435945   110.30673355   308.63777912
 O     17   8   7     2.715567556876   113.99158343   163.39159955
 O     18   9   8     2.696585742609   115.68283465    57.79152485
 O     30  29  26     2.577339136869   125.71315646   181.57641601
 O     31  30  29     2.592913362555   120.04641413   180.58173240
 C     40  30  29     2.697719135216   118.42404973   348.50450793
 H      4   3   2     2.040221349968   120.64282694   180.01117571
 H      6   5   4     2.040891082509   119.30665742   180.71051471
 H      7   5   4     2.067533075330   109.47381298   160.31185136
 H      7   5   4     2.059836659830   108.34301165    44.51657472
 H      8   7   5     2.065521571645   107.96522183    46.17102038
 H      9   8   7     2.074717055177   106.14150400    46.93448042
 H     10   9   8     2.061481426640   108.48995592    87.80422551
 H     10   9   8     2.068329601841   107.40647716   201.51916994
 H     12  11  10     2.040828470004   118.79001436     1.64598565
 H     15  14  13     2.046081884976   119.06145249   179.94128585
 H     16  11  10     2.047080147947   119.62731652   358.92784471
 H     17   8   7     2.064919901194   110.41530514   283.11568202
 H     17   8   7     2.063970688809   109.38809688    41.27158067
 H     18   9   8     2.069344444413   109.22955137   293.90011336
 H     18   9   8     2.063807736581   108.43116162   177.42909615
 H     22  14  13     1.830943243540   108.30746290   359.46959448
 H     24  21   2     2.058202922602   109.11548776    46.68105317
 H     25  24  21     2.068835099457   106.57750099   194.57523375
 H     27  24  21     2.068408007886   109.70123840    61.36753135
 H     27  24  21     2.060852949771   109.21048038   180.19617531
 H     28  27  24     1.826733312692   107.09327939    53.07293743
 H     29  26  25     2.037632249775   119.39565667   359.58763249
 H     32  31  30     2.046039226622   119.17917539   179.32649802
 H     33  32  31     2.043319232018   118.46348233   180.30599711
 H     34  20   1     2.064417069757   111.06548102   300.43054427
 H     34  20   1     2.064832480649   111.16611529    62.61020020
 H     34  20   1     2.054588597895   105.76460313   181.48884257
 H     35  19   3     2.059525177211   111.09393451    57.40066316
 H     35  19   3     2.054124701340   105.88462963   176.60006626
 H     35  19   3     2.062425330879   110.69219351   295.64596954
 H     36  23  13     2.064761486599   110.85826381   297.55217495
 H     36  23  13     2.063061749627   110.92763734    59.23421393
 H     36  23  13     2.054182075773   106.07243627   178.38017355
 H     37  25  24     1.838979775267   106.84855563    61.95296438
 H     38  17   8     1.840196462770   108.84672889   282.08352889
 H     39  18   9     1.841265862839   104.10683776   286.08440319
 H     41  31  30     1.833163845530   108.49492751   358.12609971
 H     42  40  30     2.052311861575   105.87887568   184.18214450
 H     42  40  30     2.064327513406   110.52806856   303.51888410
 H     42  40  30     2.061279973318   111.09227603    65.43975649

---------------------
BASIS SET INFORMATION
---------------------
There are 3 groups of distinct atoms

 Group   1 Type C   : 11s7p2d1f contracted to 4s5p2d1f pattern {7211/31111/11/1}
 Group   2 Type O   : 11s7p2d1f contracted to 4s5p2d1f pattern {7211/31111/11/1}
 Group   3 Type H   : 6s3p1d contracted to 3s2p1d pattern {411/21/1}

Atom   0C    basis set group =>   1
Atom   1C    basis set group =>   1
Atom   2C    basis set group =>   1
Atom   3C    basis set group =>   1
Atom   4C    basis set group =>   1
Atom   5C    basis set group =>   1
Atom   6C    basis set group =>   1
Atom   7C    basis set group =>   1
Atom   8C    basis set group =>   1
Atom   9C    basis set group =>   1
Atom  10C    basis set group =>   1
Atom  11C    basis set group =>   1
Atom  12C    basis set group =>   1
Atom  13C    basis set group =>   1
Atom  14C    basis set group =>   1
Atom  15C    basis set group =>   1
Atom  16C    basis set group =>   1
Atom  17C    basis set group =>   1
Atom  18O    basis set group =>   2
Atom  19O    basis set group =>   2
Atom  20O    basis set group =>   2
Atom  21O    basis set group =>   2
Atom  22O    basis set group =>   2
Atom  23C    basis set group =>   1
Atom  24C    basis set group =>   1
Atom  25C    basis set group =>   1
Atom  26C    basis set group =>   1
Atom  27O    basis set group =>   2
Atom  28C    basis set group =>   1
Atom  29C    basis set group =>   1
Atom  30C    basis set group =>   1
Atom  31C    basis set group =>   1
Atom  32C    basis set group =>   1
Atom  33C    basis set group =>   1
Atom  34C    basis set group =>   1
Atom  35C    basis set group =>   1
Atom  36O    basis set group =>   2
Atom  37O    basis set group =>   2
Atom  38O    basis set group =>   2
Atom  39O    basis set group =>   2
Atom  40O    basis set group =>   2
Atom  41C    basis set group =>   1
Atom  42H    basis set group =>   3
Atom  43H    basis set group =>   3
Atom  44H    basis set group =>   3
Atom  45H    basis set group =>   3
Atom  46H    basis set group =>   3
Atom  47H    basis set group =>   3
Atom  48H    basis set group =>   3
Atom  49H    basis set group =>   3
Atom  50H    basis set group =>   3
Atom  51H    basis set group =>   3
Atom  52H    basis set group =>   3
Atom  53H    basis set group =>   3
Atom  54H    basis set group =>   3
Atom  55H    basis set group =>   3
Atom  56H    basis set group =>   3
Atom  57H    basis set group =>   3
Atom  58H    basis set group =>   3
Atom  59H    basis set group =>   3
Atom  60H    basis set group =>   3
Atom  61H    basis set group =>   3
Atom  62H    basis set group =>   3
Atom  63H    basis set group =>   3
Atom  64H    basis set group =>   3
Atom  65H    basis set group =>   3
Atom  66H    basis set group =>   3
Atom  67H    basis set group =>   3
Atom  68H    basis set group =>   3
Atom  69H    basis set group =>   3
Atom  70H    basis set group =>   3
Atom  71H    basis set group =>   3
Atom  72H    basis set group =>   3
Atom  73H    basis set group =>   3
Atom  74H    basis set group =>   3
Atom  75H    basis set group =>   3
Atom  76H    basis set group =>   3
Atom  77H    basis set group =>   3
Atom  78H    basis set group =>   3
Atom  79H    basis set group =>   3
Atom  80H    basis set group =>   3
Atom  81H    basis set group =>   3
---------------------------------
AUXILIARY/J BASIS SET INFORMATION
---------------------------------
There are 3 groups of distinct atoms

 Group   1 Type C   : 15s13p12d5f5g contracted to 15s13p12d5f5g pattern {111111111111111/1111111111111/111111111111/11111/11111}
 Group   2 Type O   : 15s13p12d5f5g contracted to 15s13p12d5f5g pattern {111111111111111/1111111111111/111111111111/11111/11111}
 Group   3 Type H   : 12s4p3d2f contracted to 12s4p3d2f pattern {111111111111/1111/111/11}

Atom   0C    basis set group =>   1
Atom   1C    basis set group =>   1
Atom   2C    basis set group =>   1
Atom   3C    basis set group =>   1
Atom   4C    basis set group =>   1
Atom   5C    basis set group =>   1
Atom   6C    basis set group =>   1
Atom   7C    basis set group =>   1
Atom   8C    basis set group =>   1
Atom   9C    basis set group =>   1
Atom  10C    basis set group =>   1
Atom  11C    basis set group =>   1
Atom  12C    basis set group =>   1
Atom  13C    basis set group =>   1
Atom  14C    basis set group =>   1
Atom  15C    basis set group =>   1
Atom  16C    basis set group =>   1
Atom  17C    basis set group =>   1
Atom  18O    basis set group =>   2
Atom  19O    basis set group =>   2
Atom  20O    basis set group =>   2
Atom  21O    basis set group =>   2
Atom  22O    basis set group =>   2
Atom  23C    basis set group =>   1
Atom  24C    basis set group =>   1
Atom  25C    basis set group =>   1
Atom  26C    basis set group =>   1
Atom  27O    basis set group =>   2
Atom  28C    basis set group =>   1
Atom  29C    basis set group =>   1
Atom  30C    basis set group =>   1
Atom  31C    basis set group =>   1
Atom  32C    basis set group =>   1
Atom  33C    basis set group =>   1
Atom  34C    basis set group =>   1
Atom  35C    basis set group =>   1
Atom  36O    basis set group =>   2
Atom  37O    basis set group =>   2
Atom  38O    basis set group =>   2
Atom  39O    basis set group =>   2
Atom  40O    basis set group =>   2
Atom  41C    basis set group =>   1
Atom  42H    basis set group =>   3
Atom  43H    basis set group =>   3
Atom  44H    basis set group =>   3
Atom  45H    basis set group =>   3
Atom  46H    basis set group =>   3
Atom  47H    basis set group =>   3
Atom  48H    basis set group =>   3
Atom  49H    basis set group =>   3
Atom  50H    basis set group =>   3
Atom  51H    basis set group =>   3
Atom  52H    basis set group =>   3
Atom  53H    basis set group =>   3
Atom  54H    basis set group =>   3
Atom  55H    basis set group =>   3
Atom  56H    basis set group =>   3
Atom  57H    basis set group =>   3
Atom  58H    basis set group =>   3
Atom  59H    basis set group =>   3
Atom  60H    basis set group =>   3
Atom  61H    basis set group =>   3
Atom  62H    basis set group =>   3
Atom  63H    basis set group =>   3
Atom  64H    basis set group =>   3
Atom  65H    basis set group =>   3
Atom  66H    basis set group =>   3
Atom  67H    basis set group =>   3
Atom  68H    basis set group =>   3
Atom  69H    basis set group =>   3
Atom  70H    basis set group =>   3
Atom  71H    basis set group =>   3
Atom  72H    basis set group =>   3
Atom  73H    basis set group =>   3
Atom  74H    basis set group =>   3
Atom  75H    basis set group =>   3
Atom  76H    basis set group =>   3
Atom  77H    basis set group =>   3
Atom  78H    basis set group =>   3
Atom  79H    basis set group =>   3
Atom  80H    basis set group =>   3
Atom  81H    basis set group =>   3
---------------------------------
AUXILIARY/C BASIS SET INFORMATION
---------------------------------
There are 3 groups of distinct atoms

 Group   1 Type C   : 15s13p12d5f5g contracted to 15s13p12d5f5g pattern {111111111111111/1111111111111/111111111111/11111/11111}
 Group   2 Type O   : 15s13p12d5f5g contracted to 15s13p12d5f5g pattern {111111111111111/1111111111111/111111111111/11111/11111}
 Group   3 Type H   : 12s4p3d2f contracted to 12s4p3d2f pattern {111111111111/1111/111/11}

Atom   0C    basis set group =>   1
Atom   1C    basis set group =>   1
Atom   2C    basis set group =>   1
Atom   3C    basis set group =>   1
Atom   4C    basis set group =>   1
Atom   5C    basis set group =>   1
Atom   6C    basis set group =>   1
Atom   7C    basis set group =>   1
Atom   8C    basis set group =>   1
Atom   9C    basis set group =>   1
Atom  10C    basis set group =>   1
Atom  11C    basis set group =>   1
Atom  12C    basis set group =>   1
Atom  13C    basis set group =>   1
Atom  14C    basis set group =>   1
Atom  15C    basis set group =>   1
Atom  16C    basis set group =>   1
Atom  17C    basis set group =>   1
Atom  18O    basis set group =>   2
Atom  19O    basis set group =>   2
Atom  20O    basis set group =>   2
Atom  21O    basis set group =>   2
Atom  22O    basis set group =>   2
Atom  23C    basis set group =>   1
Atom  24C    basis set group =>   1
Atom  25C    basis set group =>   1
Atom  26C    basis set group =>   1
Atom  27O    basis set group =>   2
Atom  28C    basis set group =>   1
Atom  29C    basis set group =>   1
Atom  30C    basis set group =>   1
Atom  31C    basis set group =>   1
Atom  32C    basis set group =>   1
Atom  33C    basis set group =>   1
Atom  34C    basis set group =>   1
Atom  35C    basis set group =>   1
Atom  36O    basis set group =>   2
Atom  37O    basis set group =>   2
Atom  38O    basis set group =>   2
Atom  39O    basis set group =>   2
Atom  40O    basis set group =>   2
Atom  41C    basis set group =>   1
Atom  42H    basis set group =>   3
Atom  43H    basis set group =>   3
Atom  44H    basis set group =>   3
Atom  45H    basis set group =>   3
Atom  46H    basis set group =>   3
Atom  47H    basis set group =>   3
Atom  48H    basis set group =>   3
Atom  49H    basis set group =>   3
Atom  50H    basis set group =>   3
Atom  51H    basis set group =>   3
Atom  52H    basis set group =>   3
Atom  53H    basis set group =>   3
Atom  54H    basis set group =>   3
Atom  55H    basis set group =>   3
Atom  56H    basis set group =>   3
Atom  57H    basis set group =>   3
Atom  58H    basis set group =>   3
Atom  59H    basis set group =>   3
Atom  60H    basis set group =>   3
Atom  61H    basis set group =>   3
Atom  62H    basis set group =>   3
Atom  63H    basis set group =>   3
Atom  64H    basis set group =>   3
Atom  65H    basis set group =>   3
Atom  66H    basis set group =>   3
Atom  67H    basis set group =>   3
Atom  68H    basis set group =>   3
Atom  69H    basis set group =>   3
Atom  70H    basis set group =>   3
Atom  71H    basis set group =>   3
Atom  72H    basis set group =>   3
Atom  73H    basis set group =>   3
Atom  74H    basis set group =>   3
Atom  75H    basis set group =>   3
Atom  76H    basis set group =>   3
Atom  77H    basis set group =>   3
Atom  78H    basis set group =>   3
Atom  79H    basis set group =>   3
Atom  80H    basis set group =>   3
Atom  81H    basis set group =>   3
----------------------------------
AUXILIARY/JK BASIS SET INFORMATION
----------------------------------
There are 3 groups of distinct atoms

 Group   1 Type C   : 15s13p12d5f5g contracted to 15s13p12d5f5g pattern {111111111111111/1111111111111/111111111111/11111/11111}
 Group   2 Type O   : 15s13p12d5f5g contracted to 15s13p12d5f5g pattern {111111111111111/1111111111111/111111111111/11111/11111}
 Group   3 Type H   : 12s4p3d2f contracted to 12s4p3d2f pattern {111111111111/1111/111/11}

Atom   0C    basis set group =>   1
Atom   1C    basis set group =>   1
Atom   2C    basis set group =>   1
Atom   3C    basis set group =>   1
Atom   4C    basis set group =>   1
Atom   5C    basis set group =>   1
Atom   6C    basis set group =>   1
Atom   7C    basis set group =>   1
Atom   8C    basis set group =>   1
Atom   9C    basis set group =>   1
Atom  10C    basis set group =>   1
Atom  11C    basis set group =>   1
Atom  12C    basis set group =>   1
Atom  13C    basis set group =>   1
Atom  14C    basis set group =>   1
Atom  15C    basis set group =>   1
Atom  16C    basis set group =>   1
Atom  17C    basis set group =>   1
Atom  18O    basis set group =>   2
Atom  19O    basis set group =>   2
Atom  20O    basis set group =>   2
Atom  21O    basis set group =>   2
Atom  22O    basis set group =>   2
Atom  23C    basis set group =>   1
Atom  24C    basis set group =>   1
Atom  25C    basis set group =>   1
Atom  26C    basis set group =>   1
Atom  27O    basis set group =>   2
Atom  28C    basis set group =>   1
Atom  29C    basis set group =>   1
Atom  30C    basis set group =>   1
Atom  31C    basis set group =>   1
Atom  32C    basis set group =>   1
Atom  33C    basis set group =>   1
Atom  34C    basis set group =>   1
Atom  35C    basis set group =>   1
Atom  36O    basis set group =>   2
Atom  37O    basis set group =>   2
Atom  38O    basis set group =>   2
Atom  39O    basis set group =>   2
Atom  40O    basis set group =>   2
Atom  41C    basis set group =>   1
Atom  42H    basis set group =>   3
Atom  43H    basis set group =>   3
Atom  44H    basis set group =>   3
Atom  45H    basis set group =>   3
Atom  46H    basis set group =>   3
Atom  47H    basis set group =>   3
Atom  48H    basis set group =>   3
Atom  49H    basis set group =>   3
Atom  50H    basis set group =>   3
Atom  51H    basis set group =>   3
Atom  52H    basis set group =>   3
Atom  53H    basis set group =>   3
Atom  54H    basis set group =>   3
Atom  55H    basis set group =>   3
Atom  56H    basis set group =>   3
Atom  57H    basis set group =>   3
Atom  58H    basis set group =>   3
Atom  59H    basis set group =>   3
Atom  60H    basis set group =>   3
Atom  61H    basis set group =>   3
Atom  62H    basis set group =>   3
Atom  63H    basis set group =>   3
Atom  64H    basis set group =>   3
Atom  65H    basis set group =>   3
Atom  66H    basis set group =>   3
Atom  67H    basis set group =>   3
Atom  68H    basis set group =>   3
Atom  69H    basis set group =>   3
Atom  70H    basis set group =>   3
Atom  71H    basis set group =>   3
Atom  72H    basis set group =>   3
Atom  73H    basis set group =>   3
Atom  74H    basis set group =>   3
Atom  75H    basis set group =>   3
Atom  76H    basis set group =>   3
Atom  77H    basis set group =>   3
Atom  78H    basis set group =>   3
Atom  79H    basis set group =>   3
Atom  80H    basis set group =>   3
Atom  81H    basis set group =>   3
---------------------------------
AUXILIARY/X BASIS SET INFORMATION
---------------------------------
There are 3 groups of distinct atoms

 Group   1 Type C   : 15s13p12d5f5g contracted to 15s13p12d5f5g pattern {111111111111111/1111111111111/111111111111/11111/11111}
 Group   2 Type O   : 15s13p12d5f5g contracted to 15s13p12d5f5g pattern {111111111111111/1111111111111/111111111111/11111/11111}
 Group   3 Type H   : 12s4p3d2f contracted to 12s4p3d2f pattern {111111111111/1111/111/11}

Atom   0C    basis set group =>   1
Atom   1C    basis set group =>   1
Atom   2C    basis set group =>   1
Atom   3C    basis set group =>   1
Atom   4C    basis set group =>   1
Atom   5C    basis set group =>   1
Atom   6C    basis set group =>   1
Atom   7C    basis set group =>   1
Atom   8C    basis set group =>   1
Atom   9C    basis set group =>   1
Atom  10C    basis set group =>   1
Atom  11C    basis set group =>   1
Atom  12C    basis set group =>   1
Atom  13C    basis set group =>   1
Atom  14C    basis set group =>   1
Atom  15C    basis set group =>   1
Atom  16C    basis set group =>   1
Atom  17C    basis set group =>   1
Atom  18O    basis set group =>   2
Atom  19O    basis set group =>   2
Atom  20O    basis set group =>   2
Atom  21O    basis set group =>   2
Atom  22O    basis set group =>   2
Atom  23C    basis set group =>   1
Atom  24C    basis set group =>   1
Atom  25C    basis set group =>   1
Atom  26C    basis set group =>   1
Atom  27O    basis set group =>   2
Atom  28C    basis set group =>   1
Atom  29C    basis set group =>   1
Atom  30C    basis set group =>   1
Atom  31C    basis set group =>   1
Atom  32C    basis set group =>   1
Atom  33C    basis set group =>   1
Atom  34C    basis set group =>   1
Atom  35C    basis set group =>   1
Atom  36O    basis set group =>   2
Atom  37O    basis set group =>   2
Atom  38O    basis set group =>   2
Atom  39O    basis set group =>   2
Atom  40O    basis set group =>   2
Atom  41C    basis set group =>   1
Atom  42H    basis set group =>   3
Atom  43H    basis set group =>   3
Atom  44H    basis set group =>   3
Atom  45H    basis set group =>   3
Atom  46H    basis set group =>   3
Atom  47H    basis set group =>   3
Atom  48H    basis set group =>   3
Atom  49H    basis set group =>   3
Atom  50H    basis set group =>   3
Atom  51H    basis set group =>   3
Atom  52H    basis set group =>   3
Atom  53H    basis set group =>   3
Atom  54H    basis set group =>   3
Atom  55H    basis set group =>   3
Atom  56H    basis set group =>   3
Atom  57H    basis set group =>   3
Atom  58H    basis set group =>   3
Atom  59H    basis set group =>   3
Atom  60H    basis set group =>   3
Atom  61H    basis set group =>   3
Atom  62H    basis set group =>   3
Atom  63H    basis set group =>   3
Atom  64H    basis set group =>   3
Atom  65H    basis set group =>   3
Atom  66H    basis set group =>   3
Atom  67H    basis set group =>   3
Atom  68H    basis set group =>   3
Atom  69H    basis set group =>   3
Atom  70H    basis set group =>   3
Atom  71H    basis set group =>   3
Atom  72H    basis set group =>   3
Atom  73H    basis set group =>   3
Atom  74H    basis set group =>   3
Atom  75H    basis set group =>   3
Atom  76H    basis set group =>   3
Atom  77H    basis set group =>   3
Atom  78H    basis set group =>   3
Atom  79H    basis set group =>   3
Atom  80H    basis set group =>   3
Atom  81H    basis set group =>   3
--------------------------------------------------------------------------
WARNING: There is at least one non-excluded one OpenFabrics device found,
but there are no active ports detected (or Open MPI was unable to use
them).  This is most certainly not what you wanted.  Check your
cables, subnet manager configuration, etc.  The openib BTL will be
ignored for this job.

  Local host: c01b01n05
--------------------------------------------------------------------------
--------------------------------------------------------------------------
WARNING: There was an error initializing an OpenFabrics device.

  Local host:   c01b01n05
  Local device: mlx5_0
--------------------------------------------------------------------------
[c01b01n05:2596049] 8 more processes have sent help message help-mpi-btl-openib.txt / no active ports found
[c01b01n05:2596049] Set MCA parameter "orte_base_help_aggregate" to 0 to see all help / error messages
[c01b01n05:2596049] 50 more processes have sent help message help-mpi-btl-openib.txt / error in device init


           ************************************************************
           *        Program running with 60 parallel MPI-processes    *
           *              working on a common directory               *
           ************************************************************
------------------------------------------------------------------------------
                             ORCA STARTUP CALCULATIONS
                           -- RI-GTO INTEGRALS CHOSEN --
------------------------------------------------------------------------------
------------------------------------------------------------------------------
                   ___                                                        
                  /   \      - P O W E R E D   B Y -                         
                 /     \                                                     
                 |  |  |   _    _      __       _____    __    __             
                 |  |  |  | |  | |    /  \     |  _  \  |  |  /  |          
                  \  \/   | |  | |   /    \    | | | |  |  | /  /          
                 / \  \   | |__| |  /  /\  \   | |_| |  |  |/  /          
                |  |  |   |  __  | /  /__\  \  |    /   |      \           
                |  |  |   | |  | | |   __   |  |    \   |  |\   \          
                \     /   | |  | | |  |  |  |  | |\  \  |  | \   \       
                 \___/    |_|  |_| |__|  |__|  |_| \__\ |__|  \__/        
                                                                              
                      - O R C A' S   B I G   F R I E N D -                    
                                      &                                       
                       - I N T E G R A L  F E E D E R -                       
                                                                              
 v1 FN, 2020, v2 2021, v3 2022-2024                                           
------------------------------------------------------------------------------


----------------------
SHARK INTEGRAL PACKAGE
----------------------

Number of atoms                             ...     82
Number of basis functions                   ...   2072
Number of shells                            ...    744
Maximum angular momentum                    ...      3
Integral batch strategy                     ... SHARK/LIBINT Hybrid
RI-J (if used) integral strategy            ... SPLIT-RIJ (Revised 2003 algorithm where possible)
Printlevel                                  ...      1
Contraction scheme used                     ... SEGMENTED contraction
Prescreening option                         ... SCHWARTZ
   Thresh                                   ... 1.000e-10
   Tcut                                     ... 1.000e-11
   Tpresel                                  ... 1.000e-11 
Coulomb Range Separation                    ... NOT USED
Exchange Range Separation                   ... NOT USED
Multipole approximations                    ... NOT USED
Finite Nucleus Model                        ... NOT USED
CABS basis                                  ... NOT available
Auxiliary Coulomb fitting basis             ... AVAILABLE
   # of basis functions in Aux-J            ...  10268
   # of shells in Aux-J                     ...   2940
   Maximum angular momentum in Aux-J        ...      4
Auxiliary J/K fitting basis                 ... AVAILABLE
   # of basis functions in Aux-JK           ...  10268
   # of shells in Aux-JK                    ...   2940
   Maximum angular momentum in Aux-JK       ...      4
Auxiliary Correlation fitting basis         ... AVAILABLE
   # of basis functions in Aux-C            ...  10268
   # of shells in Aux-C                     ...   2940
   Maximum angular momentum in Aux-C        ...      4
Auxiliary 'external' fitting basis          ... NOT available

Checking pre-screening integrals            ... done (  0.0 sec) Dimension = 744
   => SHARK Basis and OBASIS are compatible. Storing Pre-screening
Shell pair information
Shell pair cut-off parameter TPreSel        ...   1.0e-11
Total number of shell pairs                 ...    277140
Shell pairs after pre-screening             ...    152538
Total number of primitive shell pairs       ...    823733
Primitive shell pairs kept                  ...    279303
          la=0 lb=0:  29031 shell pairs
          la=1 lb=0:  50759 shell pairs
          la=1 lb=1:  20697 shell pairs
          la=2 lb=0:  19993 shell pairs
          la=2 lb=1:  15136 shell pairs
          la=2 lb=2:   2679 shell pairs
          la=3 lb=0:   6896 shell pairs
          la=3 lb=1:   5201 shell pairs
          la=3 lb=2:   1810 shell pairs
          la=3 lb=3:    336 shell pairs

Checking whether 4 symmetric matrices of dimension 2072 fit in memory
:Max Core in MB      =   5000.00
 MB in use           =    188.20
 MB left             =   4811.80
 MB needed           =     65.54
 Data fit in memory  = YES
Calculating RI/J V-Matrix + Cholesky decomp.... done ( 10.1 sec)
Calculating RI/JK V-Matrix + Cholesky decomp.... done ( 21.6 sec)
Calculating RI/C V-Matrix + Cholesky decomp.... done ( 19.0 sec)
Calculating Nuclear repulsion               ... done (  0.0 sec) ENN=   5756.593467427067 Eh

Diagonalization of the overlap matrix:
Smallest eigenvalue                        ... 6.568e-06
Time for diagonalization                   ...    0.503 sec
Threshold for overlap eigenvalues          ... 1.000e-07
Number of eigenvalues below threshold      ... 0
Time for construction of square roots      ...    0.344 sec
Total time needed                          ...    0.888 sec

-------------------
DFT GRID GENERATION
-------------------

General Integration Accuracy     IntAcc      ... 4.388
Radial Grid Type                 RadialGrid  ... OptM3 with GC (2021)
Angular Grid (max. ang.)         AngularGrid ... 4 (Lebedev-302)
Angular grid pruning method      GridPruning ... 4 (adaptive)
Weight generation scheme         WeightScheme... mBecke (2022)
Basis function cutoff            BFCut       ... 1.0000e-10
Integration weight cutoff        WCut        ... 1.0000e-14
Partially contracted basis set               ... off
Rotationally invariant grid construction     ... off
Angular grids for H and He will be reduced by one unit
Diffuse basis detected: some atoms will have their outermost
                        angular grid increased by 1.

Total number of grid points                  ...   376601
Total number of batches                      ...     5926
Average number of points per batch           ...       63
Average number of grid points per atom       ...     4593
Grids setup in   1.9 sec
Initializing property integral containers    ... done (  0.1 sec)

SHARK setup successfully completed in  67.1 seconds

Maximum memory used throughout the entire STARTUP-calculation: 260.2 MB
--------------------------------------------------------------------------
WARNING: There was an error initializing an OpenFabrics device.

  Local host:   c01b01n05
  Local device: mlx5_0
--------------------------------------------------------------------------
--------------------------------------------------------------------------
WARNING: There is at least one non-excluded one OpenFabrics device found,
but there are no active ports detected (or Open MPI was unable to use
them).  This is most certainly not what you wanted.  Check your
cables, subnet manager configuration, etc.  The openib BTL will be
ignored for this job.

  Local host: c01b01n05
--------------------------------------------------------------------------


           ************************************************************
           *        Program running with 60 parallel MPI-processes    *
           *              working on a common directory               *
           ************************************************************
-------------------------------------------------------------------------------
                                 ORCA GUESS
                   Start orbitals & Density for SCF / CASSCF
-------------------------------------------------------------------------------

------------
SCF SETTINGS
------------
Hamiltonian:
 Density Functional     Method          .... DFT(GTOs)
 Exchange Functional    Exchange        .... TPSS
 Correlation Functional Correlation     .... TPSS
 LDA part of GGA corr.  LDAOpt          .... PW91-LDA
 Gradients option       PostSCFGGA      .... off
   NL short-range parameter             ....  5.000000
 RI-approximation to the Coulomb term is turned on
   Number of AuxJ basis functions       .... 10268


General Settings:
 Integral files         IntName         .... nmr-conf-0
 Hartree-Fock type      HFTyp           .... RHF
 Total Charge           Charge          ....    0
 Multiplicity           Mult            ....    1
 Number of Electrons    NEL             ....  314
 Basis Dimension        Dim             .... 2072
 Nuclear Repulsion      ENuc            ....   5756.5934674271 Eh

Convergence Acceleration:
 AO-DIIS                CNVDIIS         .... on
   Start iteration      DIISMaxIt       ....    12
   Startup error        DIISStart       ....  0.200000
   # of expansion vecs  DIISMaxEq       ....     5
   Bias factor          DIISBfac        ....   1.050
   Max. coefficient     DIISMaxC        ....  10.000
 MO-DIIS                CNVKDIIS        .... off
 Trust-Rad. Augm. Hess. CNVTRAH         .... auto
   Auto Start mean grad. ratio tolernc. ....  1.125000
   Auto Start start iteration           ....    50
   Auto Start num. interpolation iter.  ....    10
   Max. Number of Micro iterations      ....    24
   Max. Number of Macro iterations      .... Maxiter - #DIIS iter
   Number of Davidson start vectors     ....     2
   Converg. threshold    (grad. norm)   ....   5.000e-05
   Grad. Scal. Fac. for Micro threshold ....   0.100
   Minimum threshold for Micro iter.    ....   1.000e-02
   NR start threshold (gradient norm)   ....   1.000e-04
   Initial trust radius                 ....   0.400
   Minimum AH scaling param. (alpha)    ....   1.000
   Maximum AH scaling param. (alpha)    .... 1000.000
   Quad. conv. algorithm                .... NR
   White noise on init. David. guess    .... on
   Maximum white noise                  ....   0.010
   Pseudo random numbers                .... off
   Inactive MOs                         .... canonical
   Orbital update algorithm             .... Taylor
   Preconditioner                       .... Diag
   Full preconditioner red. dimension   ....   250
 SOSCF                 CNVSOSCF           .... on
   Start iteration     SOSCFMaxIt         ....   150
   Startup grad/error  SOSCFStart         ....  0.003300
   Hessian update      SOSCFHessUp        .... L-BFGS
   Autom. constraints  SOSCFAutoConstrain .... off
 Level Shifting         CNVShift        .... on
   Level shift para.    LevelShift      ....    0.2500
   Turn off err/grad.   ShiftErr        ....    0.0010
 Zerner damping         CNVZerner       .... off
 Static damping         CNVDamp         .... on
   Fraction old density DampFac         ....    0.7000
   Max. Damping (<1)    DampMax         ....    0.9800
   Min. Damping (>=0)   DampMin         ....    0.0000
   Turn off err/grad.   DampErr         ....    0.1000

SCF Procedure:
 Maximum # iterations   MaxIter         ....   125
 SCF integral mode      SCFMode         .... Direct
   Integral package                     .... SHARK and LIBINT hybrid scheme
 Reset frequency        DirectResetFreq ....    20
 Integral Threshold     Thresh          ....  1.000e-10 Eh
 Primitive CutOff       TCut            ....  1.000e-11 Eh

Convergence Tolerance:
 Convergence Check Mode ConvCheckMode   .... Total+1el-Energy
 Convergence forced     ConvForced      .... 0
 Energy Change          TolE            ....  1.000e-06 Eh
 1-El. energy change                    ....  1.000e-03 Eh
 Orbital Gradient       TolG            ....  5.000e-05
 Orbital Rotation angle TolX            ....  5.000e-05
 DIIS Error             TolErr          ....  1.000e-06

------------------------------
INITIAL GUESS: MODEL POTENTIAL
------------------------------
Loading Hartree-Fock densities                     ... done
Calculating cut-offs                               ... done
Initializing the effective Hamiltonian             ... done
Setting up the integral package (SHARK)            ... done
Starting the Coulomb interaction                   ... done (   0.6 sec)
Making the grid                                    ... done (   0.4 sec)
Mapping shells                                     ... done
Starting the XC term evaluation                    ... done (   0.1 sec)
  promolecular density results
     # of electrons  =    313.966047325
     EX              =   -260.294736704
     EC              =    -10.643599805
     EX+EC           =   -270.938336509
Transforming the Hamiltonian                       ... done (   0.3 sec)
Diagonalizing the Hamiltonian                      ... done (   0.5 sec)
Back transforming the eigenvectors                 ... done (   0.4 sec)
[c01b01n05:2596469] 48 more processes have sent help message help-mpi-btl-openib.txt / error in device init
[c01b01n05:2596469] Set MCA parameter "orte_base_help_aggregate" to 0 to see all help / error messages
[c01b01n05:2596469] 10 more processes have sent help message help-mpi-btl-openib.txt / no active ports found
Now organizing SCF variables                       ... done
                      ------------------
                      INITIAL GUESS DONE (   7.2 sec)
                      ------------------
             **** ENERGY FILE WAS UPDATED (nmr-conf-0.en.tmp) ****
Finished Guess after  11.0 sec
Maximum memory used throughout the entire GUESS-calculation: 292.1 MB
--------------------------------------------------------------------------
WARNING: There was an error initializing an OpenFabrics device.

  Local host:   c01b01n05
  Local device: mlx5_0
--------------------------------------------------------------------------
--------------------------------------------------------------------------
WARNING: There is at least one non-excluded one OpenFabrics device found,
but there are no active ports detected (or Open MPI was unable to use
them).  This is most certainly not what you wanted.  Check your
cables, subnet manager configuration, etc.  The openib BTL will be
ignored for this job.

  Local host: c01b01n05
--------------------------------------------------------------------------


           ************************************************************
           *        Program running with 60 parallel MPI-processes    *
           *              working on a common directory               *
           ************************************************************

-------------------------------------------------------------------------------------------
                                      ORCA LEAN-SCF
                              memory conserving SCF solver
-------------------------------------------------------------------------------------------

--------------------
CPCM SOLVATION MODEL
--------------------
CPCM parameters:
  Epsilon                                         ...      33.4280
  Refrac                                          ...       1.3288
  Rsolv                                           ...       1.3000
  Surface type                                    ... GAUSSIAN VDW
  Discretization scheme                           ... Constant charge density
    Threshold for H atoms                         ...       5.0000 (charges/Ang^2)
    Threshold for non-H atoms                     ...       5.0000 (charges/Ang^2)
  Epsilon function type                           ...         CPCM
Solvent:                                          ... METHANOL
Radii:
  Scheme                                          ... Element-dependent radii
  Radius for C  used is    3.8550 Bohr (=   2.0400 Ang.)
  Radius for O  used is    3.4469 Bohr (=   1.8240 Ang.)
  Radius for H  used is    2.4944 Bohr (=   1.3200 Ang.)
Calculating surface                               ...        done! (  0.0s)
Cavity surface points                             ...         6163
Cavity Volume                                     ...    4516.7714
Cavity Surface-area                               ...    2058.2480
Calculating surface distance matrix               ...        done! (  0.2s)
Performing Cholesky decomposition & store         ...        done! (  0.7s)
Overall time for CPCM initialization              ...                 0.9s

----------------------------------------D-I-I-S--------------------------------------------
Iteration    Energy (Eh)           Delta-E    RMSDP     MaxDP     DIISErr   Damp  Time(sec)
-------------------------------------------------------------------------------------------
               ***  Starting incremental Fock matrix formation  ***
[c01b01n05:2596913] 49 more processes have sent help message help-mpi-btl-openib.txt / error in device init
[c01b01n05:2596913] Set MCA parameter "orte_base_help_aggregate" to 0 to see all help / error messages
[c01b01n05:2596913] 9 more processes have sent help message help-mpi-btl-openib.txt / no active ports found
    1    -2033.0309425262730656     0.00e+00  8.10e-03  2.67e-01  2.36e-01  0.700   8.1
    2    -2033.4336975306805471    -4.03e-01  6.70e-03  2.02e-01  8.35e-02  0.700   8.2
                               ***Turning on AO-DIIS***
    3    -2033.5848820923620224    -1.51e-01  2.89e-03  6.82e-02  2.50e-02  0.700   7.2
    4    -2033.6761738096665795    -9.13e-02  4.83e-03  7.38e-02  1.20e-02  0.000   6.4
    5    -2033.8779938320049041    -2.02e-01  1.28e-03  3.77e-02  4.70e-03  0.000   6.7
                              *** Initializing SOSCF ***
---------------------------------------S-O-S-C-F--------------------------------------
Iteration    Energy (Eh)           Delta-E    RMSDP     MaxDP     MaxGrad    Time(sec)
--------------------------------------------------------------------------------------
    6    -2033.8793562418013607    -1.36e-03  4.06e-04  8.52e-03  1.47e-03     7.9
               *** Restarting incremental Fock matrix formation ***
    7    -2033.8794606661294893    -1.04e-04  3.22e-04  6.79e-03  1.45e-04     6.4
    8    -2033.8794355743411870     2.51e-05  7.88e-05  2.23e-03  7.15e-04     6.1
    9    -2033.8794768852521884    -4.13e-05  6.52e-05  9.76e-04  1.25e-04     6.1
   10    -2033.8794763647574655     5.20e-07  2.33e-05  5.45e-04  1.30e-04    10.7
                 **** Energy Check signals convergence ****

               *****************************************************
               *                     SUCCESS                       *
               *           SCF CONVERGED AFTER  10 CYCLES          *
               *****************************************************

             **** ENERGY FILE WAS UPDATED (nmr-conf-0.en.tmp) ****

----------------
TOTAL SCF ENERGY
----------------

Total Energy       :      -2033.87947695260300 Eh          -55344.67424 eV

Components:
Nuclear Repulsion  :       5756.59346742706657 Eh          156644.87192 eV
Electronic Energy  :      -7790.43041538850593 Eh         -211988.38888 eV
One Electron Energy:     -14240.61475225967297 Eh         -387506.82788 eV
Two Electron Energy:       6450.18433687116703 Eh          175518.43899 eV
CPCM Dielectric    :         -0.04252899116385 Eh              -1.15727 eV

Virial components:
Potential Energy   :      -4061.12307990414774 Eh         -110508.77716 eV
Kinetic Energy     :       2027.24360295154474 Eh           55164.10293 eV
Virial Ratio       :          2.00327334810252

DFT components:
N(Alpha)           :      157.000666446878 electrons
N(Beta)            :      157.000666446878 electrons
N(Total)           :      314.001332893757 electrons
E(X)               :     -268.092137171224 Eh       
E(C)               :      -10.607299402010 Eh       
E(XC)              :     -278.699436573234 Eh       

CPCM Solvation Model Properties:
Surface-charge          :         -0.04341738258899
Corrected charge        :         -0.00000000000000
Outlying charge corr.   :          0.00008234790422 Eh               0.00224 eV
Free-energy (cav+disp)  :  This term is not implemented in the current solvation scheme

---------------
SCF CONVERGENCE
---------------

  Last Energy change         ...   -5.2049e-07  Tolerance :   1.0000e-06
  Last MAX-Density change    ...    5.4518e-04  Tolerance :   1.0000e-05
  Last RMS-Density change    ...    2.3250e-05  Tolerance :   1.0000e-06
  Last DIIS Error            ...    1.4696e-03  Tolerance :   1.0000e-06
  Last Orbital Gradient      ...    1.2992e-04  Tolerance :   5.0000e-05
  Last Orbital Rotation      ...    2.6392e-04  Tolerance :   5.0000e-05


----------------
ORBITAL ENERGIES
----------------

  NO   OCC          E(Eh)            E(eV) 
   0   2.0000     -18.921740      -514.8867 
   1   2.0000     -18.918613      -514.8016 
   2   2.0000     -18.918560      -514.8002 
   3   2.0000     -18.915988      -514.7302 
   4   2.0000     -18.913258      -514.6559 
   5   2.0000     -18.909046      -514.5413 
   6   2.0000     -18.903925      -514.4020 
   7   2.0000     -18.880439      -513.7629 
   8   2.0000     -18.878340      -513.7057 
   9   2.0000     -18.877508      -513.6831 
  10   2.0000     -18.864067      -513.3174 
  11   2.0000     -10.046402      -273.3765 
  12   2.0000     -10.046016      -273.3660 
  13   2.0000     -10.045465      -273.3510 
  14   2.0000     -10.045236      -273.3448 
  15   2.0000     -10.044939      -273.3367 
  16   2.0000     -10.041595      -273.2457 
  17   2.0000     -10.041238      -273.2360 
  18   2.0000     -10.040095      -273.2049 
  19   2.0000     -10.035195      -273.0715 
  20   2.0000     -10.035155      -273.0705 
  21   2.0000     -10.034101      -273.0418 
  22   2.0000     -10.033998      -273.0390 
  23   2.0000     -10.033948      -273.0376 
  24   2.0000     -10.030642      -272.9476 
  25   2.0000     -10.025463      -272.8067 
  26   2.0000     -10.020129      -272.6616 
  27   2.0000      -9.993124      -271.9267 
  28   2.0000      -9.992325      -271.9050 
  29   2.0000      -9.987248      -271.7668 
  30   2.0000      -9.985797      -271.7273 
  31   2.0000      -9.985667      -271.7238 
  32   2.0000      -9.985455      -271.7180 
  33   2.0000      -9.985202      -271.7112 
  34   2.0000      -9.983942      -271.6769 
  35   2.0000      -9.983776      -271.6724 
  36   2.0000      -9.981312      -271.6053 
  37   2.0000      -9.981175      -271.6016 
  38   2.0000      -9.978178      -271.5200 
  39   2.0000      -9.977476      -271.5009 
  40   2.0000      -9.976708      -271.4800 
  41   2.0000      -9.976693      -271.4796 
  42   2.0000      -1.015697       -27.6385 
  43   2.0000      -1.012269       -27.5452 
  44   2.0000      -1.009582       -27.4721 
  45   2.0000      -1.001038       -27.2396 
  46   2.0000      -0.990042       -26.9404 
  47   2.0000      -0.984432       -26.7878 
  48   2.0000      -0.982303       -26.7298 
  49   2.0000      -0.954520       -25.9738 
  50   2.0000      -0.953071       -25.9344 
  51   2.0000      -0.950701       -25.8699 
  52   2.0000      -0.935999       -25.4698 
  53   2.0000      -0.798124       -21.7181 
  54   2.0000      -0.797596       -21.7037 
  55   2.0000      -0.792920       -21.5765 
  56   2.0000      -0.758724       -20.6459 
  57   2.0000      -0.733662       -19.9640 
  58   2.0000      -0.717579       -19.5263 
  59   2.0000      -0.702922       -19.1275 
  60   2.0000      -0.700530       -19.0624 
  61   2.0000      -0.699164       -19.0252 
  62   2.0000      -0.694976       -18.9112 
  63   2.0000      -0.688580       -18.7372 
  64   2.0000      -0.670592       -18.2477 
  65   2.0000      -0.652192       -17.7470 
  66   2.0000      -0.650284       -17.6951 
  67   2.0000      -0.648309       -17.6414 
  68   2.0000      -0.639642       -17.4055 
  69   2.0000      -0.621198       -16.9036 
  70   2.0000      -0.618724       -16.8363 
  71   2.0000      -0.609367       -16.5817 
  72   2.0000      -0.581185       -15.8148 
  73   2.0000      -0.566693       -15.4205 
  74   2.0000      -0.560027       -15.2391 
  75   2.0000      -0.556958       -15.1556 
  76   2.0000      -0.548689       -14.9306 
  77   2.0000      -0.543611       -14.7924 
  78   2.0000      -0.542471       -14.7614 
  79   2.0000      -0.532844       -14.4994 
  80   2.0000      -0.513403       -13.9704 
  81   2.0000      -0.509113       -13.8537 
  82   2.0000      -0.504518       -13.7286 
  83   2.0000      -0.495670       -13.4879 
  84   2.0000      -0.483950       -13.1690 
  85   2.0000      -0.478398       -13.0179 
  86   2.0000      -0.476031       -12.9535 
  87   2.0000      -0.471050       -12.8179 
  88   2.0000      -0.464622       -12.6430 
  89   2.0000      -0.457060       -12.4372 
  90   2.0000      -0.453966       -12.3530 
  91   2.0000      -0.449643       -12.2354 
  92   2.0000      -0.446769       -12.1572 
  93   2.0000      -0.443777       -12.0758 
  94   2.0000      -0.439777       -11.9669 
  95   2.0000      -0.432921       -11.7804 
  96   2.0000      -0.429467       -11.6864 
  97   2.0000      -0.425337       -11.5740 
  98   2.0000      -0.423569       -11.5259 
  99   2.0000      -0.421991       -11.4830 
 100   2.0000      -0.419658       -11.4195 
 101   2.0000      -0.411072       -11.1859 
 102   2.0000      -0.405416       -11.0319 
 103   2.0000      -0.404136       -10.9971 
 104   2.0000      -0.401568       -10.9272 
 105   2.0000      -0.400411       -10.8957 
 106   2.0000      -0.397683       -10.8215 
 107   2.0000      -0.389895       -10.6096 
 108   2.0000      -0.388148       -10.5620 
 109   2.0000      -0.385657       -10.4943 
 110   2.0000      -0.384285       -10.4569 
 111   2.0000      -0.378122       -10.2892 
 112   2.0000      -0.377932       -10.2840 
 113   2.0000      -0.375912       -10.2291 
 114   2.0000      -0.374951       -10.2029 
 115   2.0000      -0.373202       -10.1553 
 116   2.0000      -0.370655       -10.0860 
 117   2.0000      -0.368564       -10.0291 
[...]
  X           0.6860187    0.0627017    0.7248771
  Y          -0.5227820    0.7353997    0.4311453
  Z          -0.5060409   -0.6747265    0.5372772

 --------------
 Nucleus  73H :
 --------------

Diamagnetic contribution to the shielding tensor (ppm) : 
           -74.697         29.810        38.286
          -101.267         69.252        43.026
          -109.376         70.000        22.370

Paramagnetic contribution to the shielding tensor (ppm): 
           101.359        -29.652       -40.312
           101.703        -43.270       -41.966
           107.356        -70.375         8.127

Total shielding tensor (ppm): 
            26.662          0.158        -2.026
             0.436         25.981         1.060
            -2.020         -0.375        30.498


 Diagonalized sT*s matrix:
 
 sDSO           -14.886           -4.781           36.592  iso=       5.642
 sPSO            40.351           31.083           -5.218  iso=      22.072
        ---------------  ---------------  ---------------
 Total           25.466           26.301           31.374  iso=      27.714

 Orientation: 
  X          -0.7090905    0.5865486   -0.3913456
  Y           0.6285218    0.7773488    0.0262531
  Z          -0.3196108    0.2273534    0.9198692

 --------------
 Nucleus  74H :
 --------------

Diamagnetic contribution to the shielding tensor (ppm) : 
          -120.850         47.256        30.477
          -130.223         92.479        29.701
           -26.001         17.646       -26.588

Paramagnetic contribution to the shielding tensor (ppm): 
           144.574        -45.947       -29.563
           131.081        -60.374       -28.895
            26.702        -14.464        52.895

Total shielding tensor (ppm): 
            23.724          1.309         0.913
             0.858         32.105         0.806
             0.701          3.182        26.308


 Diagonalized sT*s matrix:
 
 sDSO          -109.706          -26.788           81.536  iso=     -18.319
 sPSO           133.164           52.567          -48.637  iso=      45.698
        ---------------  ---------------  ---------------
 Total           23.458           25.779           32.899  iso=      27.379

 Orientation: 
  X           0.9723503   -0.1917397    0.1333072
  Y          -0.0700321    0.3051505    0.9497256
  Z          -0.2227789   -0.9328017    0.2832853

 --------------
 Nucleus  75H :
 --------------

Diamagnetic contribution to the shielding tensor (ppm) : 
           117.271        -84.186        29.719
            59.227        -30.779        31.025
           -11.769       -133.120       -40.334

Paramagnetic contribution to the shielding tensor (ppm): 
           -80.772         75.126       -33.972
           -67.646         55.135       -30.976
             8.118        133.156        61.711

Total shielding tensor (ppm): 
            36.499         -9.060        -4.253
            -8.419         24.356         0.049
            -3.651          0.036        21.377


 Diagonalized sT*s matrix:
 
 sDSO           -45.880           10.523           81.514  iso=      15.386
 sPSO            64.320           11.585          -39.831  iso=      12.025
        ---------------  ---------------  ---------------
 Total           18.440           22.108           41.683  iso=      27.411

 Orientation: 
  X          -0.4580344   -0.1503558    0.8761265
  Y          -0.6604004   -0.6021886   -0.4485981
  Z          -0.5950427    0.7840676   -0.1765280

 --------------
 Nucleus  76H :
 --------------

Diamagnetic contribution to the shielding tensor (ppm) : 
           -80.961         20.307        41.261
          -115.962         79.246        27.436
          -174.846        114.297         2.418

Paramagnetic contribution to the shielding tensor (ppm): 
           104.932        -29.650       -33.677
           106.014        -47.209       -37.546
           182.678       -122.230        22.999

Total shielding tensor (ppm): 
            23.972         -9.343         7.585
            -9.948         32.037       -10.110
             7.832         -7.934        25.417


 Diagonalized sT*s matrix:
 
 sDSO           -28.973           64.161          -34.484  iso=       0.234
 sPSO            45.668          -44.846           79.900  iso=      26.907
        ---------------  ---------------  ---------------
 Total           16.695           19.315           45.416  iso=      27.142

 Orientation: 
  X           0.8322279    0.2344057    0.5024447
  Y           0.2236566    0.6872875   -0.6910959
  Z          -0.5073208    0.6875244    0.5195535

 --------------
 Nucleus  77H :
 --------------

Diamagnetic contribution to the shielding tensor (ppm) : 
           -72.239         40.234        92.507
          -112.920         71.784        84.940
          -141.885        142.126        80.005

Paramagnetic contribution to the shielding tensor (ppm): 
           113.826        -41.609       -96.188
           111.048        -49.306       -84.609
           139.533       -141.629       -62.984

Total shielding tensor (ppm): 
            41.587         -1.376        -3.681
            -1.873         22.478         0.330
            -2.352          0.496        17.021


 Diagonalized sT*s matrix:
 
 sDSO            63.844           69.768          -54.062  iso=      26.517
 sPSO           -47.193          -47.423           96.152  iso=       0.512
        ---------------  ---------------  ---------------
 Total           16.651           22.345           42.089  iso=      27.029

 Orientation: 
  X           0.1290660    0.0843737   -0.9880400
  Y          -0.0338482    0.9961679    0.0806463
  Z           0.9910581    0.0230347    0.1314274

 --------------
 Nucleus  78H :
 --------------

Diamagnetic contribution to the shielding tensor (ppm) : 
           -93.361         81.345         9.434
          -123.103        118.533        11.455
          -117.604         48.270       -62.488

Paramagnetic contribution to the shielding tensor (ppm): 
           119.996        -74.816       -12.955
           130.457        -96.451       -16.903
           115.987        -51.899        90.176

Total shielding tensor (ppm): 
            26.634          6.529        -3.521
             7.355         22.083        -5.448
            -1.616         -3.629        27.688


 Diagonalized sT*s matrix:
 
 sDSO            96.182         -116.065          -17.433  iso=     -12.439
 sPSO           -79.613          141.008           52.327  iso=      37.907
        ---------------  ---------------  ---------------
 Total           16.569           24.943           34.894  iso=      25.468

 Orientation: 
  X           0.5050709    0.5972578   -0.6230461
  Y          -0.8364023    0.1606228   -0.5240530
  Z          -0.2129193    0.7858011    0.5806737

 --------------
 Nucleus  79H :
 --------------

Diamagnetic contribution to the shielding tensor (ppm) : 
          -109.905         47.845        26.383
          -133.056         82.552        19.436
            52.423        -71.114       -95.698

Paramagnetic contribution to the shielding tensor (ppm): 
           137.967        -47.078       -25.992
           135.799        -55.267       -22.555
           -53.809         67.518       122.327

Total shielding tensor (ppm): 
            28.062          0.767         0.391
             2.743         27.285        -3.119
            -1.385         -3.596        26.629


 Diagonalized sT*s matrix:
 
 sDSO           -34.946          -41.084          -47.021  iso=     -41.017
 sPSO            58.375           68.429           78.223  iso=      68.342
        ---------------  ---------------  ---------------
 Total           23.429           27.345           31.202  iso=      27.325

 Orientation: 
  X          -0.1859516   -0.8511984   -0.4907986
  Y           0.6923151    0.2409474   -0.6801795
  Z           0.6972244   -0.4662677    0.5444929

 --------------
 Nucleus  80H :
 --------------

Diamagnetic contribution to the shielding tensor (ppm) : 
          -127.317        -50.289        21.366
          -164.210          2.480         5.830
            72.660       -126.696      -206.597

Paramagnetic contribution to the shielding tensor (ppm): 
           153.521         47.685       -19.550
           162.301         28.171       -10.519
           -69.353        123.301       233.688

Total shielding tensor (ppm): 
            26.204         -2.605         1.816
            -1.909         30.651        -4.689
             3.307         -3.396        27.091


 Diagonalized sT*s matrix:
 
 sDSO          -198.860         -184.571           51.997  iso=    -110.478
 sPSO           222.658          210.129          -17.406  iso=     138.460
        ---------------  ---------------  ---------------
 Total           23.797           25.557           34.590  iso=      27.982

 Orientation: 
  X          -0.5595211    0.7417355    0.3698169
  Y           0.2820715    0.5899788   -0.7565452
  Z           0.7793406    0.3189882    0.5393281

 --------------
 Nucleus  81H :
 --------------

Diamagnetic contribution to the shielding tensor (ppm) : 
           -56.638         17.694        39.971
           -84.658         62.541        38.851
           135.564       -169.713       -61.095

Paramagnetic contribution to the shielding tensor (ppm): 
            83.530        -17.896       -40.819
            85.241        -36.694       -39.026
          -135.746        171.704        91.365

Total shielding tensor (ppm): 
            26.891         -0.202        -0.848
             0.583         25.848        -0.174
            -0.182          1.991        30.270


 Diagonalized sT*s matrix:
 
 sDSO           101.708          -55.790         -101.111  iso=     -18.397
 sPSO           -76.104           82.687          131.619  iso=      46.067
        ---------------  ---------------  ---------------
 Total           25.604           26.897           30.508  iso=      27.670

 Orientation: 
  X          -0.2273373    0.9660213   -0.1229661
  Y           0.9467624    0.2488095    0.2042911
  Z          -0.2279447    0.0699767    0.9711563



--------------------------------
CHEMICAL SHIELDING SUMMARY (ppm)
--------------------------------


  Nucleus  Element    Isotropic     Anisotropy
  -------  -------  ------------   ------------
      0       C           25.676        120.041 
      1       C           44.696         92.157 
      2       C           24.976        122.776 
      3       C           77.113        133.992 
      4       C           39.456        193.049 
      5       C           74.886        124.931 
      6       C          141.650         40.194 
      7       C          134.231         16.505 
      8       C          132.540          8.630 
      9       C          137.460         34.133 
     10       C           45.660        184.199 
     11       C           65.727        159.559 
     12       C           30.186        118.013 
     13       C           32.899        123.262 
     14       C           67.487        143.347 
     15       C           55.863        145.689 
     16       C          112.152         72.006 
     17       C          106.699         43.783 
     23       C           93.002         32.422 
     24       C          103.528         39.330 
     25       C           42.391        168.502 
     26       C          110.704         57.146 
     28       C           73.593        163.738 
     29       C           31.068        117.506 
     30       C           34.559        117.787 
     31       C           67.699        147.130 
     32       C           63.542        167.354 
     33       C          123.806         78.548 
     34       C          122.063         73.624 
     35       C          123.688         75.762 
     41       C          122.706         74.931 
     42       H           26.728          8.870 
     43       H           25.585         10.080 
     44       H           30.136          7.168 
     45       H           28.983          5.246 
     46       H           30.427          5.673 
     47       H           30.178          6.430 
     48       H           28.403          6.849 
     49       H           28.567          8.010 
     50       H           23.410         10.081 
     51       H           24.822          2.422 
     52       H           24.762          5.319 
     53       H           28.242          5.959 
     54       H           27.881          8.067 
     55       H           27.218          7.286 
     56       H           27.838          8.480 
     57       H           25.411         12.229 
     58       H           26.417          2.614 
     59       H           26.986          6.007 
     60       H           27.379          6.492 
     61       H           27.770          5.663 
     62       H           29.390         13.760 
     63       H           24.499         11.361 
     64       H           25.132          4.314 
     65       H           25.161          5.977 
     66       H           27.922          7.562 
     67       H           27.980          9.713 
     68       H           27.444          9.591 
     69       H           28.739         10.439 
     70       H           27.471          6.557 
     71       H           28.258          8.608 
     72       H           27.736          8.979 
     73       H           27.714          5.491 
     74       H           27.379          8.280 
     75       H           27.411         21.409 
     76       H           27.142         27.411 
     77       H           27.029         22.591 
     78       H           25.468         14.138 
     79       H           27.325          5.815 
     80       H           27.982          9.913 
     81       H           27.670          4.258 


NMR shielding tensor and spin rotation calculation done in   2.4 sec 

Maximum memory used throughout the entire PROP-calculation: 369.2 MB
[c01b01n05:2598312] 50 more processes have sent help message help-mpi-btl-openib.txt / error in device init
[c01b01n05:2598312] Set MCA parameter "orte_base_help_aggregate" to 0 to see all help / error messages
[c01b01n05:2598312] 8 more processes have sent help message help-mpi-btl-openib.txt / no active ports found
--------------------------------------------------------------------------
WARNING: There was an error initializing an OpenFabrics device.

  Local host:   c01b01n05
  Local device: mlx5_0
--------------------------------------------------------------------------
--------------------------------------------------------------------------
WARNING: There is at least one non-excluded one OpenFabrics device found,
but there are no active ports detected (or Open MPI was unable to use
them).  This is most certainly not what you wanted.  Check your
cables, subnet manager configuration, etc.  The openib BTL will be
ignored for this job.

  Local host: c01b01n05
--------------------------------------------------------------------------
[c01b01n05:2598756] 51 more processes have sent help message help-mpi-btl-openib.txt / error in device init
[c01b01n05:2598756] Set MCA parameter "orte_base_help_aggregate" to 0 to see all help / error messages
[c01b01n05:2598756] 7 more processes have sent help message help-mpi-btl-openib.txt / no active ports found

--------------------------------
SUGGESTED CITATIONS FOR THIS RUN
--------------------------------

Below you find a list of papers that are relevant to this ORCA run
We neither can nor want to force you to cite these papers, but we appreciate if you do
You receive ORCA, which is the product of decades of hard work by many enthusiastic individuals, for free
The only thing we kindly ask in return is that you cite our papers,
We deeply appreciate it, if you show your appreciation for ORCA by not just citing the generic ORCA reference.

Please note that relegating all ORCA citations to the supporting information does *not* help us.
SI sections are not indexed - citations you put there will not count into any citation statistics
But we need these citations in order to attract the funding resources that allow us to do what we are doing

Therefore, if you are a happy ORCA user, please consider citing a few of the papers listed below in the main body of your paper

In addition to the list printed below, the program has created the file nmr-conf-0.bibtex that contains the list in bibtex format
You can import this file easily into all common literature databanks and citation aid programs


List of essential papers. We consider these as the minimum necessary citations

  1. Neese, F.
     Software update: the ORCA program system, version 6.0
     WIRES Comput. Molec. Sci. 2025 15(1), e70019
     doi.org/10.1002/wcms.7019

List of papers to cite with high priority. The work reported in these papers was absolutely
necessary for this run to complete.
Our perspective: the developers of density functionals and basis sets usually get cited in chemistry papers
Good! But without the algorithms to do something with them, the functionals or basis sets would not do anything.
Hence, in our opinion, the algorithm design and method developments papers are equally worthy of getting cited

  1. Neese, F.
     An improvement of the resolution of the identity approximation for the formation of the Coulomb matrix
     J. Comp. Chem. 2003 24(14), 1740-1747
     doi.org/10.1002/jcc.10318
  2. Stoychev, G.L.; Auer, A.A.; Neese, F.
     Automatic Generation of Auxiliary Basis Sets
     J. Theo. Comp. Chem. 2017 13 , 554-562
     doi.org/10.1021/acs.jctc.6b01041
  3. Stoychev, G.L.; Auer, A.A.; Izsak, R.; Neese, F.
     Self-Consistent Field Calculation of Nuclear Magnetic Resonance Chemical Shielding Constants Using Gauge-Including Atomic Orbitals and Approximate Two-Electron Integrals
     J. Chem. Theory Comput. 2018 14(2), 619-637
     doi.org/10.1021/acs.jctc.7b01006
  4. Garcia-Rates, M.; Neese, F.
     Effect of the Solute Cavity on the Solvation Energy and its Derivatives within the Framework of the Gaussian Charge Scheme
     J. Comput. Chem. 2020 41 , 922-939
     doi.org/10.1002/jcc.26139
  5. Neese, F.
     The SHARK Integral Generation and Digestion System
     J. Comp. Chem. 2022 44(3), 381
     doi.org/10.1002/jcc.26942

List of suggested additional citations. These are papers that are important in the 'surrounding' of 
of this run, or papers that preceded the highly important papers. If you like your results we are grateful for a citation.

  1. Neese, F.
     The ORCA program system
     WIRES Comput. Molec. Sci. 2012 2(1), 73-78
     doi.org/10.1002/wcms.81
  2. Neese, F.
     Software update: the ORCA program system, version 4.0
     WIRES Comput. Molec. Sci. 2018 8(1), 1-6
     doi.org/10.1002/wcms.1327
  3. Neese, F.; Wennmohs, F.; Becker, U.; Riplinger, C.
     The ORCA quantum chemistry program package
     J. Chem. Phys. 2020 152(22), 224108
     doi.org/10.1063/5.0004608
  4. Neese, F.
     Software update: The ORCA program system—Version 5.0
     WIRES Comput. Molec. Sci. 2022 12(1), e1606
     doi.org/10.1002/wcms.1606

List of optional additional citations

  1. Neese, F.
     Approximate second-order SCF convergence for spin unrestricted wavefunctions
     Chem. Phys. Lett. 2000 325(1-3), 93-98
     doi.org/10.1016/s0009-2614(00)00662-x

Timings for individual modules:

Sum of individual times          ...      283.171 sec (=   4.720 min)
Startup calculation              ...      112.715 sec (=   1.879 min)  39.8 %
SCF iterations                   ...      102.880 sec (=   1.715 min)  36.3 %
Property integrals               ...       49.805 sec (=   0.830 min)  17.6 %
SCF Response                     ...       11.480 sec (=   0.191 min)   4.1 %
Property calculations            ...        6.291 sec (=   0.105 min)   2.2 %
                             ****ORCA TERMINATED NORMALLY****
TOTAL RUN TIME: 0 days 0 hours 5 minutes 8 seconds 85 msec
