
                                 *****************
                                 * O   R   C   A *
                                 *****************

                                            #,                                       
                                            ###                                      
                                            ####                                     
                                            #####                                    
                                            ######                                   
                                           ########,                                 
                                     ,,################,,,,,                         
                               ,,#################################,,                 
                          ,,##########################################,,             
                       ,#########################################, ''#####,          
                    ,#############################################,,   '####,        
                  ,##################################################,,,,####,       
                ,###########''''           ''''###############################       
              ,#####''   ,,,,##########,,,,          '''####'''          '####       
            ,##' ,,,,###########################,,,                        '##       
           ' ,,###''''                  '''############,,,                           
         ,,##''                                '''############,,,,        ,,,,,,###''
      ,#''                                            '''#######################'''  
     '                                                          ''''####''''         
             ,#######,   #######,   ,#######,      ##                                
            ,#'     '#,  ##    ##  ,#'     '#,    #''#        ,####,    ,#,          
            ##       ##  ##   ,#'  ##            #'  '#       #'       ,# #          
            ##       ##  #######   ##           ,######,      #####,      #          
            '#,     ,#'  ##    ##  '#,     ,#' ,#      #,     #,   #      #          
             '#######'   ##     ##  '#######'  #'      '#     '####' #    #          



                #########################################################
                #                        -***-                          #
                #          Department of theory and spectroscopy        #
                #                                                       #
                #                      Frank Neese                      #
                #                                                       #
                #     Directorship, Architecture, Infrastructure        #
                #                    SHARK, DRIVERS                     #
                #        Core code/Algorithms in most modules           #
                #                                                       #
                #        Max Planck Institute fuer Kohlenforschung      #
                #                Kaiser Wilhelm Platz 1                 #
                #                 D-45470 Muelheim/Ruhr                 #
                #                      Germany                          #
                #                                                       #
                #                  All rights reserved                  #
                #                        -***-                          #
                #########################################################


                         Program Version 6.1.0-f.0  -   RELEASE   -


 With contributions from (in alphabetic order):
[Max-Planck-Institut fuer Kohlenforschung]                               
  Daniel Aravena         : Magnetic Suceptibility                        
  Michael Atanasov       : Ab Initio Ligand Field Theory (pilot matlab implementation)
  Alexander A. Auer      : GIAO ZORA, VPT2 properties, NMR spectrum      
  Ute Becker             : All parallelization in ORCA, NUMFREQ, NUMCALC 
  Giovanni Bistoni       : ED, misc. LED, open-shell LED, HFLD           
  Dmytro Bykov           : pre 5.0 version of the SCF Hessian            
  Marcos Casanova-Páez   : Triplet and SCS-CIS(D). UHF-(DLPNO)-IP/EA/STEOM-CCSD. UHF-CVS-IP/STEOM-CCSD   
  Vijay G. Chilkuri      : MRCI spin determinant printing, contributions to CSF-ICE 
  Pauline Colinet        : FMM embedding                                 
  Dipayan Datta          : RHF DLPNO-CCSD density                        
  Achintya Kumar Dutta   : EOM-CC, STEOM-CC                              
  Nicolas Foglia         : Exact transition moments, OPA infrastructure, MCD improvements    
  Dmitry Ganyushin       : Spin-Orbit,Spin-Spin,Magnetic field MRCI      
  Miquel Garcia-Rates    : C-PCM and meta-GGA Hessian, CCSD/C-PCM, Gaussian charge scheme 
  Tiago L. C. Gouveia    : GS-ROHF, GS-ROCIS                             
  Yang Guo               : DLPNO-NEVPT2, F12-NEVPT2, CIM, IAO-localization        
  Andreas Hansen         : Spin unrestricted coupled pair/coupled cluster methods 
  Ingolf Harden          : AUTO-CI MPn and infrastructure                
  Benjamin Helmich-Paris : MC-RPA, TRAH-(SCF,CASSCF), AVAS, COSX integrals, SCF dyn. polar., MC-PDFT, srDFT 
  Lee Huntington         : MR-EOM, pCC                                   
  Robert Izsak           : Overlap fitted RIJCOSX, COSX-SCS-MP3, EOM     
  Riya Kayal             : Wick's Theorem for AUTO-CI, AUTO-CI UHF-CCSDT 
  Emily Kempfer          : AUTO-CI RHF CISDT and CCSDT, approximate NEVPT4
  Christian Kollmar      : KDIIS, OOCD, Brueckner-CCSD(T), CCSD density, CASPT2, CASPT2-K, improved NEVPT2 
  Axel Koslowski         : Symmetry handling                             
  Simone Kossmann        : meta-GGA functionals, TD-DFT gradient, OOMP2, (MP2 Hessian; deprecated post 5.0) 
  Lucas Lang             : DCDCAS, Hyperfine gauge corrections, ICE-SOC+SSC
  Marvin Lechner         : AUTO-CI (C++ implementation), FIC-MRCC        
  Spencer Leger          : CASSCF response                               
  Dagmar Lenk            : GEPOL surface, SMD, ORCA-2-JSON               
  Dimitrios Liakos       : Extrapolation schemes; Compound Job, Property file
  Dimitrios Manganas     : Further ROCIS development; embedding schemes. LFT, Crystal Embedding 
  Dimitrios Pantazis     : SARC Basis sets                               
  Anastasios Papadopoulos: AUTO-CI, single reference methods and gradients 
  Taras Petrenko         : pre 6.0 DFT Hessian and TD-DFT gradient,  ECA, NRVS 
  Petra Pikulova         : Analytic Raman intensities                    
  Peter Pinski           : DLPNO-MP2, DLPNO-MP2 Gradient                 
  Shashank Vittal Rao    : ES-AILFT, MagRelax                            
  Christoph Reimann      : Effective Core Potentials                     
  Marius Retegan         : Local ZFS, SOC                                
  Christoph Riplinger    : Optimizer, TS searches, QM/MM, DLPNO-CCSD(T), (RO)-DLPNO pert. Triples 
  Michael Roemelt        : Original ROCIS implementation, recursive CI coupling coefficients
  Masaaki Saitow         : Open-shell DLPNO-CCSD energy and density      
  Barbara Sandhoefer     : DKH picture change effects                    
  Yorick L. A. Schmerwitz: GMF and freeze-and-release deltaSCF, NEB S-IDPP initial path                    
  Kantharuban Sivalingam : CASSCF convergence/infrastructure, NEVPT2, NEVPT3, NEVPT4(SD), FIC-MRCI and CEPA variants
  Bernardo de Souza      : ESD, SOC TD-DFT                               
  Georgi L. Stoychev     : AutoAux, RI-MP2 NMR, DLPNO-MP2 response, X2C  
  Van Anh Tran           : RI-MP2 g-tensors                              
  Willem Van den Heuvel  : Paramagnetic NMR                              
  Zikuan Wang            : NOTCH, Electric field optimization            
  Frank Wennmohs         : Technical directorship and infrastructure     
  Hang Xu                : AUTO-CI-Response properties                   
                                                                         
[FACCTs GmbH]                                                            
  Markus Bursch, Nicolas Foglia, Miquel Garcia-Rates, Ingolf Harden, Hagen Neugebauer, Anastasios Papadopoulos, 
  Christoph Riplinger, Bernardo de Souza, Georgi L. Stoychev                                                    
                                                                 
  APM, various basis sets, CI-OPT, improved COSX, DLPNO-Multilevel,           
  DOCKER, DRACO, updates on ESD, Fragmentator, GOAT, IRC, LR-CPCM, L-BFGS, MBIS, meta-GGA TD-DFT gradient, ML-optimized integration grids, 
  MM, NACMEs, nearIR, NEB, NEB-TS, NL-DFT gradient (VV10), 2- and 3-layer-ONIOM, interface openCOSMO-RS, QMMM,   
  Crystal-QMMM, RESP, rigid body optimization, SF, symmetry and pop. for TD-DFT, various functionals, SOLVATOR                                   
                                                                         
[Other institutions]                                                     
  V. Asgeirsson          : NEB                                           
  Christoph Bannwarth    : sTDA-DFT, sTD-DFT, PBEh-3c, B97-3c, D3        
  Giovanni Bistoni       : ETS/NOCV, ADLD/ADEX, COVALED                  
  Martin Brehm           : Molecular dynamics                            
  Ronald Cardenas        : ETS/NOCV                                      
  Martina Colucci        : COVALED                                       
  Sebastian Ehlert       : rSCAN, r2SCAN, r2SCAN-3c, D4, dhf basis sets  
  Marvin Friede          : D4 for Fr, Ra, Ac-Lr                          
  Lars Goerigk           : TD-DFT with DH, B97 family of functionals     
  Stefan Grimme          : VdW corrections, initial TS optimization, DFT functionals, gCP, sTDA/sTD-DF 
  Waldemar Hujo          : DFT-NL                                        
  H. Jonsson             : NEB                                           
  Holger Kruse           : gCP                                           
  Marcel Mueller         : wB97X-3c, vDZP basis set                      
  Hagen Neugebauer       : wr2SCAN, Native XTB                           
  Gianluca Regni         : ADLD/ADEX                                     
  Tobias Risthaus        : pre 6.0 range-separated hybrid DFT and stability analysis
  Lukas Wittmann         : regularized MP2, r2SCAN double-hybrids, wr2SCAN        
                                                                         
We gratefully acknowledge several colleagues who have allowed us to      
interface, adapt or use parts of their codes:                            
  Ed Valeev, F. Pavosevic, A. Kumar             : LibInt (2-el integral package), F12 methods 
  Garnet Chan, S. Sharma, J. Yang, R. Olivares  : DMRG                   
  Ulf Ekstrom                                   : XCFun DFT Library      
  Mihaly Kallay                                 : mrcc  (arbitrary order and MRCC methods)
  Frank Weinhold                                : gennbo (NPA and NBO analysis)           
  Simon Mueller                                 : openCOSMO-RS                            
  Christopher J. Cramer and Donald G. Truhlar   : smd solvation model                     
  S Lehtola, MJT Oliveira, MAL Marques          : LibXC Library                           
  Liviu Ungur et al                             : ANISO software                          


 Your calculation uses the libint2 library for the computation of 2-el integrals
 For citations please refer to: http://libint.valeyev.net

 Your ORCA version has been built with support for libXC version: 7.0.0
 For citations please refer to: https://libxc.gitlab.io

 This ORCA versions uses:
   CBLAS   interface :  Fast vector & matrix operations
   LAPACKE interface :  Fast linear algebra routines
   SCALAPACK package :  Parallel linear algebra routines
   Shared memory     :  Shared parallel matrices
   BLAS/LAPACK       :  OpenBLAS 0.3.29  USE64BITINT DYNAMIC_ARCH NO_AFFINITY Cooperlake SINGLE_THREADED
        Core in use  :  Cooperlake
   Copyright (c) 2011-2014, The OpenBLAS Project


  ***********************************
  * Starting time: Tue Mar  3 21:05:09 2026
  * Host name:     c09b01n02
  * Process ID:    2405653
  * Working dir.:  /lustre1/jiangy/jiangy_liuxy/NMR/B9D7C2-SSSS-NMR/opt_conf
  ***********************************

NOTE: MaxCore=5000 MB was set to SCF,MP2,MDCI,CIPSI,MRCI,RASCI and CIS
      => If you want to overwrite this, your respective input block should be placed after the MaxCore statement


***************************************
The coordinates will be read from file: opt-conf-10.xyz
***************************************



Warning: The global flag for NMR shieldings has been found
         but shieldings for certain elements have also been explicitly requested in the EPRNMR block
         ==>> only the requested shieldings will be calculated

================================================================================

----- Orbital basis set information -----
Your calculation utilizes the basis: pcSseg-2
   F. Jensen, J. Chem. Theory Comput. 11, 132 (2015).

----- AuxJ basis set information -----
Your calculation utilizes the AutoAux generation procedure.
  G. L. Stoychev, A. A. Auer, F. Neese, J. Chem. Theory Comput. 13, 554 (2017)

----- AuxC basis set information -----
Your calculation utilizes the AutoAux generation procedure.
  G. L. Stoychev, A. A. Auer, F. Neese, J. Chem. Theory Comput. 13, 554 (2017)

----- AuxJK basis set information -----
Your calculation utilizes the AutoAux generation procedure.
  G. L. Stoychev, A. A. Auer, F. Neese, J. Chem. Theory Comput. 13, 554 (2017)

----- AuxX basis set information -----
Your calculation utilizes the AutoAux generation procedure.
  G. L. Stoychev, A. A. Auer, F. Neese, J. Chem. Theory Comput. 13, 554 (2017)

================================================================================
                                        WARNINGS
                       Please study these warnings very carefully!
================================================================================


================================================================================
                                       INPUT FILE
================================================================================
NAME = nmr-conf-10.inp
|  1> !TPSS PCSSEG-2 AUTOAUX NMR CPCM(Methanol)
|  2> 
|  3> %pal nprocs 60 end
|  4> %maxcore 5000
|  5> 
|  6> *XYZFILE 0 1 opt-conf-10.xyz
|  7> 
|  8> %EPRNMR
|  9>    NUCLEI = ALL C {SHIFT}
| 10>    NUCLEI = ALL H {SHIFT}
| 11>    TAU DOBSON
| 12> END
| 13> 
| 14> 
| 15>                          ****END OF INPUT****
================================================================================

                       ****************************
                       * Single Point Calculation *
                       ****************************

---------------------------------
CARTESIAN COORDINATES (ANGSTROEM)
---------------------------------
  C     28.851145  -27.323895   -0.201729
  C     28.621876  -27.619962    1.143820
  C     27.550846  -28.454245    1.498067
  C     26.703961  -28.952020    0.524630
  C     26.932644  -28.655458   -0.810844
  C     28.010219  -27.863435   -1.167129
  C     25.966306  -29.131474   -1.856390
  C     24.669303  -28.297366   -1.787645
  C     24.931372  -26.821007   -2.164863
  C     24.108603  -25.882753   -1.263087
  C     24.604215  -25.924079    0.155886
  C     25.813971  -25.310605    0.477317
  C     26.314219  -25.354225    1.764041
  C     25.605882  -26.048873    2.761353
  C     24.398546  -26.643784    2.444189
  C     23.901490  -26.579248    1.151584
  C     23.537741  -28.985990   -2.570780
  C     24.691206  -26.462263   -3.643016
  O     27.467070  -28.727787    2.832116
  O     29.904049  -26.494777   -0.486777
  O     29.336125  -27.088602    2.192121
  O     26.089507  -26.125953    4.026419
  O     27.469170  -24.747975    2.197329
  C     30.747636  -27.262804    2.232072
  C     31.095593  -28.766047    2.392951
  C     30.855383  -29.484129    1.078501
  C     31.190963  -26.456094    3.459706
  O     30.726497  -25.135009    3.392699
  C     31.621261  -29.133978   -0.031012
  C     31.353213  -29.689061   -1.266884
  C     30.306943  -30.615943   -1.406481
  C     29.588780  -31.001216   -0.289508
  C     29.867029  -30.443378    0.945796
  C     30.182586  -26.210630   -1.837743
  C     26.414333  -29.545096    3.283838
  C     28.189997  -23.958405    1.280665
  O     30.378387  -29.307596    3.465721
  O     23.892962  -29.427772   -3.865939
  O     25.447285  -27.234293   -4.537602
  O     32.031079  -29.403617   -2.435836
  O     30.011159  -31.141230   -2.625904
  C     33.212702  -28.646535   -2.345353
  H     25.870851  -29.581289    0.790977
  H     28.181721  -27.661139   -2.211787
  H     25.724707  -30.182297   -1.671885
  H     26.420489  -29.037003   -2.843329
  H     24.351432  -28.295184   -0.740102
  H     25.987299  -26.625367   -1.959139
  H     24.195707  -24.863733   -1.646999
  H     23.055419  -26.166784   -1.301474
  H     26.352205  -24.789954   -0.299102
  H     23.849718  -27.143675    3.227202
  H     22.949187  -27.038217    0.928270
  H     23.174501  -29.840864   -1.984280
  H     22.701968  -28.297704   -2.712690
  H     25.004724  -25.425064   -3.799735
  H     23.621907  -26.528127   -3.881850
  H     26.967211  -25.720976    4.034099
  H     31.205622  -26.853931    1.325655
  H     32.156733  -28.844786    2.661885
  H     30.810188  -26.957021    4.360837
  H     32.280678  -26.412616    3.509084
  H     29.792805  -25.189294    3.144834
  H     32.419838  -28.418335    0.086827
  H     28.811037  -31.737919   -0.406779
  H     29.312474  -30.759660    1.814636
  H     29.349093  -25.692428   -2.322010
  H     31.050894  -25.552739   -1.823762
  H     30.417449  -27.119456   -2.398631
  H     25.442621  -29.106355    3.044143
  H     26.481029  -30.552129    2.859017
  H     26.529653  -29.597367    4.364848
  H     28.991553  -23.492216    1.852092
  H     28.623558  -24.569552    0.485410
  H     27.556147  -23.179796    0.845023
  H     29.457706  -29.001317    3.389250
  H     24.541944  -30.135368   -3.779230
  H     25.005236  -28.097768   -4.593946
  H     30.649886  -30.790009   -3.261375
  H     33.012634  -27.625261   -2.006959
  H     33.935081  -29.117444   -1.672078
  H     33.621652  -28.617130   -3.354325

----------------------------
CARTESIAN COORDINATES (A.U.)
----------------------------
  NO LB      ZA    FRAG     MASS         X           Y           Z
   0 C     6.0000    0    12.011   54.520762  -51.634678   -0.381212
   1 C     6.0000    0    12.011   54.087507  -52.194165    2.161506
   2 C     6.0000    0    12.011   52.063554  -53.770730    2.830936
   3 C     6.0000    0    12.011   50.463172  -54.711388    0.991407
   4 C     6.0000    0    12.011   50.895320  -54.150967   -1.532273
   5 C     6.0000    0    12.011   52.931642  -52.654261   -2.205554
   6 C     6.0000    0    12.011   49.069208  -55.050507   -3.508068
   7 C     6.0000    0    12.011   46.618227  -53.474273   -3.378160
   8 C     6.0000    0    12.011   47.113465  -50.684358   -4.090998
   9 C     6.0000    0    12.011   45.558657  -48.911314   -2.386889
  10 C     6.0000    0    12.011   46.495228  -48.989409    0.294581
  11 C     6.0000    0    12.011   48.781336  -47.830112    0.901998
  12 C     6.0000    0    12.011   49.726668  -47.912542    3.333554
  13 C     6.0000    0    12.011   48.388104  -49.225237    5.218201
  14 C     6.0000    0    12.011   46.106570  -50.349456    4.618848
  15 C     6.0000    0    12.011   45.167269  -50.227499    2.176178
  16 C     6.0000    0    12.011   44.479884  -54.775583   -4.858070
  17 C     6.0000    0    12.011   46.659618  -50.006430   -6.884302
  18 O     8.0000    0    15.999   51.905240  -54.287650    5.351923
  19 O     8.0000    0    15.999   56.510463  -50.067873   -0.919875
  20 O     8.0000    0    15.999   55.437242  -51.190040    4.142509
  21 O     8.0000    0    15.999   49.302022  -49.370895    7.608829
  22 O     8.0000    0    15.999   51.909208  -46.766895    4.152350
  23 C     6.0000    0    12.011   58.104611  -51.519232    4.218005
  24 C     6.0000    0    12.011   58.762155  -54.359951    4.522021
  25 C     6.0000    0    12.011   58.308223  -55.716930    2.038071
  26 C     6.0000    0    12.011   58.942377  -49.994773    6.537898
  27 O     8.0000    0    15.999   58.064664  -47.498283    6.411272
  28 C     6.0000    0    12.011   59.755523  -55.055240   -0.058604
  29 C     6.0000    0    12.011   59.248986  -56.104195   -2.394063
  30 C     6.0000    0    12.011   57.271822  -57.855747   -2.657864
  31 C     6.0000    0    12.011   55.914691  -58.583808   -0.547090
  32 C     6.0000    0    12.011   56.440504  -57.529646    1.787295
  33 C     6.0000    0    12.011   57.036822  -49.530913   -3.472831
  34 C     6.0000    0    12.011   49.915855  -55.832140    6.205555
  35 C     6.0000    0    12.011   53.271374  -45.274824    2.420107
  36 O     8.0000    0    15.999   57.406832  -55.383330    6.549264
  37 O     8.0000    0    15.999   45.151155  -55.610429   -7.305567
  38 O     8.0000    0    15.999   48.088400  -51.465356   -8.574825
  39 O     8.0000    0    15.999   60.529967  -55.564783   -4.603063
  40 O     8.0000    0    15.999   56.712872  -58.848396   -4.962239
  41 C     6.0000    0    12.011   62.762911  -54.134105   -4.432074
  42 H     1.0000    0     1.008   48.888824  -55.900535    1.494730
  43 H     1.0000    0     1.008   53.255736  -52.271977   -4.179672
  44 H     1.0000    0     1.008   48.612652  -57.036276   -3.159404
  45 H     1.0000    0     1.008   49.927488  -54.871984   -5.373113
  46 H     1.0000    0     1.008   46.017538  -53.470149   -1.398590
  47 H     1.0000    0     1.008   49.108877  -50.314651   -3.702236
  48 H     1.0000    0     1.008   45.723260  -46.985646   -3.112376
  49 H     1.0000    0     1.008   43.568427  -49.448056   -2.459430
  50 H     1.0000    0     1.008   49.798451  -46.846225   -0.565221
  51 H     1.0000    0     1.008   45.069435  -51.294112    6.098529
  52 H     1.0000    0     1.008   43.367678  -51.094825    1.754176
  53 H     1.0000    0     1.008   43.793460  -56.391060   -3.749745
  54 H     1.0000    0     1.008   42.900503  -53.474910   -5.126241
  55 H     1.0000    0     1.008   47.252080  -48.046408   -7.180458
  56 H     1.0000    0     1.008   44.638935  -50.130896   -7.335633
  57 H     1.0000    0     1.008   50.960644  -48.605601    7.623342
  58 H     1.0000    0     1.008   58.970079  -50.746575    2.505124
  59 H     1.0000    0     1.008   60.767419  -54.508745    5.030234
  60 H     1.0000    0     1.008   58.222817  -50.941388    8.240788
  61 H     1.0000    0     1.008   61.001641  -49.912610    6.631208
  62 H     1.0000    0     1.008   56.300242  -47.600867    5.942874
  63 H     1.0000    0     1.008   61.264616  -53.702870    0.164079
  64 H     1.0000    0     1.008   54.444970  -59.975975   -0.768701
  65 H     1.0000    0     1.008   55.392548  -58.127334    3.429164
  66 H     1.0000    0     1.008   55.461748  -48.551652   -4.387964
  67 H     1.0000    0     1.008   58.677686  -48.287678   -3.446410
  68 H     1.0000    0     1.008   57.480649  -51.248345   -4.532756
  69 H     1.0000    0     1.008   48.079585  -55.003039    5.752597
  70 H     1.0000    0     1.008   50.041892  -57.735157    5.402759
  71 H     1.0000    0     1.008   50.133779  -55.930919    8.248368
  72 H     1.0000    0     1.008   54.786096  -44.393855    3.499947
  73 H     1.0000    0     1.008   54.090686  -46.429724    0.917293
  74 H     1.0000    0     1.008   52.073571  -43.803466    1.596862
  75 H     1.0000    0     1.008   55.666997  -54.804547    6.404755
  76 H     1.0000    0     1.008   46.377553  -56.947593   -7.141710
  77 H     1.0000    0     1.008   47.253048  -53.097087   -8.681301
  78 H     1.0000    0     1.008   57.919891  -58.184684   -6.163106
  79 H     1.0000    0     1.008   62.384838  -52.204178   -3.792603
  80 H     1.0000    0     1.008   64.128009  -55.023995   -3.159769
  81 H     1.0000    0     1.008   63.535714  -54.078539   -6.338755

--------------------------------
INTERNAL COORDINATES (ANGSTROEM)
--------------------------------
 C      0   0   0     0.000000000000     0.00000000     0.00000000
 C      1   0   0     1.396682083684     0.00000000     0.00000000
 C      2   1   0     1.403075871089   119.64239504     0.00000000
 C      3   2   1     1.382958443435   120.24886032   358.24101060
 C      4   3   2     1.386988346132   119.98745939     1.69230819
 C      5   4   3     1.383982409497   119.90809286     0.12232817
 C      5   4   3     1.501187586272   119.78039943   183.53429303
 C      7   5   4     1.543592353026   109.78654155    73.34922806
 C      8   7   5     1.546159866304   111.26539280    65.42096370
 C      9   8   7     1.539632842324   110.39052231   219.08411765
 C     10   9   8     1.503603437828   111.09084487    68.11447071
 C     11  10   9     1.393979036972   119.44361443    73.01033527
 C     12  11  10     1.381234772588   121.01219488   181.44505552
 C     13  12  11     1.406737571950   119.58220210     1.18768123
 C     14  13  12     1.382812658191   119.30574694   358.09932970
 C     11  10   9     1.383648801008   121.64957675   254.25562341
 C      8   7   5     1.538810254450   110.69511730   195.04302584
 C      9   8   7     1.539906662839   115.48022731    93.96389348
 O      3   2   1     1.364379423774   114.39027146   176.77995400
 O      1   2   3     1.370144550785   117.05503346   179.44506919
 O      2   1   3     1.375293339714   124.55384056   183.79296813
 O     14  13  12     1.356548836378   120.64293137   178.80151310
 O     13  12  11     1.374477102063   125.73718110   182.30912830
 C     21   2   1     1.422780605793   119.29640013   302.63866178
 C     24  21   2     1.551353420726   110.12493041   295.08872622
 C     25  24  21     1.516944678209   109.47029620    74.39378826
 C     24  21   2     1.534406782485   104.16588911   175.76390998
 O     27  24  21     1.401957462590   111.18983284   306.19387040
 C     26  25  24     1.392907966306   118.95673567    63.79851743
 C     29  26  25     1.381066949253   120.33454540   185.36155468
 C     30  29  26     1.404733789543   119.91325219   359.72796864
 C     31  30  29     1.382686879096   119.36893873   357.51253513
 C     32  31  30     1.383683818209   120.29272678     2.28068108
 C     20   1   2     1.408343515711   118.27093707   178.16809217
 C     19   3   2     1.407232449270   118.44019626   179.28539948
 C     23  13  12     1.408291545965   118.17708742     3.06046044
 O     25  24  21     1.399462977335   109.84732732   309.04522144
 O     17   8   7     1.413786088833   114.91644266   312.17856122
 O     18   9   8     1.402843846291   113.56923611   302.99397395
 O     30  29  26     1.381097744371   125.38581358   179.03482644
 O     31  30  29     1.360296531768   120.38678000   178.21194292
 C     40  30  29     1.406269285895   117.98366145    10.11681235
 H      4   3   2     1.077493264907   120.64353281   180.91562347
 H      6   5   4     1.077797716155   118.73936808   178.78749565
 H      7   5   4     1.093911485400   109.22633910   313.85204137
 H      7   5   4     1.090529743768   109.55774286   194.35611595
 H      8   7   5     1.094711764096   106.71889357   309.85903234
 H      9   8   7     1.093425256216   106.77585380   335.36707091
 H     10   9   8     1.092417354285   108.66348720   188.42849621
 H     10   9   8     1.091487171241   109.66131482   306.14779013
 H     12  11  10     1.078702565656   118.65070694     1.99818169
 H     15  14  13     1.078987205471   118.48813111   182.10388281
 H     16  11  10     1.080463723559   120.00289652   357.12941624
 H     17   8   7     1.098514830154   108.64418226    74.83500971
 H     17   8   7     1.091966996229   110.29731545   192.87182254
 H     18   9   8     1.094822145588   108.26707254   185.55494502
 H     18   9   8     1.097624751429   110.29310030    67.90097040
 H     22  14  13     0.966659538139   107.89712429   354.58181642
 H     24  21   2     1.094769843336   110.24592184    57.56294681
 H     25  24  21     1.097517009192   108.16697387   193.47385890
 H     27  24  21     1.099069856585   108.43695056    68.15390935
 H     27  24  21     1.091699660715   110.21384498   187.49054683
 H     28  27  24     0.967556017249   106.20518387    46.69105998
 H     29  26  25     1.078776109929   119.12914999     4.85712333
 H     32  31  30     1.077667941383   118.51687285   182.03765326
 H     33  32  31     1.078168649129   119.85020974   180.90335958
 H     34  20   1     1.094422399379   111.67666520    62.20740827
 H     34  20   1     1.089483842148   105.49473283   180.56970358
 H     34  20   1     1.093490373087   111.52012131   299.61785013
 H     35  19   3     1.092781681938   111.19958323   300.21615071
 H     35  19   3     1.095005634642   111.34785420    62.98020242
 H     35  19   3     1.088399961423   105.51262922   181.75932833
 H     36  23  13     1.089198305079   105.97138075   173.86771239
 H     36  23  13     1.092659826917   111.29984244   292.49656587
 H     36  23  13     1.094432665039   111.19369503    55.19984663
 H     37  25  24     0.973297613268   107.62476953    45.52615708
 H     38  17   8     0.964048051976   108.42734398    66.32426142
 H     39  18   9     0.971684547346   106.30993523    77.34640292
 H     41  31  30     0.967032969114   107.77090338     2.50928746
 H     42  40  30     1.094320090499   111.63570968   293.82470849
 H     42  40  30     1.094022447854   111.26499257    56.35648583
 H     42  40  30     1.089095629159   105.69025819   175.13313198

---------------------------
INTERNAL COORDINATES (A.U.)
---------------------------
 C      0   0   0     0.000000000000     0.00000000     0.00000000
 C      1   0   0     2.639346634316     0.00000000     0.00000000
 C      2   1   0     2.651429141471   119.64239504     0.00000000
 C      3   2   1     2.613412712687   120.24886032   358.24101060
 C      4   3   2     2.621028125131   119.98745939     1.69230819
 C      5   4   3     2.615347728115   119.90809286     0.12232817
 C      5   4   3     2.836833413697   119.78039943   183.53429303
 C      7   5   4     2.916966809634   109.78654155    73.34922806
 C      8   7   5     2.921818706576   111.26539280    65.42096370
 C      9   8   7     2.909484418782   110.39052231   219.08411765
 C     10   9   8     2.841398711517   111.09084487    68.11447071
 C     11  10   9     2.634238616304   119.44361443    73.01033527
 C     12  11  10     2.610155446840   121.01219488   181.44505552
 C     13  12  11     2.658348753282   119.58220210     1.18768123
 C     14  13  12     2.613137218500   119.30574694   358.09932970
 C     11  10   9     2.614717299433   121.64957675   254.25562341
 C      8   7   5     2.907929952981   110.69511730   195.04302584
 C      9   8   7     2.910001864566   115.48022731    93.96389348
 O      3   2   1     2.578303453691   114.39027146   176.77995400
 O      1   2   3     2.589197964867   117.05503346   179.44506919
 O      2   1   3     2.598927765866   124.55384056   183.79296813
 O     14  13  12     2.563505788045   120.64293137   178.80151310
 O     13  12  11     2.597385300245   125.73718110   182.30912830
 C     21   2   1     2.688665693604   119.29640013   302.63866178
 C     24  21   2     2.931633102094   110.12493041   295.08872622
 C     25  24  21     2.866610002124   109.47029620    74.39378826
 C     24  21   2     2.899608596929   104.16588911   175.76390998
 O     27  24  21     2.649315655703   111.18983284   306.19387040
 C     26  25  24     2.632214586076   118.95673567    63.79851743
 C     29  26  25     2.609838306698   120.33454540   185.36155468
 C     30  29  26     2.654562153302   119.91325219   359.72796864
 C     31  30  29     2.612899530457   119.36893873   357.51253513
 C     32  31  30     2.614783472353   120.29272678     2.28068108
 C     20   1   2     2.661383547177   118.27093707   178.16809217
 C     19   3   2     2.659283935887   118.44019626   179.28539948
 C     23  13  12     2.661285338591   118.17708742     3.06046044
 O     25  24  21     2.644601761725   109.84732732   309.04522144
 O     17   8   7     2.671668519842   114.91644266   312.17856122
 O     18   9   8     2.650990678146   113.56923611   302.99397395
 O     30  29  26     2.609896501037   125.38581358   179.03482644
 O     31  30  29     2.570587905964   120.38678000   178.21194292
 C     40  30  29     2.657463820887   117.98366145    10.11681235
 H      4   3   2     2.036167181818   120.64353281   180.91562347
 H      6   5   4     2.036742511298   118.73936808   178.78749565
 H      7   5   4     2.067193122156   109.22633910   313.85204137
 H      7   5   4     2.060802556617   109.55774286   194.35611595
 H      8   7   5     2.068705429723   106.71889357   309.85903234
 H      9   8   7     2.066274282161   106.77585380   335.36707091
 H     10   9   8     2.064369623541   108.66348720   188.42849621
 H     10   9   8     2.062611832334   109.66131482   306.14779013
 H     12  11  10     2.038452429048   118.65070694     1.99818169
 H     15  14  13     2.038990320345   118.48813111   182.10388281
 H     16  11  10     2.041780535164   120.00289652   357.12941624
 H     17   8   7     2.075892183042   108.64418226    74.83500971
 H     17   8   7     2.063518570153   110.29731545   192.87182254
 H     18   9   8     2.068914020513   108.26707254   185.55494502
 H     18   9   8     2.074210178014   110.29310030    67.90097040
 H     22  14  13     1.826721791825   107.89712429   354.58181642
 H     24  21   2     2.068815183582   110.24592184    57.56294681
 H     25  24  21     2.074006574693   108.16697387   193.47385890
 H     27  24  21     2.076941030994   108.43695056    68.15390935
 H     27  24  21     2.063013379247   110.21384498   187.49054683
 H     28  27  24     1.828415891828   106.20518387    46.69105998
 H     29  26  25     2.038591407583   119.12914999     4.85712333
 H     32  31  30     2.036497272520   118.51687285   182.03765326
 H     33  32  31     2.037443473034   119.85020974   180.90335958
 H     34  20   1     2.068158609656   111.67666520    62.20740827
 H     34  20   1     2.058826088992   105.49473283   180.56970358
 H     34  20   1     2.066397335214   111.52012131   299.61785013
 H     35  19   3     2.065058103029   111.19958323   300.21615071
 H     35  19   3     2.069260764574   111.34785420    62.98020242
 H     35  19   3     2.056777851260   105.51262922   181.75932833
 H     36  23  13     2.058286502131   105.97138075   173.86771239
 H     36  23  13     2.064827830410   111.29984244   292.49656587
 H     36  23  13     2.068178008942   111.19369503    55.19984663
 H     37  25  24     1.839265935876   107.62476953    45.52615708
 H     38  17   8     1.821786798175   108.42734398    66.32426142
 H     39  18   9     1.836217683048   106.30993523    77.34640292
 H     41  31  30     1.827427474098   107.77090338     2.50928746
 H     42  40  30     2.067965273891   111.63570968   293.82470849
 H     42  40  30     2.067402810807   111.26499257    56.35648583
 H     42  40  30     2.058092472761   105.69025819   175.13313198

---------------------
BASIS SET INFORMATION
---------------------
There are 3 groups of distinct atoms

 Group   1 Type C   : 11s7p2d1f contracted to 4s5p2d1f pattern {7211/31111/11/1}
 Group   2 Type O   : 11s7p2d1f contracted to 4s5p2d1f pattern {7211/31111/11/1}
 Group   3 Type H   : 6s3p1d contracted to 3s2p1d pattern {411/21/1}

Atom   0C    basis set group =>   1
Atom   1C    basis set group =>   1
Atom   2C    basis set group =>   1
Atom   3C    basis set group =>   1
Atom   4C    basis set group =>   1
Atom   5C    basis set group =>   1
Atom   6C    basis set group =>   1
Atom   7C    basis set group =>   1
Atom   8C    basis set group =>   1
Atom   9C    basis set group =>   1
Atom  10C    basis set group =>   1
Atom  11C    basis set group =>   1
Atom  12C    basis set group =>   1
Atom  13C    basis set group =>   1
Atom  14C    basis set group =>   1
Atom  15C    basis set group =>   1
Atom  16C    basis set group =>   1
Atom  17C    basis set group =>   1
Atom  18O    basis set group =>   2
Atom  19O    basis set group =>   2
Atom  20O    basis set group =>   2
Atom  21O    basis set group =>   2
Atom  22O    basis set group =>   2
Atom  23C    basis set group =>   1
Atom  24C    basis set group =>   1
Atom  25C    basis set group =>   1
Atom  26C    basis set group =>   1
Atom  27O    basis set group =>   2
Atom  28C    basis set group =>   1
Atom  29C    basis set group =>   1
Atom  30C    basis set group =>   1
Atom  31C    basis set group =>   1
Atom  32C    basis set group =>   1
Atom  33C    basis set group =>   1
Atom  34C    basis set group =>   1
Atom  35C    basis set group =>   1
Atom  36O    basis set group =>   2
Atom  37O    basis set group =>   2
Atom  38O    basis set group =>   2
Atom  39O    basis set group =>   2
Atom  40O    basis set group =>   2
Atom  41C    basis set group =>   1
Atom  42H    basis set group =>   3
Atom  43H    basis set group =>   3
Atom  44H    basis set group =>   3
Atom  45H    basis set group =>   3
Atom  46H    basis set group =>   3
Atom  47H    basis set group =>   3
Atom  48H    basis set group =>   3
Atom  49H    basis set group =>   3
Atom  50H    basis set group =>   3
Atom  51H    basis set group =>   3
Atom  52H    basis set group =>   3
Atom  53H    basis set group =>   3
Atom  54H    basis set group =>   3
Atom  55H    basis set group =>   3
Atom  56H    basis set group =>   3
Atom  57H    basis set group =>   3
Atom  58H    basis set group =>   3
Atom  59H    basis set group =>   3
Atom  60H    basis set group =>   3
Atom  61H    basis set group =>   3
Atom  62H    basis set group =>   3
Atom  63H    basis set group =>   3
Atom  64H    basis set group =>   3
Atom  65H    basis set group =>   3
Atom  66H    basis set group =>   3
Atom  67H    basis set group =>   3
Atom  68H    basis set group =>   3
Atom  69H    basis set group =>   3
Atom  70H    basis set group =>   3
Atom  71H    basis set group =>   3
Atom  72H    basis set group =>   3
Atom  73H    basis set group =>   3
Atom  74H    basis set group =>   3
Atom  75H    basis set group =>   3
Atom  76H    basis set group =>   3
Atom  77H    basis set group =>   3
Atom  78H    basis set group =>   3
Atom  79H    basis set group =>   3
Atom  80H    basis set group =>   3
Atom  81H    basis set group =>   3
---------------------------------
AUXILIARY/J BASIS SET INFORMATION
---------------------------------
There are 3 groups of distinct atoms

 Group   1 Type C   : 15s13p12d5f5g contracted to 15s13p12d5f5g pattern {111111111111111/1111111111111/111111111111/11111/11111}
 Group   2 Type O   : 15s13p12d5f5g contracted to 15s13p12d5f5g pattern {111111111111111/1111111111111/111111111111/11111/11111}
 Group   3 Type H   : 12s4p3d2f contracted to 12s4p3d2f pattern {111111111111/1111/111/11}

Atom   0C    basis set group =>   1
Atom   1C    basis set group =>   1
Atom   2C    basis set group =>   1
Atom   3C    basis set group =>   1
Atom   4C    basis set group =>   1
Atom   5C    basis set group =>   1
Atom   6C    basis set group =>   1
Atom   7C    basis set group =>   1
Atom   8C    basis set group =>   1
Atom   9C    basis set group =>   1
Atom  10C    basis set group =>   1
Atom  11C    basis set group =>   1
Atom  12C    basis set group =>   1
Atom  13C    basis set group =>   1
Atom  14C    basis set group =>   1
Atom  15C    basis set group =>   1
Atom  16C    basis set group =>   1
Atom  17C    basis set group =>   1
Atom  18O    basis set group =>   2
Atom  19O    basis set group =>   2
Atom  20O    basis set group =>   2
Atom  21O    basis set group =>   2
Atom  22O    basis set group =>   2
Atom  23C    basis set group =>   1
Atom  24C    basis set group =>   1
Atom  25C    basis set group =>   1
Atom  26C    basis set group =>   1
Atom  27O    basis set group =>   2
Atom  28C    basis set group =>   1
Atom  29C    basis set group =>   1
Atom  30C    basis set group =>   1
Atom  31C    basis set group =>   1
Atom  32C    basis set group =>   1
Atom  33C    basis set group =>   1
Atom  34C    basis set group =>   1
Atom  35C    basis set group =>   1
Atom  36O    basis set group =>   2
Atom  37O    basis set group =>   2
Atom  38O    basis set group =>   2
Atom  39O    basis set group =>   2
Atom  40O    basis set group =>   2
Atom  41C    basis set group =>   1
Atom  42H    basis set group =>   3
Atom  43H    basis set group =>   3
Atom  44H    basis set group =>   3
Atom  45H    basis set group =>   3
Atom  46H    basis set group =>   3
Atom  47H    basis set group =>   3
Atom  48H    basis set group =>   3
Atom  49H    basis set group =>   3
Atom  50H    basis set group =>   3
Atom  51H    basis set group =>   3
Atom  52H    basis set group =>   3
Atom  53H    basis set group =>   3
Atom  54H    basis set group =>   3
Atom  55H    basis set group =>   3
Atom  56H    basis set group =>   3
Atom  57H    basis set group =>   3
Atom  58H    basis set group =>   3
Atom  59H    basis set group =>   3
Atom  60H    basis set group =>   3
Atom  61H    basis set group =>   3
Atom  62H    basis set group =>   3
Atom  63H    basis set group =>   3
Atom  64H    basis set group =>   3
Atom  65H    basis set group =>   3
Atom  66H    basis set group =>   3
Atom  67H    basis set group =>   3
Atom  68H    basis set group =>   3
Atom  69H    basis set group =>   3
Atom  70H    basis set group =>   3
Atom  71H    basis set group =>   3
Atom  72H    basis set group =>   3
Atom  73H    basis set group =>   3
Atom  74H    basis set group =>   3
Atom  75H    basis set group =>   3
Atom  76H    basis set group =>   3
Atom  77H    basis set group =>   3
Atom  78H    basis set group =>   3
Atom  79H    basis set group =>   3
Atom  80H    basis set group =>   3
Atom  81H    basis set group =>   3
---------------------------------
AUXILIARY/C BASIS SET INFORMATION
---------------------------------
There are 3 groups of distinct atoms

 Group   1 Type C   : 15s13p12d5f5g contracted to 15s13p12d5f5g pattern {111111111111111/1111111111111/111111111111/11111/11111}
 Group   2 Type O   : 15s13p12d5f5g contracted to 15s13p12d5f5g pattern {111111111111111/1111111111111/111111111111/11111/11111}
 Group   3 Type H   : 12s4p3d2f contracted to 12s4p3d2f pattern {111111111111/1111/111/11}

Atom   0C    basis set group =>   1
Atom   1C    basis set group =>   1
Atom   2C    basis set group =>   1
Atom   3C    basis set group =>   1
Atom   4C    basis set group =>   1
Atom   5C    basis set group =>   1
Atom   6C    basis set group =>   1
Atom   7C    basis set group =>   1
Atom   8C    basis set group =>   1
Atom   9C    basis set group =>   1
Atom  10C    basis set group =>   1
Atom  11C    basis set group =>   1
Atom  12C    basis set group =>   1
Atom  13C    basis set group =>   1
Atom  14C    basis set group =>   1
Atom  15C    basis set group =>   1
Atom  16C    basis set group =>   1
Atom  17C    basis set group =>   1
Atom  18O    basis set group =>   2
Atom  19O    basis set group =>   2
Atom  20O    basis set group =>   2
Atom  21O    basis set group =>   2
Atom  22O    basis set group =>   2
Atom  23C    basis set group =>   1
Atom  24C    basis set group =>   1
Atom  25C    basis set group =>   1
Atom  26C    basis set group =>   1
Atom  27O    basis set group =>   2
Atom  28C    basis set group =>   1
Atom  29C    basis set group =>   1
Atom  30C    basis set group =>   1
Atom  31C    basis set group =>   1
Atom  32C    basis set group =>   1
Atom  33C    basis set group =>   1
Atom  34C    basis set group =>   1
Atom  35C    basis set group =>   1
Atom  36O    basis set group =>   2
Atom  37O    basis set group =>   2
Atom  38O    basis set group =>   2
Atom  39O    basis set group =>   2
Atom  40O    basis set group =>   2
Atom  41C    basis set group =>   1
Atom  42H    basis set group =>   3
Atom  43H    basis set group =>   3
Atom  44H    basis set group =>   3
Atom  45H    basis set group =>   3
Atom  46H    basis set group =>   3
Atom  47H    basis set group =>   3
Atom  48H    basis set group =>   3
Atom  49H    basis set group =>   3
Atom  50H    basis set group =>   3
Atom  51H    basis set group =>   3
Atom  52H    basis set group =>   3
Atom  53H    basis set group =>   3
Atom  54H    basis set group =>   3
Atom  55H    basis set group =>   3
Atom  56H    basis set group =>   3
Atom  57H    basis set group =>   3
Atom  58H    basis set group =>   3
Atom  59H    basis set group =>   3
Atom  60H    basis set group =>   3
Atom  61H    basis set group =>   3
Atom  62H    basis set group =>   3
Atom  63H    basis set group =>   3
Atom  64H    basis set group =>   3
Atom  65H    basis set group =>   3
Atom  66H    basis set group =>   3
Atom  67H    basis set group =>   3
Atom  68H    basis set group =>   3
Atom  69H    basis set group =>   3
Atom  70H    basis set group =>   3
Atom  71H    basis set group =>   3
Atom  72H    basis set group =>   3
Atom  73H    basis set group =>   3
Atom  74H    basis set group =>   3
Atom  75H    basis set group =>   3
Atom  76H    basis set group =>   3
Atom  77H    basis set group =>   3
Atom  78H    basis set group =>   3
Atom  79H    basis set group =>   3
Atom  80H    basis set group =>   3
Atom  81H    basis set group =>   3
----------------------------------
AUXILIARY/JK BASIS SET INFORMATION
----------------------------------
There are 3 groups of distinct atoms

 Group   1 Type C   : 15s13p12d5f5g contracted to 15s13p12d5f5g pattern {111111111111111/1111111111111/111111111111/11111/11111}
 Group   2 Type O   : 15s13p12d5f5g contracted to 15s13p12d5f5g pattern {111111111111111/1111111111111/111111111111/11111/11111}
 Group   3 Type H   : 12s4p3d2f contracted to 12s4p3d2f pattern {111111111111/1111/111/11}

Atom   0C    basis set group =>   1
Atom   1C    basis set group =>   1
Atom   2C    basis set group =>   1
Atom   3C    basis set group =>   1
Atom   4C    basis set group =>   1
Atom   5C    basis set group =>   1
Atom   6C    basis set group =>   1
Atom   7C    basis set group =>   1
Atom   8C    basis set group =>   1
Atom   9C    basis set group =>   1
Atom  10C    basis set group =>   1
Atom  11C    basis set group =>   1
Atom  12C    basis set group =>   1
Atom  13C    basis set group =>   1
Atom  14C    basis set group =>   1
Atom  15C    basis set group =>   1
Atom  16C    basis set group =>   1
Atom  17C    basis set group =>   1
Atom  18O    basis set group =>   2
Atom  19O    basis set group =>   2
Atom  20O    basis set group =>   2
Atom  21O    basis set group =>   2
Atom  22O    basis set group =>   2
Atom  23C    basis set group =>   1
Atom  24C    basis set group =>   1
Atom  25C    basis set group =>   1
Atom  26C    basis set group =>   1
Atom  27O    basis set group =>   2
Atom  28C    basis set group =>   1
Atom  29C    basis set group =>   1
Atom  30C    basis set group =>   1
Atom  31C    basis set group =>   1
Atom  32C    basis set group =>   1
Atom  33C    basis set group =>   1
Atom  34C    basis set group =>   1
Atom  35C    basis set group =>   1
Atom  36O    basis set group =>   2
Atom  37O    basis set group =>   2
Atom  38O    basis set group =>   2
Atom  39O    basis set group =>   2
Atom  40O    basis set group =>   2
Atom  41C    basis set group =>   1
Atom  42H    basis set group =>   3
Atom  43H    basis set group =>   3
Atom  44H    basis set group =>   3
Atom  45H    basis set group =>   3
Atom  46H    basis set group =>   3
Atom  47H    basis set group =>   3
Atom  48H    basis set group =>   3
Atom  49H    basis set group =>   3
Atom  50H    basis set group =>   3
Atom  51H    basis set group =>   3
Atom  52H    basis set group =>   3
Atom  53H    basis set group =>   3
Atom  54H    basis set group =>   3
Atom  55H    basis set group =>   3
Atom  56H    basis set group =>   3
Atom  57H    basis set group =>   3
Atom  58H    basis set group =>   3
Atom  59H    basis set group =>   3
Atom  60H    basis set group =>   3
Atom  61H    basis set group =>   3
Atom  62H    basis set group =>   3
Atom  63H    basis set group =>   3
Atom  64H    basis set group =>   3
Atom  65H    basis set group =>   3
Atom  66H    basis set group =>   3
Atom  67H    basis set group =>   3
Atom  68H    basis set group =>   3
Atom  69H    basis set group =>   3
Atom  70H    basis set group =>   3
Atom  71H    basis set group =>   3
Atom  72H    basis set group =>   3
Atom  73H    basis set group =>   3
Atom  74H    basis set group =>   3
Atom  75H    basis set group =>   3
Atom  76H    basis set group =>   3
Atom  77H    basis set group =>   3
Atom  78H    basis set group =>   3
Atom  79H    basis set group =>   3
Atom  80H    basis set group =>   3
Atom  81H    basis set group =>   3
---------------------------------
AUXILIARY/X BASIS SET INFORMATION
---------------------------------
There are 3 groups of distinct atoms

 Group   1 Type C   : 15s13p12d5f5g contracted to 15s13p12d5f5g pattern {111111111111111/1111111111111/111111111111/11111/11111}
 Group   2 Type O   : 15s13p12d5f5g contracted to 15s13p12d5f5g pattern {111111111111111/1111111111111/111111111111/11111/11111}
 Group   3 Type H   : 12s4p3d2f contracted to 12s4p3d2f pattern {111111111111/1111/111/11}

Atom   0C    basis set group =>   1
Atom   1C    basis set group =>   1
Atom   2C    basis set group =>   1
Atom   3C    basis set group =>   1
Atom   4C    basis set group =>   1
Atom   5C    basis set group =>   1
Atom   6C    basis set group =>   1
Atom   7C    basis set group =>   1
Atom   8C    basis set group =>   1
Atom   9C    basis set group =>   1
Atom  10C    basis set group =>   1
Atom  11C    basis set group =>   1
Atom  12C    basis set group =>   1
Atom  13C    basis set group =>   1
Atom  14C    basis set group =>   1
Atom  15C    basis set group =>   1
Atom  16C    basis set group =>   1
Atom  17C    basis set group =>   1
Atom  18O    basis set group =>   2
Atom  19O    basis set group =>   2
Atom  20O    basis set group =>   2
Atom  21O    basis set group =>   2
Atom  22O    basis set group =>   2
Atom  23C    basis set group =>   1
Atom  24C    basis set group =>   1
Atom  25C    basis set group =>   1
Atom  26C    basis set group =>   1
Atom  27O    basis set group =>   2
Atom  28C    basis set group =>   1
Atom  29C    basis set group =>   1
Atom  30C    basis set group =>   1
Atom  31C    basis set group =>   1
Atom  32C    basis set group =>   1
Atom  33C    basis set group =>   1
Atom  34C    basis set group =>   1
Atom  35C    basis set group =>   1
Atom  36O    basis set group =>   2
Atom  37O    basis set group =>   2
Atom  38O    basis set group =>   2
Atom  39O    basis set group =>   2
Atom  40O    basis set group =>   2
Atom  41C    basis set group =>   1
Atom  42H    basis set group =>   3
Atom  43H    basis set group =>   3
Atom  44H    basis set group =>   3
Atom  45H    basis set group =>   3
Atom  46H    basis set group =>   3
Atom  47H    basis set group =>   3
Atom  48H    basis set group =>   3
Atom  49H    basis set group =>   3
Atom  50H    basis set group =>   3
Atom  51H    basis set group =>   3
Atom  52H    basis set group =>   3
Atom  53H    basis set group =>   3
Atom  54H    basis set group =>   3
Atom  55H    basis set group =>   3
Atom  56H    basis set group =>   3
Atom  57H    basis set group =>   3
Atom  58H    basis set group =>   3
Atom  59H    basis set group =>   3
Atom  60H    basis set group =>   3
Atom  61H    basis set group =>   3
Atom  62H    basis set group =>   3
Atom  63H    basis set group =>   3
Atom  64H    basis set group =>   3
Atom  65H    basis set group =>   3
Atom  66H    basis set group =>   3
Atom  67H    basis set group =>   3
Atom  68H    basis set group =>   3
Atom  69H    basis set group =>   3
Atom  70H    basis set group =>   3
Atom  71H    basis set group =>   3
Atom  72H    basis set group =>   3
Atom  73H    basis set group =>   3
Atom  74H    basis set group =>   3
Atom  75H    basis set group =>   3
Atom  76H    basis set group =>   3
Atom  77H    basis set group =>   3
Atom  78H    basis set group =>   3
Atom  79H    basis set group =>   3
Atom  80H    basis set group =>   3
Atom  81H    basis set group =>   3
--------------------------------------------------------------------------
WARNING: There was an error initializing an OpenFabrics device.

  Local host:   c09b01n02
  Local device: mlx5_0
--------------------------------------------------------------------------
--------------------------------------------------------------------------
WARNING: There is at least one non-excluded one OpenFabrics device found,
but there are no active ports detected (or Open MPI was unable to use
them).  This is most certainly not what you wanted.  Check your
cables, subnet manager configuration, etc.  The openib BTL will be
ignored for this job.

  Local host: c09b01n02
--------------------------------------------------------------------------
[c09b01n02:2405663] [[30105,0],0] ORTE_ERROR_LOG: Data unpack would read past end of buffer in file util/show_help.c at line 501


           ************************************************************
           *        Program running with 60 parallel MPI-processes    *
           *              working on a common directory               *
           ************************************************************
[c09b01n02:2405663] 46 more processes have sent help message help-mpi-btl-openib.txt / error in device init
[c09b01n02:2405663] Set MCA parameter "orte_base_help_aggregate" to 0 to see all help / error messages
[c09b01n02:2405663] 11 more processes have sent help message help-mpi-btl-openib.txt / no active ports found
------------------------------------------------------------------------------
                             ORCA STARTUP CALCULATIONS
                           -- RI-GTO INTEGRALS CHOSEN --
------------------------------------------------------------------------------
------------------------------------------------------------------------------
                   ___                                                        
                  /   \      - P O W E R E D   B Y -                         
                 /     \                                                     
                 |  |  |   _    _      __       _____    __    __             
                 |  |  |  | |  | |    /  \     |  _  \  |  |  /  |          
                  \  \/   | |  | |   /    \    | | | |  |  | /  /          
                 / \  \   | |__| |  /  /\  \   | |_| |  |  |/  /          
                |  |  |   |  __  | /  /__\  \  |    /   |      \           
                |  |  |   | |  | | |   __   |  |    \   |  |\   \          
                \     /   | |  | | |  |  |  |  | |\  \  |  | \   \       
                 \___/    |_|  |_| |__|  |__|  |_| \__\ |__|  \__/        
                                                                              
                      - O R C A' S   B I G   F R I E N D -                    
                                      &                                       
                       - I N T E G R A L  F E E D E R -                       
                                                                              
 v1 FN, 2020, v2 2021, v3 2022-2024                                           
------------------------------------------------------------------------------


----------------------
SHARK INTEGRAL PACKAGE
----------------------

Number of atoms                             ...     82
Number of basis functions                   ...   2072
Number of shells                            ...    744
Maximum angular momentum                    ...      3
Integral batch strategy                     ... SHARK/LIBINT Hybrid
RI-J (if used) integral strategy            ... SPLIT-RIJ (Revised 2003 algorithm where possible)
Printlevel                                  ...      1
Contraction scheme used                     ... SEGMENTED contraction
Prescreening option                         ... SCHWARTZ
   Thresh                                   ... 1.000e-10
   Tcut                                     ... 1.000e-11
   Tpresel                                  ... 1.000e-11 
Coulomb Range Separation                    ... NOT USED
Exchange Range Separation                   ... NOT USED
Multipole approximations                    ... NOT USED
Finite Nucleus Model                        ... NOT USED
CABS basis                                  ... NOT available
Auxiliary Coulomb fitting basis             ... AVAILABLE
   # of basis functions in Aux-J            ...  10268
   # of shells in Aux-J                     ...   2940
   Maximum angular momentum in Aux-J        ...      4
Auxiliary J/K fitting basis                 ... AVAILABLE
   # of basis functions in Aux-JK           ...  10268
   # of shells in Aux-JK                    ...   2940
   Maximum angular momentum in Aux-JK       ...      4
Auxiliary Correlation fitting basis         ... AVAILABLE
   # of basis functions in Aux-C            ...  10268
   # of shells in Aux-C                     ...   2940
   Maximum angular momentum in Aux-C        ...      4
Auxiliary 'external' fitting basis          ... NOT available

Checking pre-screening integrals            ... done (  0.0 sec) Dimension = 744
   => SHARK Basis and OBASIS are compatible. Storing Pre-screening
Shell pair information
Shell pair cut-off parameter TPreSel        ...   1.0e-11
Total number of shell pairs                 ...    277140
Shell pairs after pre-screening             ...    156063
Total number of primitive shell pairs       ...    823733
Primitive shell pairs kept                  ...    286560
          la=0 lb=0:  29618 shell pairs
          la=1 lb=0:  51720 shell pairs
          la=1 lb=1:  21150 shell pairs
          la=2 lb=0:  20461 shell pairs
          la=2 lb=1:  15540 shell pairs
          la=2 lb=2:   2794 shell pairs
          la=3 lb=0:   7090 shell pairs
          la=3 lb=1:   5351 shell pairs
          la=3 lb=2:   1953 shell pairs
          la=3 lb=3:    386 shell pairs

Checking whether 4 symmetric matrices of dimension 2072 fit in memory
:Max Core in MB      =   5000.00
 MB in use           =    192.54
 MB left             =   4807.46
 MB needed           =     65.54
 Data fit in memory  = YES
Calculating RI/J V-Matrix + Cholesky decomp.... done (  7.6 sec)
Calculating RI/JK V-Matrix + Cholesky decomp.... done (  4.0 sec)
Calculating RI/C V-Matrix + Cholesky decomp.... done (  4.0 sec)
Calculating Nuclear repulsion               ... done (  0.0 sec) ENN=   5877.277608530188 Eh

Diagonalization of the overlap matrix:
Smallest eigenvalue                        ... 5.847e-06
Time for diagonalization                   ...    4.842 sec
Threshold for overlap eigenvalues          ... 1.000e-07
Number of eigenvalues below threshold      ... 0
Time for construction of square roots      ...    0.349 sec
Total time needed                          ...    5.235 sec

-------------------
DFT GRID GENERATION
-------------------

General Integration Accuracy     IntAcc      ... 4.388
Radial Grid Type                 RadialGrid  ... OptM3 with GC (2021)
Angular Grid (max. ang.)         AngularGrid ... 4 (Lebedev-302)
Angular grid pruning method      GridPruning ... 4 (adaptive)
Weight generation scheme         WeightScheme... mBecke (2022)
Basis function cutoff            BFCut       ... 1.0000e-10
Integration weight cutoff        WCut        ... 1.0000e-14
Partially contracted basis set               ... off
Rotationally invariant grid construction     ... off
Angular grids for H and He will be reduced by one unit
Diffuse basis detected: some atoms will have their outermost
                        angular grid increased by 1.

Total number of grid points                  ...   376195
Total number of batches                      ...     5919
Average number of points per batch           ...       63
Average number of grid points per atom       ...     4588
Grids setup in   3.3 sec
Initializing property integral containers    ... done (  0.4 sec)

SHARK setup successfully completed in  41.8 seconds

Maximum memory used throughout the entire STARTUP-calculation: 264.7 MB
--------------------------------------------------------------------------
WARNING: There was an error initializing an OpenFabrics device.

  Local host:   c09b01n02
  Local device: mlx5_0
--------------------------------------------------------------------------
--------------------------------------------------------------------------
WARNING: There is at least one non-excluded one OpenFabrics device found,
but there are no active ports detected (or Open MPI was unable to use
them).  This is most certainly not what you wanted.  Check your
cables, subnet manager configuration, etc.  The openib BTL will be
ignored for this job.

  Local host: c09b01n02
--------------------------------------------------------------------------


           ************************************************************
           *        Program running with 60 parallel MPI-processes    *
           *              working on a common directory               *
           ************************************************************
-------------------------------------------------------------------------------
                                 ORCA GUESS
                   Start orbitals & Density for SCF / CASSCF
-------------------------------------------------------------------------------

------------
SCF SETTINGS
------------
Hamiltonian:
 Density Functional     Method          .... DFT(GTOs)
 Exchange Functional    Exchange        .... TPSS
 Correlation Functional Correlation     .... TPSS
 LDA part of GGA corr.  LDAOpt          .... PW91-LDA
 Gradients option       PostSCFGGA      .... off
   NL short-range parameter             ....  5.000000
 RI-approximation to the Coulomb term is turned on
   Number of AuxJ basis functions       .... 10268


General Settings:
 Integral files         IntName         .... nmr-conf-10
 Hartree-Fock type      HFTyp           .... RHF
 Total Charge           Charge          ....    0
 Multiplicity           Mult            ....    1
 Number of Electrons    NEL             ....  314
 Basis Dimension        Dim             .... 2072
 Nuclear Repulsion      ENuc            ....   5877.2776085302 Eh

Convergence Acceleration:
 AO-DIIS                CNVDIIS         .... on
   Start iteration      DIISMaxIt       ....    12
   Startup error        DIISStart       ....  0.200000
   # of expansion vecs  DIISMaxEq       ....     5
   Bias factor          DIISBfac        ....   1.050
   Max. coefficient     DIISMaxC        ....  10.000
 MO-DIIS                CNVKDIIS        .... off
 Trust-Rad. Augm. Hess. CNVTRAH         .... auto
   Auto Start mean grad. ratio tolernc. ....  1.125000
   Auto Start start iteration           ....    50
   Auto Start num. interpolation iter.  ....    10
   Max. Number of Micro iterations      ....    24
   Max. Number of Macro iterations      .... Maxiter - #DIIS iter
   Number of Davidson start vectors     ....     2
   Converg. threshold    (grad. norm)   ....   5.000e-05
   Grad. Scal. Fac. for Micro threshold ....   0.100
   Minimum threshold for Micro iter.    ....   1.000e-02
   NR start threshold (gradient norm)   ....   1.000e-04
   Initial trust radius                 ....   0.400
   Minimum AH scaling param. (alpha)    ....   1.000
   Maximum AH scaling param. (alpha)    .... 1000.000
   Quad. conv. algorithm                .... NR
   White noise on init. David. guess    .... on
   Maximum white noise                  ....   0.010
   Pseudo random numbers                .... off
   Inactive MOs                         .... canonical
   Orbital update algorithm             .... Taylor
   Preconditioner                       .... Diag
   Full preconditioner red. dimension   ....   250
 SOSCF                 CNVSOSCF           .... on
   Start iteration     SOSCFMaxIt         ....   150
   Startup grad/error  SOSCFStart         ....  0.003300
   Hessian update      SOSCFHessUp        .... L-BFGS
   Autom. constraints  SOSCFAutoConstrain .... off
 Level Shifting         CNVShift        .... on
   Level shift para.    LevelShift      ....    0.2500
   Turn off err/grad.   ShiftErr        ....    0.0010
 Zerner damping         CNVZerner       .... off
 Static damping         CNVDamp         .... on
   Fraction old density DampFac         ....    0.7000
   Max. Damping (<1)    DampMax         ....    0.9800
   Min. Damping (>=0)   DampMin         ....    0.0000
   Turn off err/grad.   DampErr         ....    0.1000

SCF Procedure:
 Maximum # iterations   MaxIter         ....   125
 SCF integral mode      SCFMode         .... Direct
   Integral package                     .... SHARK and LIBINT hybrid scheme
 Reset frequency        DirectResetFreq ....    20
 Integral Threshold     Thresh          ....  1.000e-10 Eh
 Primitive CutOff       TCut            ....  1.000e-11 Eh

Convergence Tolerance:
 Convergence Check Mode ConvCheckMode   .... Total+1el-Energy
 Convergence forced     ConvForced      .... 0
 Energy Change          TolE            ....  1.000e-06 Eh
 1-El. energy change                    ....  1.000e-03 Eh
 Orbital Gradient       TolG            ....  5.000e-05
 Orbital Rotation angle TolX            ....  5.000e-05
 DIIS Error             TolErr          ....  1.000e-06

------------------------------
INITIAL GUESS: MODEL POTENTIAL
------------------------------
Loading Hartree-Fock densities                     ... done
Calculating cut-offs                               ... done
Initializing the effective Hamiltonian             ... done
Setting up the integral package (SHARK)            ... done
Starting the Coulomb interaction                   ... [c09b01n02:2406108] 52 more processes have sent help message help-mpi-btl-openib.txt / error in device init
[c09b01n02:2406108] Set MCA parameter "orte_base_help_aggregate" to 0 to see all help / error messages
[c09b01n02:2406108] 6 more processes have sent help message help-mpi-btl-openib.txt / no active ports found
done (   2.9 sec)
Making the grid                                    ... done (   0.5 sec)
Mapping shells                                     ... done
Starting the XC term evaluation                    ... done (   0.6 sec)
  promolecular density results
     # of electrons  =    313.989191552
     EX              =   -260.376559370
     EC              =    -10.668275387
     EX+EC           =   -271.044834757
Transforming the Hamiltonian                       ... done (   0.3 sec)
Diagonalizing the Hamiltonian                      ... done (   0.7 sec)
Back transforming the eigenvectors                 ... done (   0.3 sec)
Now organizing SCF variables                       ... done
                      ------------------
                      INITIAL GUESS DONE (   7.0 sec)
                      ------------------
             **** ENERGY FILE WAS UPDATED (nmr-conf-10.en.tmp) ****
Finished Guess after  15.4 sec
Maximum memory used throughout the entire GUESS-calculation: 298.0 MB
--------------------------------------------------------------------------
WARNING: There was an error initializing an OpenFabrics device.

  Local host:   c09b01n02
  Local device: mlx5_0
--------------------------------------------------------------------------
--------------------------------------------------------------------------
WARNING: There is at least one non-excluded one OpenFabrics device found,
but there are no active ports detected (or Open MPI was unable to use
them).  This is most certainly not what you wanted.  Check your
cables, subnet manager configuration, etc.  The openib BTL will be
ignored for this job.

  Local host: c09b01n02
--------------------------------------------------------------------------


           ************************************************************
           *        Program running with 60 parallel MPI-processes    *
           *              working on a common directory               *
           ************************************************************

-------------------------------------------------------------------------------------------
                                      ORCA LEAN-SCF
                              memory conserving SCF solver
-------------------------------------------------------------------------------------------

--------------------
CPCM SOLVATION MODEL
--------------------
CPCM parameters:
  Epsilon                                         ...      33.4280
  Refrac                                          ...       1.3288
  Rsolv                                           ...       1.3000
  Surface type                                    ... GAUSSIAN VDW
  Discretization scheme                           ... Constant charge density
    Threshold for H atoms                         ...       5.0000 (charges/Ang^2)
    Threshold for non-H atoms                     ...       5.0000 (charges/Ang^2)
  Epsilon function type                           ...         CPCM
Solvent:                                          ... METHANOL
Radii:
  Scheme                                          ... Element-dependent radii
  Radius for C  used is    3.8550 Bohr (=   2.0400 Ang.)
  Radius for O  used is    3.4469 Bohr (=   1.8240 Ang.)
  Radius for H  used is    2.4944 Bohr (=   1.3200 Ang.)
Calculating surface                               ...        done! (  0.0s)
Cavity surface points                             ...         5827
Cavity Volume                                     ...    4478.1747
Cavity Surface-area                               ...    1941.7697
Calculating surface distance matrix               ...        done! (  0.2s)
Performing Cholesky decomposition & store         ...        done! (  0.6s)
Overall time for CPCM initialization              ...                 0.8s

[c09b01n02:2406520] 48 more processes have sent help message help-mpi-btl-openib.txt / error in device init
[c09b01n02:2406520] Set MCA parameter "orte_base_help_aggregate" to 0 to see all help / error messages
[c09b01n02:2406520] 10 more processes have sent help message help-mpi-btl-openib.txt / no active ports found
----------------------------------------D-I-I-S--------------------------------------------
Iteration    Energy (Eh)           Delta-E    RMSDP     MaxDP     DIISErr   Damp  Time(sec)
-------------------------------------------------------------------------------------------
               ***  Starting incremental Fock matrix formation  ***
    1    -2032.9771879319050640     0.00e+00  8.52e-03  2.94e-01  2.38e-01  0.700  11.9
    2    -2033.3985549226199510    -4.21e-01  7.08e-03  2.47e-01  8.18e-02  0.700  11.5
                               ***Turning on AO-DIIS***
    3    -2033.5536463147482209    -1.55e-01  2.98e-03  7.72e-02  2.46e-02  0.700  12.2
    4    -2033.6476137174795440    -9.40e-02  5.33e-03  9.18e-02  1.14e-02  0.000  10.5
    5    -2033.8568452989920843    -2.09e-01  1.51e-03  4.99e-02  5.25e-03  0.000   9.0
                              *** Initializing SOSCF ***
---------------------------------------S-O-S-C-F--------------------------------------
Iteration    Energy (Eh)           Delta-E    RMSDP     MaxDP     MaxGrad    Time(sec)
--------------------------------------------------------------------------------------
    6    -2033.8582303196881185    -1.39e-03  4.72e-04  1.45e-02  1.87e-03    13.6
               *** Restarting incremental Fock matrix formation ***
    7    -2033.8583516486105509    -1.21e-04  3.86e-04  1.09e-02  1.68e-04    11.2
    8    -2033.8583257961663548     2.59e-05  8.78e-05  1.92e-03  5.36e-04    10.5
    9    -2033.8583666279173485    -4.08e-05  7.92e-05  1.52e-03  1.16e-04     7.5
   10    -2033.8583661186976315     5.09e-07  2.96e-05  9.68e-04  1.35e-04     7.4
                 **** Energy Check signals convergence ****

               *****************************************************
               *                     SUCCESS                       *
               *           SCF CONVERGED AFTER  10 CYCLES          *
               *****************************************************

             **** ENERGY FILE WAS UPDATED (nmr-conf-10.en.tmp) ****

----------------
TOTAL SCF ENERGY
----------------

Total Energy       :      -2033.85836736563215 Eh          -55344.09982 eV

Components:
Nuclear Repulsion  :       5877.27760853018845 Eh          159928.85435 eV
Electronic Energy  :      -7911.09348972555472 Eh         -215271.79806 eV
One Electron Energy:     -14482.32847220564508 Eh         -394084.19258 eV
Two Electron Energy:       6571.23498248009037 Eh          178812.39452 eV
CPCM Dielectric    :         -0.04248617026602 Eh              -1.15611 eV

Virial components:
Potential Energy   :      -4061.59257815231103 Eh         -110521.55286 eV
Kinetic Energy     :       2027.73421078667911 Eh           55177.45304 eV
Virial Ratio       :          2.00302019690075

DFT components:
N(Alpha)           :      157.001044396166 electrons
N(Beta)            :      157.001044396166 electrons
N(Total)           :      314.002088792331 electrons
E(X)               :     -268.194992975090 Eh       
E(C)               :      -10.625282817041 Eh       
E(XC)              :     -278.820275792131 Eh       

CPCM Solvation Model Properties:
Surface-charge          :         -0.04298764356225
Corrected charge        :          0.00000000000000
Outlying charge corr.   :          0.00008082050579 Eh               0.00220 eV
Free-energy (cav+disp)  :  This term is not implemented in the current solvation scheme

---------------
SCF CONVERGENCE
---------------

  Last Energy change         ...   -5.0922e-07  Tolerance :   1.0000e-06
  Last MAX-Density change    ...    9.6839e-04  Tolerance :   1.0000e-05
  Last RMS-Density change    ...    2.9558e-05  Tolerance :   1.0000e-06
  Last DIIS Error            ...    1.8728e-03  Tolerance :   1.0000e-06
  Last Orbital Gradient      ...    1.3472e-04  Tolerance :   5.0000e-05
  Last Orbital Rotation      ...    2.0803e-04  Tolerance :   5.0000e-05


----------------
ORBITAL ENERGIES
----------------

  NO   OCC          E(Eh)            E(eV) 
   0   2.0000     -18.915757      -514.7239 
   1   2.0000     -18.914702      -514.6952 
   2   2.0000     -18.913668      -514.6671 
   3   2.0000     -18.911123      -514.5978 
   4   2.0000     -18.909020      -514.5406 
   5   2.0000     -18.906889      -514.4826 
   6   2.0000     -18.906509      -514.4723 
   7   2.0000     -18.892344      -514.0868 
   8   2.0000     -18.879318      -513.7324 
   9   2.0000     -18.878141      -513.7003 
  10   2.0000     -18.864609      -513.3321 
  11   2.0000     -10.041807      -273.2514 
  12   2.0000     -10.041086      -273.2318 
  13   2.0000     -10.040950      -273.2281 
  14   2.0000     -10.040163      -273.2067 
  15   2.0000     -10.039282      -273.1827 
  16   2.0000     -10.039151      -273.1792 
  17   2.0000     -10.038308      -273.1563 
  18   2.0000     -10.037446      -273.1328 
  19   2.0000     -10.034014      -273.0394 
  20   2.0000     -10.032896      -273.0090 
  21   2.0000     -10.031864      -272.9809 
  22   2.0000     -10.031543      -272.9722 
  23   2.0000     -10.030808      -272.9522 
  24   2.0000     -10.029491      -272.9163 
  25   2.0000     -10.028245      -272.8824 
  26   2.0000     -10.020002      -272.6581 
  27   2.0000      -9.984989      -271.7054 
  28   2.0000      -9.983217      -271.6571 
  29   2.0000      -9.982531      -271.6385 
  30   2.0000      -9.981774      -271.6179 
  31   2.0000      -9.981266      -271.6041 
  32   2.0000      -9.981199      -271.6022 
  33   2.0000      -9.979296      -271.5504 
  34   2.0000      -9.978382      -271.5256 
  35   2.0000      -9.978116      -271.5184 
  36   2.0000      -9.977319      -271.4967 
  37   2.0000      -9.977150      -271.4921 
  38   2.0000      -9.975373      -271.4437 
  39   2.0000      -9.974000      -271.4063 
  40   2.0000      -9.972699      -271.3709 
  41   2.0000      -9.971457      -271.3372 
  42   2.0000      -1.015240       -27.6261 
  43   2.0000      -1.009904       -27.4809 
  44   2.0000      -1.009157       -27.4606 
  45   2.0000      -1.000179       -27.2163 
  46   2.0000      -0.989915       -26.9370 
  47   2.0000      -0.984416       -26.7873 
  48   2.0000      -0.983679       -26.7673 
  49   2.0000      -0.971292       -26.4302 
  50   2.0000      -0.960548       -26.1378 
  51   2.0000      -0.955523       -26.0011 
  52   2.0000      -0.945177       -25.7196 
  53   2.0000      -0.798962       -21.7409 
  54   2.0000      -0.794308       -21.6142 
  55   2.0000      -0.792031       -21.5523 
  56   2.0000      -0.758032       -20.6271 
  57   2.0000      -0.730432       -19.8761 
  58   2.0000      -0.715841       -19.4790 
  59   2.0000      -0.701596       -19.0914 
  60   2.0000      -0.698421       -19.0050 
  61   2.0000      -0.697127       -18.9698 
  62   2.0000      -0.695080       -18.9141 
  63   2.0000      -0.681757       -18.5515 
  64   2.0000      -0.667860       -18.1734 
  65   2.0000      -0.648789       -17.6544 
  66   2.0000      -0.645374       -17.5615 
  67   2.0000      -0.644832       -17.5468 
  68   2.0000      -0.641748       -17.4628 
  69   2.0000      -0.620539       -16.8857 
  70   2.0000      -0.615737       -16.7550 
  71   2.0000      -0.610165       -16.6034 
  72   2.0000      -0.579577       -15.7711 
  73   2.0000      -0.563804       -15.3419 
  74   2.0000      -0.557978       -15.1833 
  75   2.0000      -0.556798       -15.1512 
  76   2.0000      -0.545089       -14.8326 
  77   2.0000      -0.541422       -14.7329 
  78   2.0000      -0.538465       -14.6524 
  79   2.0000      -0.532310       -14.4849 
  80   2.0000      -0.511499       -13.9186 
  81   2.0000      -0.507159       -13.8005 
  82   2.0000      -0.503799       -13.7091 
  83   2.0000      -0.497805       -13.5460 
  84   2.0000      -0.479915       -13.0591 
  85   2.0000      -0.479171       -13.0389 
  86   2.0000      -0.477379       -12.9901 
  87   2.0000      -0.466458       -12.6930 
  88   2.0000      -0.464807       -12.6480 
  89   2.0000      -0.464127       -12.6295 
  90   2.0000      -0.455415       -12.3925 
  91   2.0000      -0.451405       -12.2833 
  92   2.0000      -0.448138       -12.1945 
  93   2.0000      -0.442903       -12.0520 
  94   2.0000      -0.440882       -11.9970 
  95   2.0000      -0.434989       -11.8367 
  96   2.0000      -0.428809       -11.6685 
  97   2.0000      -0.425053       -11.5663 
  98   2.0000      -0.423535       -11.5250 
  99   2.0000      -0.417652       -11.3649 
 100   2.0000      -0.415422       -11.3042 
 101   2.0000      -0.412050       -11.2125 
 102   2.0000      -0.409379       -11.1398 
 103   2.0000      -0.403509       -10.9800 
 104   2.0000      -0.398921       -10.8552 
 105   2.0000      -0.398385       -10.8406 
 106   2.0000      -0.397732       -10.8228 
 107   2.0000      -0.391434       -10.6515 
 108   2.0000      -0.386201       -10.5091 
 109   2.0000      -0.383370       -10.4320 
 110   2.0000      -0.382444       -10.4068 
 111   2.0000      -0.380576       -10.3560 
 112   2.0000      -0.379190       -10.3183 
 113   2.0000      -0.376025       -10.2322 
 114   2.0000      -0.374195       -10.1824 
[...]
  X          -0.5445381   -0.5785769   -0.6072290
  Y           0.3858576    0.4700102   -0.7938541
  Z           0.7447095   -0.6665877   -0.0326902

 --------------
 Nucleus  73H :
 --------------

Diamagnetic contribution to the shielding tensor (ppm) : 
           183.501        -89.418        -4.089
           146.496        -38.728         9.299
            -5.961         57.451       164.437

Paramagnetic contribution to the shielding tensor (ppm): 
          -156.800         86.334        -0.415
          -147.164         67.335        -8.888
             2.783        -55.724      -135.789

Total shielding tensor (ppm): 
            26.701         -3.084        -4.504
            -0.668         28.607         0.411
            -3.178          1.727        28.648


 Diagonalized sT*s matrix:
 
 sDSO           180.698           -7.323          135.835  iso=     103.070
 sPSO          -157.132           35.075         -103.197  iso=     -75.085
        ---------------  ---------------  ---------------
 Total           23.566           27.752           32.638  iso=      27.985

 Orientation: 
  X          -0.8122985    0.1517848   -0.5631452
  Y          -0.1630853    0.8679187    0.4691699
  Z          -0.5599771   -0.4729467    0.6802552

 --------------
 Nucleus  74H :
 --------------

Diamagnetic contribution to the shielding tensor (ppm) : 
           206.650        -22.465       -20.236
           174.334         31.663       -19.925
             8.202         21.425       248.293

Paramagnetic contribution to the shielding tensor (ppm): 
          -182.120         22.167        19.723
          -174.069          2.138        16.545
            -6.610        -23.987      -221.856

Total shielding tensor (ppm): 
            24.530         -0.298        -0.513
             0.265         33.801        -3.380
             1.592         -2.562        26.437


 Diagonalized sT*s matrix:
 
 sDSO           197.404          235.790           53.412  iso=     162.202
 sPSO          -173.108         -210.171          -18.559  iso=    -133.946
        ---------------  ---------------  ---------------
 Total           24.295           25.619           34.853  iso=      28.256

 Orientation: 
  X           0.8989825    0.4375414    0.0196974
  Y          -0.1322001    0.3139473   -0.9401916
  Z          -0.4175567    0.8426118    0.3400761

 --------------
 Nucleus  75H :
 --------------

Diamagnetic contribution to the shielding tensor (ppm) : 
            48.025         -5.613        58.456
           -14.459         38.104        50.403
            78.833       -177.973       -60.026

Paramagnetic contribution to the shielding tensor (ppm): 
            -6.236          1.720       -57.613
             9.403        -16.867       -54.794
           -78.141        174.889        79.615

Total shielding tensor (ppm): 
            41.788         -3.893         0.843
            -5.056         21.237        -4.391
             0.692         -3.085        19.588


 Diagonalized sT*s matrix:
 
 sDSO           -70.340           34.043           62.399  iso=       8.701
 sPSO            86.721          -10.629          -19.581  iso=      18.837
        ---------------  ---------------  ---------------
 Total           16.381           23.414           42.818  iso=      27.538

 Orientation: 
  X           0.0869282    0.1974793   -0.9764453
  Y           0.6719785    0.7119723    0.2038144
  Z           0.7354511   -0.6738675   -0.0708114

 --------------
 Nucleus  76H :
 --------------

Diamagnetic contribution to the shielding tensor (ppm) : 
           -93.439         83.528       -10.738
          -121.156        122.135         2.744
           -97.735        171.506       -63.878

Paramagnetic contribution to the shielding tensor (ppm): 
           122.465        -91.428        13.647
           113.190        -88.739         0.397
            99.283       -168.264        90.434

Total shielding tensor (ppm): 
            29.026         -7.900         2.909
            -7.966         33.397         3.141
             1.548          3.242        26.556


 Diagonalized sT*s matrix:
 
 sDSO           -47.851          -69.901           82.570  iso=     -11.727
 sPSO            68.485           98.690          -43.015  iso=      41.387
        ---------------  ---------------  ---------------
 Total           20.634           28.789           39.555  iso=      29.660

 Orientation: 
  X           0.6575567    0.4723326   -0.5869592
  Y           0.5389795    0.2494439    0.8045364
  Z          -0.5264222    0.8453873    0.0905541

 --------------
 Nucleus  77H :
 --------------

Diamagnetic contribution to the shielding tensor (ppm) : 
           -29.401         69.674        12.390
           -48.350         99.145        14.783
           -39.602        172.726        41.183

Paramagnetic contribution to the shielding tensor (ppm): 
            51.876        -59.712       -14.414
            59.208        -63.015       -14.604
            37.356       -171.565       -18.372

Total shielding tensor (ppm): 
            22.475          9.962        -2.024
            10.858         36.130         0.179
            -2.246          1.161        22.811


 Diagonalized sT*s matrix:
 
 sDSO           -38.450           75.567           73.810  iso=      36.975
 sPSO            54.582          -52.042          -32.051  iso=      -9.837
        ---------------  ---------------  ---------------
 Total           16.131           23.525           41.759  iso=      27.138

 Orientation: 
  X          -0.8334382   -0.2679449   -0.4833077
  Y           0.4499595    0.1786808   -0.8749912
  Z          -0.3208072    0.9467200    0.0283551

 --------------
 Nucleus  78H :
 --------------

Diamagnetic contribution to the shielding tensor (ppm) : 
           -23.237        -51.203       -28.975
           -46.653        -21.115       -21.915
          -222.270        125.947       -71.616

Paramagnetic contribution to the shielding tensor (ppm): 
            49.752         58.207        23.551
            52.543         42.521        23.918
           216.062       -125.585       101.185

Total shielding tensor (ppm): 
            26.515          7.003        -5.424
             5.890         21.407         2.003
            -6.207          0.361        29.569


 Diagonalized sT*s matrix:
 
 sDSO           -53.152          -94.724           31.908  iso=     -38.656
 sPSO            68.774          121.710            2.974  iso=      64.486
        ---------------  ---------------  ---------------
 Total           15.622           26.986           34.882  iso=      25.830

 Orientation: 
  X          -0.6077822   -0.4098646   -0.6801557
  Y           0.7326967   -0.6196983   -0.2812997
  Z          -0.3061966   -0.6693168    0.6769480

 --------------
 Nucleus  79H :
 --------------

Diamagnetic contribution to the shielding tensor (ppm) : 
           130.958       -132.874        12.608
           105.834        -94.884        21.072
           -45.570         81.325       -43.566

Paramagnetic contribution to the shielding tensor (ppm): 
          -103.086        136.306       -13.377
          -104.453        124.920       -19.564
            43.219        -80.865        67.982

Total shielding tensor (ppm): 
            27.872          3.431        -0.769
             1.381         30.037         1.508
            -2.351          0.461        24.416


 Diagonalized sT*s matrix:
 
 sDSO           -48.873           84.083          -42.701  iso=      -2.497
 sPSO            72.165          -56.640           74.292  iso=      29.939
        ---------------  ---------------  ---------------
 Total           23.291           27.443           31.590  iso=      27.442

 Orientation: 
  X           0.4310906   -0.7301910   -0.5300774
  Y          -0.2821942    0.4488939   -0.8478565
  Z           0.8570457    0.5150877   -0.0125417

 --------------
 Nucleus  80H :
 --------------

Diamagnetic contribution to the shielding tensor (ppm) : 
            25.903       -193.699         8.385
           -21.179       -169.195         7.121
            -0.338         38.117      -164.970

Paramagnetic contribution to the shielding tensor (ppm): 
             8.882        193.545        -6.842
            20.169        193.526        -5.573
             0.534        -38.198       190.377

Total shielding tensor (ppm): 
            34.786         -0.153         1.542
            -1.009         24.331         1.549
             0.197         -0.081        25.407


 Diagonalized sT*s matrix:
 
 sDSO          -201.198         -140.382           33.318  iso=    -102.754
 sPSO           225.081          166.133            1.572  iso=     130.929
        ---------------  ---------------  ---------------
 Total           23.883           25.752           34.889  iso=      28.175

 Orientation: 
  X           0.0820418   -0.0671938   -0.9943612
  Y           0.8864924    0.4608331    0.0420011
  Z          -0.4554124    0.8849394   -0.0973743

 --------------
 Nucleus  81H :
 --------------

Diamagnetic contribution to the shielding tensor (ppm) : 
            45.348       -110.785        -4.669
            20.203        -94.271         6.564
          -115.648        119.918       -80.357

Paramagnetic contribution to the shielding tensor (ppm): 
           -15.425        113.408        -0.642
           -17.966        118.505        -7.445
           112.282       -119.789       108.558

Total shielding tensor (ppm): 
            29.923          2.623        -5.312
             2.238         24.235        -0.882
            -3.366          0.129        28.201


 Diagonalized sT*s matrix:
 
 sDSO           -76.918          -68.959           16.597  iso=     -43.093
 sPSO            99.826           94.458           17.354  iso=      70.546
        ---------------  ---------------  ---------------
 Total           22.908           25.499           33.952  iso=      27.453

 Orientation: 
  X           0.4986789    0.4134968   -0.7618003
  Y          -0.7964627    0.5653666   -0.2144943
  Z           0.3420038    0.7137093    0.6112712



--------------------------------
CHEMICAL SHIELDING SUMMARY (ppm)
--------------------------------


  Nucleus  Element    Isotropic     Anisotropy
  -------  -------  ------------   ------------
      0       C           29.229        118.654 
      1       C           44.992        101.766 
      2       C           24.774        130.088 
      3       C           77.860        143.076 
      4       C           43.052        196.680 
      5       C           73.266        136.458 
      6       C          139.781         18.251 
      7       C          134.825         14.620 
      8       C          135.974         22.270 
      9       C          143.012         25.680 
     10       C           46.363        185.609 
     11       C           70.572        153.944 
     12       C           29.511        123.222 
     13       C           32.736        127.331 
     14       C           69.343        141.874 
     15       C           59.417        147.637 
     16       C          115.215         60.335 
     17       C          110.909         64.257 
     23       C           95.912         20.851 
     24       C          104.133         38.739 
     25       C           45.119        170.929 
     26       C          112.223         56.092 
     28       C           75.399        152.901 
     29       C           31.509        114.643 
     30       C           32.472        124.607 
     31       C           69.916        147.312 
     32       C           63.790        182.699 
     33       C          127.483         74.888 
     34       C          127.151         77.238 
     35       C          126.192         71.913 
     41       C          125.315         77.104 
     42       H           26.272          7.390 
     43       H           25.918          8.831 
     44       H           29.066          5.740 
     45       H           29.280          3.830 
     46       H           29.898          7.962 
     47       H           29.609          9.167 
     48       H           29.587          7.406 
     49       H           30.141          7.776 
     50       H           25.882          8.125 
     51       H           25.164          3.849 
     52       H           25.336          5.839 
     53       H           27.626          7.876 
     54       H           27.485          6.106 
     55       H           28.022          5.833 
     56       H           27.683          5.856 
     57       H           25.860         12.889 
     58       H           25.999          4.293 
     59       H           27.032          6.811 
     60       H           27.232          6.089 
     61       H           27.624          6.477 
     62       H           29.185         19.344 
     63       H           25.036          8.787 
     64       H           25.796          4.324 
     65       H           25.532          5.789 
     66       H           28.063          8.687 
     67       H           27.533          8.781 
     68       H           28.459          6.948 
     69       H           28.102          6.497 
     70       H           28.066          9.292 
     71       H           27.623          9.527 
     72       H           27.755          7.195 
     73       H           27.985          6.979 
     74       H           28.256          9.896 
     75       H           27.538         22.921 
     76       H           29.660         14.843 
     77       H           27.138         21.931 
     78       H           25.830         13.578 
     79       H           27.442          6.223 
     80       H           28.175         10.072 
     81       H           27.453          9.748 


NMR shielding tensor and spin rotation calculation done in   2.5 sec 

Maximum memory used throughout the entire PROP-calculation: 373.6 MB
[c09b01n02:2408168] 8 more processes have sent help message help-mpi-btl-openib.txt / no active ports found
[c09b01n02:2408168] Set MCA parameter "orte_base_help_aggregate" to 0 to see all help / error messages
[c09b01n02:2408168] 50 more processes have sent help message help-mpi-btl-openib.txt / error in device init
--------------------------------------------------------------------------
WARNING: There was an error initializing an OpenFabrics device.

  Local host:   c09b01n02
  Local device: mlx5_0
--------------------------------------------------------------------------
--------------------------------------------------------------------------
WARNING: There is at least one non-excluded one OpenFabrics device found,
but there are no active ports detected (or Open MPI was unable to use
them).  This is most certainly not what you wanted.  Check your
cables, subnet manager configuration, etc.  The openib BTL will be
ignored for this job.

  Local host: c09b01n02
--------------------------------------------------------------------------
[c09b01n02:2408610] 56 more processes have sent help message help-mpi-btl-openib.txt / error in device init
[c09b01n02:2408610] Set MCA parameter "orte_base_help_aggregate" to 0 to see all help / error messages
[c09b01n02:2408610] 2 more processes have sent help message help-mpi-btl-openib.txt / no active ports found

--------------------------------
SUGGESTED CITATIONS FOR THIS RUN
--------------------------------

Below you find a list of papers that are relevant to this ORCA run
We neither can nor want to force you to cite these papers, but we appreciate if you do
You receive ORCA, which is the product of decades of hard work by many enthusiastic individuals, for free
The only thing we kindly ask in return is that you cite our papers,
We deeply appreciate it, if you show your appreciation for ORCA by not just citing the generic ORCA reference.

Please note that relegating all ORCA citations to the supporting information does *not* help us.
SI sections are not indexed - citations you put there will not count into any citation statistics
But we need these citations in order to attract the funding resources that allow us to do what we are doing

Therefore, if you are a happy ORCA user, please consider citing a few of the papers listed below in the main body of your paper

In addition to the list printed below, the program has created the file nmr-conf-10.bibtex that contains the list in bibtex format
You can import this file easily into all common literature databanks and citation aid programs


List of essential papers. We consider these as the minimum necessary citations

  1. Neese, F.
     Software update: the ORCA program system, version 6.0
     WIRES Comput. Molec. Sci. 2025 15(1), e70019
     doi.org/10.1002/wcms.7019

List of papers to cite with high priority. The work reported in these papers was absolutely
necessary for this run to complete.
Our perspective: the developers of density functionals and basis sets usually get cited in chemistry papers
Good! But without the algorithms to do something with them, the functionals or basis sets would not do anything.
Hence, in our opinion, the algorithm design and method developments papers are equally worthy of getting cited

  1. Neese, F.
     An improvement of the resolution of the identity approximation for the formation of the Coulomb matrix
     J. Comp. Chem. 2003 24(14), 1740-1747
     doi.org/10.1002/jcc.10318
  2. Stoychev, G.L.; Auer, A.A.; Neese, F.
     Automatic Generation of Auxiliary Basis Sets
     J. Theo. Comp. Chem. 2017 13 , 554-562
     doi.org/10.1021/acs.jctc.6b01041
  3. Stoychev, G.L.; Auer, A.A.; Izsak, R.; Neese, F.
     Self-Consistent Field Calculation of Nuclear Magnetic Resonance Chemical Shielding Constants Using Gauge-Including Atomic Orbitals and Approximate Two-Electron Integrals
     J. Chem. Theory Comput. 2018 14(2), 619-637
     doi.org/10.1021/acs.jctc.7b01006
  4. Garcia-Rates, M.; Neese, F.
     Effect of the Solute Cavity on the Solvation Energy and its Derivatives within the Framework of the Gaussian Charge Scheme
     J. Comput. Chem. 2020 41 , 922-939
     doi.org/10.1002/jcc.26139
  5. Neese, F.
     The SHARK Integral Generation and Digestion System
     J. Comp. Chem. 2022 44(3), 381
     doi.org/10.1002/jcc.26942

List of suggested additional citations. These are papers that are important in the 'surrounding' of 
of this run, or papers that preceded the highly important papers. If you like your results we are grateful for a citation.

  1. Neese, F.
     The ORCA program system
     WIRES Comput. Molec. Sci. 2012 2(1), 73-78
     doi.org/10.1002/wcms.81
  2. Neese, F.
     Software update: the ORCA program system, version 4.0
     WIRES Comput. Molec. Sci. 2018 8(1), 1-6
     doi.org/10.1002/wcms.1327
  3. Neese, F.; Wennmohs, F.; Becker, U.; Riplinger, C.
     The ORCA quantum chemistry program package
     J. Chem. Phys. 2020 152(22), 224108
     doi.org/10.1063/5.0004608
  4. Neese, F.
     Software update: The ORCA program system—Version 5.0
     WIRES Comput. Molec. Sci. 2022 12(1), e1606
     doi.org/10.1002/wcms.1606

List of optional additional citations

  1. Neese, F.
     Approximate second-order SCF convergence for spin unrestricted wavefunctions
     Chem. Phys. Lett. 2000 325(1-3), 93-98
     doi.org/10.1016/s0009-2614(00)00662-x

Timings for individual modules:

Sum of individual times          ...      318.363 sec (=   5.306 min)
Startup calculation              ...       91.293 sec (=   1.522 min)  28.7 %
SCF iterations                   ...      153.729 sec (=   2.562 min)  48.3 %
Property integrals               ...       53.395 sec (=   0.890 min)  16.8 %
SCF Response                     ...       12.914 sec (=   0.215 min)   4.1 %
Property calculations            ...        7.032 sec (=   0.117 min)   2.2 %
                             ****ORCA TERMINATED NORMALLY****
TOTAL RUN TIME: 0 days 0 hours 5 minutes 42 seconds 58 msec
