
                                 *****************
                                 * O   R   C   A *
                                 *****************

                                            #,                                       
                                            ###                                      
                                            ####                                     
                                            #####                                    
                                            ######                                   
                                           ########,                                 
                                     ,,################,,,,,                         
                               ,,#################################,,                 
                          ,,##########################################,,             
                       ,#########################################, ''#####,          
                    ,#############################################,,   '####,        
                  ,##################################################,,,,####,       
                ,###########''''           ''''###############################       
              ,#####''   ,,,,##########,,,,          '''####'''          '####       
            ,##' ,,,,###########################,,,                        '##       
           ' ,,###''''                  '''############,,,                           
         ,,##''                                '''############,,,,        ,,,,,,###''
      ,#''                                            '''#######################'''  
     '                                                          ''''####''''         
             ,#######,   #######,   ,#######,      ##                                
            ,#'     '#,  ##    ##  ,#'     '#,    #''#        ,####,    ,#,          
            ##       ##  ##   ,#'  ##            #'  '#       #'       ,# #          
            ##       ##  #######   ##           ,######,      #####,      #          
            '#,     ,#'  ##    ##  '#,     ,#' ,#      #,     #,   #      #          
             '#######'   ##     ##  '#######'  #'      '#     '####' #    #          



                #########################################################
                #                        -***-                          #
                #          Department of theory and spectroscopy        #
                #                                                       #
                #                      Frank Neese                      #
                #                                                       #
                #     Directorship, Architecture, Infrastructure        #
                #                    SHARK, DRIVERS                     #
                #        Core code/Algorithms in most modules           #
                #                                                       #
                #        Max Planck Institute fuer Kohlenforschung      #
                #                Kaiser Wilhelm Platz 1                 #
                #                 D-45470 Muelheim/Ruhr                 #
                #                      Germany                          #
                #                                                       #
                #                  All rights reserved                  #
                #                        -***-                          #
                #########################################################


                         Program Version 6.1.0-f.0  -   RELEASE   -


 With contributions from (in alphabetic order):
[Max-Planck-Institut fuer Kohlenforschung]                               
  Daniel Aravena         : Magnetic Suceptibility                        
  Michael Atanasov       : Ab Initio Ligand Field Theory (pilot matlab implementation)
  Alexander A. Auer      : GIAO ZORA, VPT2 properties, NMR spectrum      
  Ute Becker             : All parallelization in ORCA, NUMFREQ, NUMCALC 
  Giovanni Bistoni       : ED, misc. LED, open-shell LED, HFLD           
  Dmytro Bykov           : pre 5.0 version of the SCF Hessian            
  Marcos Casanova-Páez   : Triplet and SCS-CIS(D). UHF-(DLPNO)-IP/EA/STEOM-CCSD. UHF-CVS-IP/STEOM-CCSD   
  Vijay G. Chilkuri      : MRCI spin determinant printing, contributions to CSF-ICE 
  Pauline Colinet        : FMM embedding                                 
  Dipayan Datta          : RHF DLPNO-CCSD density                        
  Achintya Kumar Dutta   : EOM-CC, STEOM-CC                              
  Nicolas Foglia         : Exact transition moments, OPA infrastructure, MCD improvements    
  Dmitry Ganyushin       : Spin-Orbit,Spin-Spin,Magnetic field MRCI      
  Miquel Garcia-Rates    : C-PCM and meta-GGA Hessian, CCSD/C-PCM, Gaussian charge scheme 
  Tiago L. C. Gouveia    : GS-ROHF, GS-ROCIS                             
  Yang Guo               : DLPNO-NEVPT2, F12-NEVPT2, CIM, IAO-localization        
  Andreas Hansen         : Spin unrestricted coupled pair/coupled cluster methods 
  Ingolf Harden          : AUTO-CI MPn and infrastructure                
  Benjamin Helmich-Paris : MC-RPA, TRAH-(SCF,CASSCF), AVAS, COSX integrals, SCF dyn. polar., MC-PDFT, srDFT 
  Lee Huntington         : MR-EOM, pCC                                   
  Robert Izsak           : Overlap fitted RIJCOSX, COSX-SCS-MP3, EOM     
  Riya Kayal             : Wick's Theorem for AUTO-CI, AUTO-CI UHF-CCSDT 
  Emily Kempfer          : AUTO-CI RHF CISDT and CCSDT, approximate NEVPT4
  Christian Kollmar      : KDIIS, OOCD, Brueckner-CCSD(T), CCSD density, CASPT2, CASPT2-K, improved NEVPT2 
  Axel Koslowski         : Symmetry handling                             
  Simone Kossmann        : meta-GGA functionals, TD-DFT gradient, OOMP2, (MP2 Hessian; deprecated post 5.0) 
  Lucas Lang             : DCDCAS, Hyperfine gauge corrections, ICE-SOC+SSC
  Marvin Lechner         : AUTO-CI (C++ implementation), FIC-MRCC        
  Spencer Leger          : CASSCF response                               
  Dagmar Lenk            : GEPOL surface, SMD, ORCA-2-JSON               
  Dimitrios Liakos       : Extrapolation schemes; Compound Job, Property file
  Dimitrios Manganas     : Further ROCIS development; embedding schemes. LFT, Crystal Embedding 
  Dimitrios Pantazis     : SARC Basis sets                               
  Anastasios Papadopoulos: AUTO-CI, single reference methods and gradients 
  Taras Petrenko         : pre 6.0 DFT Hessian and TD-DFT gradient,  ECA, NRVS 
  Petra Pikulova         : Analytic Raman intensities                    
  Peter Pinski           : DLPNO-MP2, DLPNO-MP2 Gradient                 
  Shashank Vittal Rao    : ES-AILFT, MagRelax                            
  Christoph Reimann      : Effective Core Potentials                     
  Marius Retegan         : Local ZFS, SOC                                
  Christoph Riplinger    : Optimizer, TS searches, QM/MM, DLPNO-CCSD(T), (RO)-DLPNO pert. Triples 
  Michael Roemelt        : Original ROCIS implementation, recursive CI coupling coefficients
  Masaaki Saitow         : Open-shell DLPNO-CCSD energy and density      
  Barbara Sandhoefer     : DKH picture change effects                    
  Yorick L. A. Schmerwitz: GMF and freeze-and-release deltaSCF, NEB S-IDPP initial path                    
  Kantharuban Sivalingam : CASSCF convergence/infrastructure, NEVPT2, NEVPT3, NEVPT4(SD), FIC-MRCI and CEPA variants
  Bernardo de Souza      : ESD, SOC TD-DFT                               
  Georgi L. Stoychev     : AutoAux, RI-MP2 NMR, DLPNO-MP2 response, X2C  
  Van Anh Tran           : RI-MP2 g-tensors                              
  Willem Van den Heuvel  : Paramagnetic NMR                              
  Zikuan Wang            : NOTCH, Electric field optimization            
  Frank Wennmohs         : Technical directorship and infrastructure     
  Hang Xu                : AUTO-CI-Response properties                   
                                                                         
[FACCTs GmbH]                                                            
  Markus Bursch, Nicolas Foglia, Miquel Garcia-Rates, Ingolf Harden, Hagen Neugebauer, Anastasios Papadopoulos, 
  Christoph Riplinger, Bernardo de Souza, Georgi L. Stoychev                                                    
                                                                 
  APM, various basis sets, CI-OPT, improved COSX, DLPNO-Multilevel,           
  DOCKER, DRACO, updates on ESD, Fragmentator, GOAT, IRC, LR-CPCM, L-BFGS, MBIS, meta-GGA TD-DFT gradient, ML-optimized integration grids, 
  MM, NACMEs, nearIR, NEB, NEB-TS, NL-DFT gradient (VV10), 2- and 3-layer-ONIOM, interface openCOSMO-RS, QMMM,   
  Crystal-QMMM, RESP, rigid body optimization, SF, symmetry and pop. for TD-DFT, various functionals, SOLVATOR                                   
                                                                         
[Other institutions]                                                     
  V. Asgeirsson          : NEB                                           
  Christoph Bannwarth    : sTDA-DFT, sTD-DFT, PBEh-3c, B97-3c, D3        
  Giovanni Bistoni       : ETS/NOCV, ADLD/ADEX, COVALED                  
  Martin Brehm           : Molecular dynamics                            
  Ronald Cardenas        : ETS/NOCV                                      
  Martina Colucci        : COVALED                                       
  Sebastian Ehlert       : rSCAN, r2SCAN, r2SCAN-3c, D4, dhf basis sets  
  Marvin Friede          : D4 for Fr, Ra, Ac-Lr                          
  Lars Goerigk           : TD-DFT with DH, B97 family of functionals     
  Stefan Grimme          : VdW corrections, initial TS optimization, DFT functionals, gCP, sTDA/sTD-DF 
  Waldemar Hujo          : DFT-NL                                        
  H. Jonsson             : NEB                                           
  Holger Kruse           : gCP                                           
  Marcel Mueller         : wB97X-3c, vDZP basis set                      
  Hagen Neugebauer       : wr2SCAN, Native XTB                           
  Gianluca Regni         : ADLD/ADEX                                     
  Tobias Risthaus        : pre 6.0 range-separated hybrid DFT and stability analysis
  Lukas Wittmann         : regularized MP2, r2SCAN double-hybrids, wr2SCAN        
                                                                         
We gratefully acknowledge several colleagues who have allowed us to      
interface, adapt or use parts of their codes:                            
  Ed Valeev, F. Pavosevic, A. Kumar             : LibInt (2-el integral package), F12 methods 
  Garnet Chan, S. Sharma, J. Yang, R. Olivares  : DMRG                   
  Ulf Ekstrom                                   : XCFun DFT Library      
  Mihaly Kallay                                 : mrcc  (arbitrary order and MRCC methods)
  Frank Weinhold                                : gennbo (NPA and NBO analysis)           
  Simon Mueller                                 : openCOSMO-RS                            
  Christopher J. Cramer and Donald G. Truhlar   : smd solvation model                     
  S Lehtola, MJT Oliveira, MAL Marques          : LibXC Library                           
  Liviu Ungur et al                             : ANISO software                          


 Your calculation uses the libint2 library for the computation of 2-el integrals
 For citations please refer to: http://libint.valeyev.net

 Your ORCA version has been built with support for libXC version: 7.0.0
 For citations please refer to: https://libxc.gitlab.io

 This ORCA versions uses:
   CBLAS   interface :  Fast vector & matrix operations
   LAPACKE interface :  Fast linear algebra routines
   SCALAPACK package :  Parallel linear algebra routines
   Shared memory     :  Shared parallel matrices
   BLAS/LAPACK       :  OpenBLAS 0.3.29  USE64BITINT DYNAMIC_ARCH NO_AFFINITY Cooperlake SINGLE_THREADED
        Core in use  :  Cooperlake
   Copyright (c) 2011-2014, The OpenBLAS Project


  ***********************************
  * Starting time: Tue Mar  3 20:59:53 2026
  * Host name:     c09b01n02
  * Process ID:    2402181
  * Working dir.:  /lustre1/jiangy/jiangy_liuxy/NMR/B9D7C2-SSSS-NMR/opt_conf
  ***********************************

NOTE: MaxCore=5000 MB was set to SCF,MP2,MDCI,CIPSI,MRCI,RASCI and CIS
      => If you want to overwrite this, your respective input block should be placed after the MaxCore statement


***************************************
The coordinates will be read from file: opt-conf-6.xyz
***************************************



Warning: The global flag for NMR shieldings has been found
         but shieldings for certain elements have also been explicitly requested in the EPRNMR block
         ==>> only the requested shieldings will be calculated

================================================================================

----- Orbital basis set information -----
Your calculation utilizes the basis: pcSseg-2
   F. Jensen, J. Chem. Theory Comput. 11, 132 (2015).

----- AuxJ basis set information -----
Your calculation utilizes the AutoAux generation procedure.
  G. L. Stoychev, A. A. Auer, F. Neese, J. Chem. Theory Comput. 13, 554 (2017)

----- AuxC basis set information -----
Your calculation utilizes the AutoAux generation procedure.
  G. L. Stoychev, A. A. Auer, F. Neese, J. Chem. Theory Comput. 13, 554 (2017)

----- AuxJK basis set information -----
Your calculation utilizes the AutoAux generation procedure.
  G. L. Stoychev, A. A. Auer, F. Neese, J. Chem. Theory Comput. 13, 554 (2017)

----- AuxX basis set information -----
Your calculation utilizes the AutoAux generation procedure.
  G. L. Stoychev, A. A. Auer, F. Neese, J. Chem. Theory Comput. 13, 554 (2017)

================================================================================
                                        WARNINGS
                       Please study these warnings very carefully!
================================================================================


================================================================================
                                       INPUT FILE
================================================================================
NAME = nmr-conf-6.inp
|  1> !TPSS PCSSEG-2 AUTOAUX NMR CPCM(Methanol)
|  2> 
|  3> %pal nprocs 60 end
|  4> %maxcore 5000
|  5> 
|  6> *XYZFILE 0 1 opt-conf-6.xyz
|  7> 
|  8> %EPRNMR
|  9>    NUCLEI = ALL C {SHIFT}
| 10>    NUCLEI = ALL H {SHIFT}
| 11>    TAU DOBSON
| 12> END
| 13> 
| 14> 
| 15>                          ****END OF INPUT****
================================================================================

                       ****************************
                       * Single Point Calculation *
                       ****************************

---------------------------------
CARTESIAN COORDINATES (ANGSTROEM)
---------------------------------
  C     29.104872  -26.236814    1.443469
  C     30.334879  -25.860303    0.890448
  C     30.370987  -25.197409   -0.342015
  C     29.184691  -24.942476   -1.018597
  C     27.969226  -25.326990   -0.476544
  C     27.932246  -25.967747    0.754058
  C     26.679104  -25.090924   -1.210534
  C     26.147738  -26.404430   -1.817063
  C     24.622758  -26.343389   -2.083114
  C     23.945408  -27.680293   -1.746070
  C     24.175380  -28.181360   -0.345555
  C     24.256780  -29.557597   -0.130058
  C     24.415986  -30.074121    1.143265
  C     24.526755  -29.202551    2.238462
  C     24.452397  -27.838643    2.025767
  C     24.266842  -27.335496    0.748597
  C     27.013488  -26.758851   -3.033839
  C     24.223206  -25.918673   -3.510330
  O     31.611033  -24.844832   -0.788933
  O     29.170290  -26.860955    2.654444
  O     31.483878  -26.086212    1.617552
  O     24.700094  -29.688375    3.498294
  O     24.476580  -31.413104    1.465173
  C     32.421318  -27.008316    1.061674
  C     31.975210  -28.454375    1.383070
  C     30.732522  -28.845501    0.599950
  C     33.761869  -26.672107    1.722296
  O     34.201275  -25.394040    1.350039
  C     29.688814  -29.468812    1.275290
  C     28.518736  -29.796322    0.618167
  C     28.375690  -29.481179   -0.738983
  C     29.436863  -28.919911   -1.424956
  C     30.612452  -28.612877   -0.761278
  C     27.961171  -27.184837    3.299573
  C     31.719752  -24.152484   -2.008682
  C     24.358025  -32.353168    0.426909
  O     31.783181  -28.576564    2.767370
  O     26.703975  -28.004904   -3.612428
  O     24.265383  -26.939180   -4.467444
  O     27.440799  -30.439317    1.183639
  O     27.197902  -29.753317   -1.382450
  C     27.629006  -31.053691    2.437897
  H     29.197016  -24.431774   -1.967865
  H     26.977120  -26.258187    1.160649
  H     26.816425  -24.349015   -1.998660
  H     25.945146  -24.699793   -0.504003
  H     26.309525  -27.190218   -1.070907
  H     24.207478  -25.573700   -1.425447
  H     22.868017  -27.558238   -1.898556
  H     24.280669  -28.436108   -2.458050
  H     24.164822  -30.218279   -0.979093
  H     24.525198  -27.182223    2.878592
  H     24.186105  -26.268299    0.620196
  H     26.894667  -26.018074   -3.828820
  H     28.063486  -26.741437   -2.711561
  H     24.842963  -25.061150   -3.818522
  H     23.181690  -25.581026   -3.495545
  H     24.656207  -30.652301    3.449276
  H     32.510691  -26.856967   -0.017678
  H     32.794482  -29.137432    1.124534
  H     33.643074  -26.744845    2.812033
  H     34.528837  -27.378572    1.398807
  H     33.439024  -24.804261    1.416672
  H     29.816126  -29.689324    2.322599
  H     29.339170  -28.741373   -2.483773
  H     31.431702  -28.190270   -1.321045
  H     27.359640  -27.881925    2.708850
  H     28.245361  -27.653023    4.240856
  H     27.369284  -26.289021    3.508494
  H     31.342311  -24.749410   -2.845101
  H     31.190610  -23.195335   -1.975003
  H     32.784878  -23.972057   -2.144526
  H     23.409644  -32.243100   -0.107051
  H     25.188450  -32.274766   -0.282148
  H     24.388565  -33.329805    0.907956
  H     31.199321  -27.843416    3.023604
  H     26.842035  -28.692983   -2.941271
  H     25.121100  -27.395494   -4.395723
  H     26.576492  -30.097958   -0.722719
  H     27.681845  -30.315064    3.242634
  H     26.756946  -31.688779    2.585334
  H     28.533127  -31.668436    2.444370

----------------------------
CARTESIAN COORDINATES (A.U.)
----------------------------
  NO LB      ZA    FRAG     MASS         X           Y           Z
   0 C     6.0000    0    12.011   55.000237  -49.580393    2.727760
   1 C     6.0000    0    12.011   57.324614  -48.868890    1.682703
   2 C     6.0000    0    12.011   57.392847  -47.616203   -0.646314
   3 C     6.0000    0    12.011   55.151073  -47.134449   -1.924869
   4 C     6.0000    0    12.011   52.854178  -47.861074   -0.900537
   5 C     6.0000    0    12.011   52.784295  -49.071930    1.424964
   6 C     6.0000    0    12.011   50.416199  -47.414975   -2.287578
   7 C     6.0000    0    12.011   49.412063  -49.897142   -3.433752
   8 C     6.0000    0    12.011   46.530269  -49.781791   -3.936514
   9 C     6.0000    0    12.011   45.250264  -52.308173   -3.299594
  10 C     6.0000    0    12.011   45.684847  -53.255052   -0.653004
  11 C     6.0000    0    12.011   45.838671  -55.855763   -0.245775
  12 C     6.0000    0    12.011   46.139527  -56.831852    2.160457
  13 C     6.0000    0    12.011   46.348850  -55.184824    4.230080
  14 C     6.0000    0    12.011   46.208333  -52.607411    3.828145
  15 C     6.0000    0    12.011   45.857686  -51.656601    1.414643
  16 C     6.0000    0    12.011   51.048093  -50.566900   -5.733124
  17 C     6.0000    0    12.011   45.775225  -48.979195   -6.633562
  18 O     8.0000    0    15.999   59.736196  -46.949929   -1.490867
  19 O     8.0000    0    15.999   55.123859  -50.759848    5.016173
  20 O     8.0000    0    15.999   59.495907  -49.295796    3.056730
  21 O     8.0000    0    15.999   46.676412  -56.102898    6.610817
  22 O     8.0000    0    15.999   46.254032  -59.362163    2.768776
  23 C     6.0000    0    12.011   61.267412  -51.038320    2.006274
  24 C     6.0000    0    12.011   60.424390  -53.770977    2.613623
  25 C     6.0000    0    12.011   58.076049  -54.510097    1.133742
  26 C     6.0000    0    12.011   63.800686  -50.402978    3.254667
  27 O     8.0000    0    15.999   64.631042  -47.987780    2.551204
  28 C     6.0000    0    12.011   56.103728  -55.687984    2.409949
  29 C     6.0000    0    12.011   53.892601  -56.306888    1.168166
  30 C     6.0000    0    12.011   53.622283  -55.711355   -1.396475
  31 C     6.0000    0    12.011   55.627610  -54.650712   -2.692776
  32 C     6.0000    0    12.011   57.849151  -54.070502   -1.438607
  33 C     6.0000    0    12.011   52.838956  -51.371898    6.235289
  34 C     6.0000    0    12.011   59.941644  -45.641581   -3.795859
  35 C     6.0000    0    12.011   46.029997  -61.138627    0.806741
  36 O     8.0000    0    15.999   60.061509  -54.001879    5.229572
  37 O     8.0000    0    15.999   50.463200  -52.921599   -6.826500
  38 O     8.0000    0    15.999   45.854929  -50.907672   -8.442245
  39 O     8.0000    0    15.999   51.855595  -57.521973    2.236754
  40 O     8.0000    0    15.999   51.396586  -56.225620   -2.612452
  41 C     6.0000    0    12.011   52.211255  -58.682972    4.606957
  42 H     1.0000    0     1.008   55.174363  -46.169362   -3.718726
  43 H     1.0000    0     1.008   50.979369  -49.620783    2.193309
  44 H     1.0000    0     1.008   50.675698  -46.012970   -3.776919
  45 H     1.0000    0     1.008   49.029220  -46.675844   -0.952429
  46 H     1.0000    0     1.008   49.717797  -51.382065   -2.023721
  47 H     1.0000    0     1.008   45.745504  -48.327289   -2.693704
  48 H     1.0000    0     1.008   43.214290  -52.077523   -3.587750
  49 H     1.0000    0     1.008   45.883815  -53.736457   -4.645040
  50 H     1.0000    0     1.008   45.664895  -57.104272   -1.850218
  51 H     1.0000    0     1.008   46.345907  -51.366956    5.439751
  52 H     1.0000    0     1.008   45.705115  -49.639891    1.172001
  53 H     1.0000    0     1.008   50.823556  -49.167034   -7.235421
  54 H     1.0000    0     1.008   53.032303  -50.533993   -5.124108
  55 H     1.0000    0     1.008   46.946396  -47.358710   -7.215960
  56 H     1.0000    0     1.008   43.807045  -48.341133   -6.605623
  57 H     1.0000    0     1.008   46.593478  -57.924454    6.518186
  58 H     1.0000    0     1.008   61.436303  -50.752313   -0.033406
  59 H     1.0000    0     1.008   61.972590  -55.061766    2.125061
  60 H     1.0000    0     1.008   63.576196  -50.540432    5.313973
  61 H     1.0000    0     1.008   65.250046  -51.738004    2.643362
  62 H     1.0000    0     1.008   63.190598  -46.873261    2.677122
  63 H     1.0000    0     1.008   56.344313  -56.104691    4.389075
  64 H     1.0000    0     1.008   55.442996  -54.313323   -4.693652
  65 H     1.0000    0     1.008   59.397308  -53.271890   -2.496413
  66 H     1.0000    0     1.008   51.702227  -52.689202    5.118984
  67 H     1.0000    0     1.008   53.375996  -52.256640    8.014057
  68 H     1.0000    0     1.008   51.720452  -49.679050    6.630094
  69 H     1.0000    0     1.008   59.228385  -46.769608   -5.376461
  70 H     1.0000    0     1.008   58.941711  -43.832831   -3.732214
  71 H     1.0000    0     1.008   61.954442  -45.300623   -4.052567
  72 H     1.0000    0     1.008   44.237817  -60.930628   -0.202298
  73 H     1.0000    0     1.008   47.599272  -60.990468   -0.533182
  74 H     1.0000    0     1.008   46.087708  -62.984204    1.715788
  75 H     1.0000    0     1.008   58.958173  -52.616431    5.713783
  76 H     1.0000    0     1.008   50.724095  -54.221879   -5.558196
  77 H     1.0000    0     1.008   47.472000  -51.769982   -8.306714
  78 H     1.0000    0     1.008   50.222291  -56.876899   -1.365740
  79 H     1.0000    0     1.008   52.311106  -57.287169    6.127690
  80 H     1.0000    0     1.008   50.563299  -59.883114    4.885574
  81 H     1.0000    0     1.008   53.919797  -59.844670    4.619191

--------------------------------
INTERNAL COORDINATES (ANGSTROEM)
--------------------------------
 C      0   0   0     0.000000000000     0.00000000     0.00000000
 C      1   0   0     1.400182158287     0.00000000     0.00000000
 C      2   1   0     1.399891495158   119.84905682     0.00000000
 C      3   2   1     1.389263302182   119.57950731   358.73084440
 C      4   3   2     1.385289022349   120.51236646     0.65061603
 C      1   2   3     1.386627575172   119.62615501     1.00572802
 C      5   4   3     1.502959111644   121.22948605   181.58556654
 C      7   5   4     1.541273871812   110.74830032   104.58679270
 C      8   7   5     1.549216341083   111.92338358   157.71881942
 C      9   8   7     1.536136045810   111.22766971   218.98413553
 C     10   9   8     1.505123501577   115.24678687    55.48312996
 C     11  10   9     1.395382748138   118.74776834   213.48449361
 C     12  11  10     1.383291477068   121.14133630   182.48920599
 C     13  12  11     1.404051377632   119.68988098   358.62650225
 C     14  13  12     1.382394065213   119.22198403     1.05449366
 C     15  14  13     1.385189860046   120.49361446     0.19055552
 C      8   7   5     1.534822236726   108.31884855   285.99640700
 C      9   8   7     1.541742995284   115.14630117    94.11193279
 O      3   2   1     1.364464159020   115.73237948   178.67593542
 O      1   2   3     1.363925910334   115.56848082   180.84514726
 O      2   1   3     1.378373142400   118.67623013   176.28933292
 O     14  13  12     1.361340497342   120.68911065   180.79325541
 O     13  12  11     1.378467228775   125.64260080   178.43936837
 C     21   2   1     1.427609743755   116.60513659   115.85117027
 C     24  21   2     1.547060315833   109.48117799   278.66157264
 C     25  24  21     1.520042438052   111.66795279    70.45101085
 C     24  21   2     1.531839953774   105.36484530   158.53444675
 O     27  24  21     1.401823545138   111.09358661   294.63574223
 C     26  25  24     1.390656819713   118.60118752   226.70774514
 C     29  26  25     1.381360033946   120.72866954   177.47929611
 C     30  29  26     1.400582852522   119.61170082   359.15928201
 C     31  30  29     1.382631181461   119.58426152     3.91235013
 C     32  31  30     1.384466273658   120.25830013   356.97700755
 C     20   1   2     1.408210935525   118.08698125   175.95536220
 C     19   3   2     1.406752896956   118.77754061   181.20962946
 C     23  13  12     1.405620279955   118.25722946   359.46439113
 O     25  24  21     1.402887528729   109.01863370   306.20969866
 O     17   8   7     1.408265292687   113.95777926   174.74122319
 O     18   9   8     1.399742419486   115.10853260    81.49182067
 O     30  29  26     1.376644787340   125.35148825   178.45353922
 O     31  30  29     1.369413834379   119.89687528   182.68159716
 C     40  30  29     1.409268873261   117.68631088   346.39734462
 H      4   3   2     1.077997648892   120.39931071   179.91730683
 H      6   1   2     1.077931591803   120.63075360   179.45982568
 H      7   5   4     1.091067219888   110.58113898   342.64538404
 H      7   5   4     1.091267136138   108.50812998   224.39515024
 H      8   7   5     1.095621536004   106.99603998    40.94019364
 H      9   8   7     1.094259948460   107.34179629   337.21407084
 H     10   9   8     1.094952232251   107.83658575   176.81197222
 H     10   9   8     1.091133106439   108.91690977   292.33268203
 H     12  11  10     1.079730339240   118.49571901     0.79338149
 H     15  14  13     1.078655393856   118.36840202   179.14895855
 H     16  15  14     1.077921388323   118.65159856   178.34506439
 H     17   8   7     1.093098467700   111.02412510   294.43982541
 H     17   8   7     1.098482249354   107.63341562    52.26342032
 H     18   9   8     1.102010495751   109.11734327   315.88591337
 H     18   9   8     1.094979392429   108.59940174   199.12523896
 H     22  14  13     0.966169014687   107.65641090   355.83253929
 H     24  21   2     1.093569887172   110.40090130    41.11998249
 H     25  24  21     1.097548631613   108.51386313   190.85569466
 H     27  24  21     1.098604102202   108.57937896    56.91812747
 H     27  24  21     1.091777311841   110.17994113   176.33167836
 H     28  27  24     0.966076379077   106.91531701    44.97435634
 H     29  26  25     1.077816675222   118.35479538   357.48069607
 H     32  31  30     1.078200018273   119.00560087   175.98598897
 H     33  32  31     1.078473649801   118.88934264   179.03656236
 H     34  20   1     1.093949290109   111.79633193    61.64635358
 H     34  20   1     1.089025002250   105.71089704   180.90239345
 H     34  20   1     1.093830680094   111.33081400   299.31792444
 H     35  19   3     1.094704279559   111.56007387   297.85656357
 H     35  19   3     1.094193876849   111.49727259    60.63113130
 H     35  19   3     1.088808068923   105.38699356   179.21397878
 H     36  23  13     1.093917438034   111.49244499   301.09563032
 H     36  23  13     1.094766257236   111.50213602    63.86438764
 H     36  23  13     1.089109227180   105.73003580   182.44209549
 H     37  25  24     0.971624373301   106.06668630    51.34869121
 H     38  17   8     0.971063742063   108.16489861   299.73770698
 H     39  18   9     0.972429273684   108.55416900   310.77324621
 H     41  31  30     0.969625663303   107.58511783     3.98881812
 H     42  40  30     1.093601331823   111.52619069    74.39996870
 H     42  40  30     1.088836091840   105.53529365   193.16339715
 H     42  40  30     1.093338090856   111.15097712   311.76742298

---------------------------
INTERNAL COORDINATES (A.U.)
---------------------------
 C      0   0   0     0.000000000000     0.00000000     0.00000000
 C      1   0   0     2.645960816766     0.00000000     0.00000000
 C      2   1   0     2.645411543054   119.84905682     0.00000000
 C      3   2   1     2.625327169032   119.57950731   358.73084440
 C      4   3   2     2.617816868567   120.51236646     0.65061603
 C      1   2   3     2.620346366818   119.62615501     1.00572802
 C      5   4   3     2.840181111489   121.22948605   181.58556654
 C      7   5   4     2.912585515093   110.74830032   104.58679270
 C      8   7   5     2.927594606843   111.92338358   157.71881942
 C      9   8   7     2.902876431026   111.22766971   218.98413553
 C     10   9   8     2.844271215710   115.24678687    55.48312996
 C     11  10   9     2.636891245979   118.74776834   213.48449361
 C     12  11  10     2.614042055046   121.14133630   182.48920599
 C     13  12  11     2.653272581680   119.68988098   358.62650225
 C     14  13  12     2.612346192411   119.22198403     1.05449366
 C     15  14  13     2.617629478972   120.49361446     0.19055552
 C      8   7   5     2.900393691666   108.31884855   285.99640700
 C      9   8   7     2.913472029978   115.14630117    94.11193279
 O      3   2   1     2.578463580099   115.73237948   178.67593542
 O      1   2   3     2.577446437491   115.56848082   180.84514726
 O      2   1   3     2.604747749489   118.67623013   176.28933292
 O     14  13  12     2.572560714993   120.68911065   180.79325541
 O     13  12  11     2.604925546970   125.64260080   178.43936837
 C     21   2   1     2.697791441814   116.60513659   115.85117027
 C     24  21   2     2.923520309581   109.48117799   278.66157264
 C     25  24  21     2.872463919856   111.66795279    70.45101085
 C     24  21   2     2.894757993632   105.36484530   158.53444675
 O     27  24  21     2.649062588394   111.09358661   294.63574223
 C     26  25  24     2.627960535528   118.60118752   226.70774514
 C     29  26  25     2.610392156502   120.72866954   177.47929611
 C     30  29  26     2.646718019133   119.61170082   359.15928201
 C     31  30  29     2.612794277182   119.58426152     3.91235013
 C     32  31  30     2.616262098863   120.25830013   356.97700755
 C     20   1   2     2.661133006936   118.08698125   175.95536220
 C     19   3   2     2.658377713347   118.77754061   181.20962946
 C     23  13  12     2.656237377401   118.25722946   359.46439113
 O     25  24  21     2.651073225991   109.01863370   306.20969866
 O     17   8   7     2.661235727085   113.95777926   174.74122319
 O     18   9   8     2.645129830861   115.10853260    81.49182067
 O     30  29  26     2.601481631763   125.35148825   178.45353922
 O     31  30  29     2.587817110979   119.89687528   182.68159716
 C     40  30  29     2.663132219523   117.68631088   346.39734462
 H      4   3   2     2.037120329416   120.39931071   179.91730683
 H      6   1   2     2.036995499609   120.63075360   179.45982568
 H      7   5   4     2.061818239287   110.58113898   342.64538404
 H      7   5   4     2.062196026250   108.50812998   224.39515024
 H      8   7   5     2.070424649474   106.99603998    40.94019364
 H      9   8   7     2.067851621908   107.34179629   337.21407084
 H     10   9   8     2.069159848680   107.83658575   176.81197222
 H     10   9   8     2.061942746825   108.91690977   292.33268203
 H     12  11  10     2.040394639650   118.49571901     0.79338149
 H     15  14  13     2.038363287265   118.36840202   179.14895855
 H     16  15  14     2.036976217826   118.65159856   178.34506439
 H     17   8   7     2.065656741363   111.02412510   294.43982541
 H     17   8   7     2.075830614252   107.63341562    52.26342032
 H     18   9   8     2.082498033676   109.11734327   315.88591337
 H     18   9   8     2.069211173978   108.59940174   199.12523896
 H     22  14  13     1.825794836839   107.65641090   355.83253929
 H     24  21   2     2.066547595058   110.40090130    41.11998249
 H     25  24  21     2.074066332409   108.51386313   190.85569466
 H     27  24  21     2.076060882765   108.57937896    56.91812747
 H     27  24  21     2.063160118607   110.17994113   176.33167836
 H     28  27  24     1.825619780906   106.91531701    44.97435634
 H     29  26  25     2.036778338743   118.35479538   357.48069607
 H     32  31  30     2.037502752125   119.00560087   175.98598897
 H     33  32  31     2.038019840775   118.88934264   179.03656236
 H     34  20   1     2.067264562704   111.79633193    61.64635358
 H     34  20   1     2.057959007246   105.71089704   180.90239345
 H     34  20   1     2.067040422258   111.33081400   299.31792444
 H     35  19   3     2.068691285997   111.56007387   297.85656357
 H     35  19   3     2.067726764658   111.49727259    60.63113130
 H     35  19   3     2.057549062669   105.38699356   179.21397878
 H     36  23  13     2.067204371005   111.49244499   301.09563032
 H     36  23  13     2.068808406834   111.50213602    63.86438764
 H     36  23  13     2.058118169297   105.73003580   182.44209549
 H     37  25  24     1.836103970582   106.06668630    51.34869121
 H     38  17   8     1.835044531080   108.16489861   299.73770698
 H     39  18   9     1.837625011871   108.55416900   310.77324621
 H     41  31  30     1.832326956064   107.58511783     3.98881812
 H     42  40  30     2.066607016836   111.52619069    74.39996870
 H     42  40  30     2.057602018307   105.53529365   193.16339715
 H     42  40  30     2.066109563503   111.15097712   311.76742298

---------------------
BASIS SET INFORMATION
---------------------
There are 3 groups of distinct atoms

 Group   1 Type C   : 11s7p2d1f contracted to 4s5p2d1f pattern {7211/31111/11/1}
 Group   2 Type O   : 11s7p2d1f contracted to 4s5p2d1f pattern {7211/31111/11/1}
 Group   3 Type H   : 6s3p1d contracted to 3s2p1d pattern {411/21/1}

Atom   0C    basis set group =>   1
Atom   1C    basis set group =>   1
Atom   2C    basis set group =>   1
Atom   3C    basis set group =>   1
Atom   4C    basis set group =>   1
Atom   5C    basis set group =>   1
Atom   6C    basis set group =>   1
Atom   7C    basis set group =>   1
Atom   8C    basis set group =>   1
Atom   9C    basis set group =>   1
Atom  10C    basis set group =>   1
Atom  11C    basis set group =>   1
Atom  12C    basis set group =>   1
Atom  13C    basis set group =>   1
Atom  14C    basis set group =>   1
Atom  15C    basis set group =>   1
Atom  16C    basis set group =>   1
Atom  17C    basis set group =>   1
Atom  18O    basis set group =>   2
Atom  19O    basis set group =>   2
Atom  20O    basis set group =>   2
Atom  21O    basis set group =>   2
Atom  22O    basis set group =>   2
Atom  23C    basis set group =>   1
Atom  24C    basis set group =>   1
Atom  25C    basis set group =>   1
Atom  26C    basis set group =>   1
Atom  27O    basis set group =>   2
Atom  28C    basis set group =>   1
Atom  29C    basis set group =>   1
Atom  30C    basis set group =>   1
Atom  31C    basis set group =>   1
Atom  32C    basis set group =>   1
Atom  33C    basis set group =>   1
Atom  34C    basis set group =>   1
Atom  35C    basis set group =>   1
Atom  36O    basis set group =>   2
Atom  37O    basis set group =>   2
Atom  38O    basis set group =>   2
Atom  39O    basis set group =>   2
Atom  40O    basis set group =>   2
Atom  41C    basis set group =>   1
Atom  42H    basis set group =>   3
Atom  43H    basis set group =>   3
Atom  44H    basis set group =>   3
Atom  45H    basis set group =>   3
Atom  46H    basis set group =>   3
Atom  47H    basis set group =>   3
Atom  48H    basis set group =>   3
Atom  49H    basis set group =>   3
Atom  50H    basis set group =>   3
Atom  51H    basis set group =>   3
Atom  52H    basis set group =>   3
Atom  53H    basis set group =>   3
Atom  54H    basis set group =>   3
Atom  55H    basis set group =>   3
Atom  56H    basis set group =>   3
Atom  57H    basis set group =>   3
Atom  58H    basis set group =>   3
Atom  59H    basis set group =>   3
Atom  60H    basis set group =>   3
Atom  61H    basis set group =>   3
Atom  62H    basis set group =>   3
Atom  63H    basis set group =>   3
Atom  64H    basis set group =>   3
Atom  65H    basis set group =>   3
Atom  66H    basis set group =>   3
Atom  67H    basis set group =>   3
Atom  68H    basis set group =>   3
Atom  69H    basis set group =>   3
Atom  70H    basis set group =>   3
Atom  71H    basis set group =>   3
Atom  72H    basis set group =>   3
Atom  73H    basis set group =>   3
Atom  74H    basis set group =>   3
Atom  75H    basis set group =>   3
Atom  76H    basis set group =>   3
Atom  77H    basis set group =>   3
Atom  78H    basis set group =>   3
Atom  79H    basis set group =>   3
Atom  80H    basis set group =>   3
Atom  81H    basis set group =>   3
---------------------------------
AUXILIARY/J BASIS SET INFORMATION
---------------------------------
There are 3 groups of distinct atoms

 Group   1 Type C   : 15s13p12d5f5g contracted to 15s13p12d5f5g pattern {111111111111111/1111111111111/111111111111/11111/11111}
 Group   2 Type O   : 15s13p12d5f5g contracted to 15s13p12d5f5g pattern {111111111111111/1111111111111/111111111111/11111/11111}
 Group   3 Type H   : 12s4p3d2f contracted to 12s4p3d2f pattern {111111111111/1111/111/11}

Atom   0C    basis set group =>   1
Atom   1C    basis set group =>   1
Atom   2C    basis set group =>   1
Atom   3C    basis set group =>   1
Atom   4C    basis set group =>   1
Atom   5C    basis set group =>   1
Atom   6C    basis set group =>   1
Atom   7C    basis set group =>   1
Atom   8C    basis set group =>   1
Atom   9C    basis set group =>   1
Atom  10C    basis set group =>   1
Atom  11C    basis set group =>   1
Atom  12C    basis set group =>   1
Atom  13C    basis set group =>   1
Atom  14C    basis set group =>   1
Atom  15C    basis set group =>   1
Atom  16C    basis set group =>   1
Atom  17C    basis set group =>   1
Atom  18O    basis set group =>   2
Atom  19O    basis set group =>   2
Atom  20O    basis set group =>   2
Atom  21O    basis set group =>   2
Atom  22O    basis set group =>   2
Atom  23C    basis set group =>   1
Atom  24C    basis set group =>   1
Atom  25C    basis set group =>   1
Atom  26C    basis set group =>   1
Atom  27O    basis set group =>   2
Atom  28C    basis set group =>   1
Atom  29C    basis set group =>   1
Atom  30C    basis set group =>   1
Atom  31C    basis set group =>   1
Atom  32C    basis set group =>   1
Atom  33C    basis set group =>   1
Atom  34C    basis set group =>   1
Atom  35C    basis set group =>   1
Atom  36O    basis set group =>   2
Atom  37O    basis set group =>   2
Atom  38O    basis set group =>   2
Atom  39O    basis set group =>   2
Atom  40O    basis set group =>   2
Atom  41C    basis set group =>   1
Atom  42H    basis set group =>   3
Atom  43H    basis set group =>   3
Atom  44H    basis set group =>   3
Atom  45H    basis set group =>   3
Atom  46H    basis set group =>   3
Atom  47H    basis set group =>   3
Atom  48H    basis set group =>   3
Atom  49H    basis set group =>   3
Atom  50H    basis set group =>   3
Atom  51H    basis set group =>   3
Atom  52H    basis set group =>   3
Atom  53H    basis set group =>   3
Atom  54H    basis set group =>   3
Atom  55H    basis set group =>   3
Atom  56H    basis set group =>   3
Atom  57H    basis set group =>   3
Atom  58H    basis set group =>   3
Atom  59H    basis set group =>   3
Atom  60H    basis set group =>   3
Atom  61H    basis set group =>   3
Atom  62H    basis set group =>   3
Atom  63H    basis set group =>   3
Atom  64H    basis set group =>   3
Atom  65H    basis set group =>   3
Atom  66H    basis set group =>   3
Atom  67H    basis set group =>   3
Atom  68H    basis set group =>   3
Atom  69H    basis set group =>   3
Atom  70H    basis set group =>   3
Atom  71H    basis set group =>   3
Atom  72H    basis set group =>   3
Atom  73H    basis set group =>   3
Atom  74H    basis set group =>   3
Atom  75H    basis set group =>   3
Atom  76H    basis set group =>   3
Atom  77H    basis set group =>   3
Atom  78H    basis set group =>   3
Atom  79H    basis set group =>   3
Atom  80H    basis set group =>   3
Atom  81H    basis set group =>   3
---------------------------------
AUXILIARY/C BASIS SET INFORMATION
---------------------------------
There are 3 groups of distinct atoms

 Group   1 Type C   : 15s13p12d5f5g contracted to 15s13p12d5f5g pattern {111111111111111/1111111111111/111111111111/11111/11111}
 Group   2 Type O   : 15s13p12d5f5g contracted to 15s13p12d5f5g pattern {111111111111111/1111111111111/111111111111/11111/11111}
 Group   3 Type H   : 12s4p3d2f contracted to 12s4p3d2f pattern {111111111111/1111/111/11}

Atom   0C    basis set group =>   1
Atom   1C    basis set group =>   1
Atom   2C    basis set group =>   1
Atom   3C    basis set group =>   1
Atom   4C    basis set group =>   1
Atom   5C    basis set group =>   1
Atom   6C    basis set group =>   1
Atom   7C    basis set group =>   1
Atom   8C    basis set group =>   1
Atom   9C    basis set group =>   1
Atom  10C    basis set group =>   1
Atom  11C    basis set group =>   1
Atom  12C    basis set group =>   1
Atom  13C    basis set group =>   1
Atom  14C    basis set group =>   1
Atom  15C    basis set group =>   1
Atom  16C    basis set group =>   1
Atom  17C    basis set group =>   1
Atom  18O    basis set group =>   2
Atom  19O    basis set group =>   2
Atom  20O    basis set group =>   2
Atom  21O    basis set group =>   2
Atom  22O    basis set group =>   2
Atom  23C    basis set group =>   1
Atom  24C    basis set group =>   1
Atom  25C    basis set group =>   1
Atom  26C    basis set group =>   1
Atom  27O    basis set group =>   2
Atom  28C    basis set group =>   1
Atom  29C    basis set group =>   1
Atom  30C    basis set group =>   1
Atom  31C    basis set group =>   1
Atom  32C    basis set group =>   1
Atom  33C    basis set group =>   1
Atom  34C    basis set group =>   1
Atom  35C    basis set group =>   1
Atom  36O    basis set group =>   2
Atom  37O    basis set group =>   2
Atom  38O    basis set group =>   2
Atom  39O    basis set group =>   2
Atom  40O    basis set group =>   2
Atom  41C    basis set group =>   1
Atom  42H    basis set group =>   3
Atom  43H    basis set group =>   3
Atom  44H    basis set group =>   3
Atom  45H    basis set group =>   3
Atom  46H    basis set group =>   3
Atom  47H    basis set group =>   3
Atom  48H    basis set group =>   3
Atom  49H    basis set group =>   3
Atom  50H    basis set group =>   3
Atom  51H    basis set group =>   3
Atom  52H    basis set group =>   3
Atom  53H    basis set group =>   3
Atom  54H    basis set group =>   3
Atom  55H    basis set group =>   3
Atom  56H    basis set group =>   3
Atom  57H    basis set group =>   3
Atom  58H    basis set group =>   3
Atom  59H    basis set group =>   3
Atom  60H    basis set group =>   3
Atom  61H    basis set group =>   3
Atom  62H    basis set group =>   3
Atom  63H    basis set group =>   3
Atom  64H    basis set group =>   3
Atom  65H    basis set group =>   3
Atom  66H    basis set group =>   3
Atom  67H    basis set group =>   3
Atom  68H    basis set group =>   3
Atom  69H    basis set group =>   3
Atom  70H    basis set group =>   3
Atom  71H    basis set group =>   3
Atom  72H    basis set group =>   3
Atom  73H    basis set group =>   3
Atom  74H    basis set group =>   3
Atom  75H    basis set group =>   3
Atom  76H    basis set group =>   3
Atom  77H    basis set group =>   3
Atom  78H    basis set group =>   3
Atom  79H    basis set group =>   3
Atom  80H    basis set group =>   3
Atom  81H    basis set group =>   3
----------------------------------
AUXILIARY/JK BASIS SET INFORMATION
----------------------------------
There are 3 groups of distinct atoms

 Group   1 Type C   : 15s13p12d5f5g contracted to 15s13p12d5f5g pattern {111111111111111/1111111111111/111111111111/11111/11111}
 Group   2 Type O   : 15s13p12d5f5g contracted to 15s13p12d5f5g pattern {111111111111111/1111111111111/111111111111/11111/11111}
 Group   3 Type H   : 12s4p3d2f contracted to 12s4p3d2f pattern {111111111111/1111/111/11}

Atom   0C    basis set group =>   1
Atom   1C    basis set group =>   1
Atom   2C    basis set group =>   1
Atom   3C    basis set group =>   1
Atom   4C    basis set group =>   1
Atom   5C    basis set group =>   1
Atom   6C    basis set group =>   1
Atom   7C    basis set group =>   1
Atom   8C    basis set group =>   1
Atom   9C    basis set group =>   1
Atom  10C    basis set group =>   1
Atom  11C    basis set group =>   1
Atom  12C    basis set group =>   1
Atom  13C    basis set group =>   1
Atom  14C    basis set group =>   1
Atom  15C    basis set group =>   1
Atom  16C    basis set group =>   1
Atom  17C    basis set group =>   1
Atom  18O    basis set group =>   2
Atom  19O    basis set group =>   2
Atom  20O    basis set group =>   2
Atom  21O    basis set group =>   2
Atom  22O    basis set group =>   2
Atom  23C    basis set group =>   1
Atom  24C    basis set group =>   1
Atom  25C    basis set group =>   1
Atom  26C    basis set group =>   1
Atom  27O    basis set group =>   2
Atom  28C    basis set group =>   1
Atom  29C    basis set group =>   1
Atom  30C    basis set group =>   1
Atom  31C    basis set group =>   1
Atom  32C    basis set group =>   1
Atom  33C    basis set group =>   1
Atom  34C    basis set group =>   1
Atom  35C    basis set group =>   1
Atom  36O    basis set group =>   2
Atom  37O    basis set group =>   2
Atom  38O    basis set group =>   2
Atom  39O    basis set group =>   2
Atom  40O    basis set group =>   2
Atom  41C    basis set group =>   1
Atom  42H    basis set group =>   3
Atom  43H    basis set group =>   3
Atom  44H    basis set group =>   3
Atom  45H    basis set group =>   3
Atom  46H    basis set group =>   3
Atom  47H    basis set group =>   3
Atom  48H    basis set group =>   3
Atom  49H    basis set group =>   3
Atom  50H    basis set group =>   3
Atom  51H    basis set group =>   3
Atom  52H    basis set group =>   3
Atom  53H    basis set group =>   3
Atom  54H    basis set group =>   3
Atom  55H    basis set group =>   3
Atom  56H    basis set group =>   3
Atom  57H    basis set group =>   3
Atom  58H    basis set group =>   3
Atom  59H    basis set group =>   3
Atom  60H    basis set group =>   3
Atom  61H    basis set group =>   3
Atom  62H    basis set group =>   3
Atom  63H    basis set group =>   3
Atom  64H    basis set group =>   3
Atom  65H    basis set group =>   3
Atom  66H    basis set group =>   3
Atom  67H    basis set group =>   3
Atom  68H    basis set group =>   3
Atom  69H    basis set group =>   3
Atom  70H    basis set group =>   3
Atom  71H    basis set group =>   3
Atom  72H    basis set group =>   3
Atom  73H    basis set group =>   3
Atom  74H    basis set group =>   3
Atom  75H    basis set group =>   3
Atom  76H    basis set group =>   3
Atom  77H    basis set group =>   3
Atom  78H    basis set group =>   3
Atom  79H    basis set group =>   3
Atom  80H    basis set group =>   3
Atom  81H    basis set group =>   3
---------------------------------
AUXILIARY/X BASIS SET INFORMATION
---------------------------------
There are 3 groups of distinct atoms

 Group   1 Type C   : 15s13p12d5f5g contracted to 15s13p12d5f5g pattern {111111111111111/1111111111111/111111111111/11111/11111}
 Group   2 Type O   : 15s13p12d5f5g contracted to 15s13p12d5f5g pattern {111111111111111/1111111111111/111111111111/11111/11111}
 Group   3 Type H   : 12s4p3d2f contracted to 12s4p3d2f pattern {111111111111/1111/111/11}

Atom   0C    basis set group =>   1
Atom   1C    basis set group =>   1
Atom   2C    basis set group =>   1
Atom   3C    basis set group =>   1
Atom   4C    basis set group =>   1
Atom   5C    basis set group =>   1
Atom   6C    basis set group =>   1
Atom   7C    basis set group =>   1
Atom   8C    basis set group =>   1
Atom   9C    basis set group =>   1
Atom  10C    basis set group =>   1
Atom  11C    basis set group =>   1
Atom  12C    basis set group =>   1
Atom  13C    basis set group =>   1
Atom  14C    basis set group =>   1
Atom  15C    basis set group =>   1
Atom  16C    basis set group =>   1
Atom  17C    basis set group =>   1
Atom  18O    basis set group =>   2
Atom  19O    basis set group =>   2
Atom  20O    basis set group =>   2
Atom  21O    basis set group =>   2
Atom  22O    basis set group =>   2
Atom  23C    basis set group =>   1
Atom  24C    basis set group =>   1
Atom  25C    basis set group =>   1
Atom  26C    basis set group =>   1
Atom  27O    basis set group =>   2
Atom  28C    basis set group =>   1
Atom  29C    basis set group =>   1
Atom  30C    basis set group =>   1
Atom  31C    basis set group =>   1
Atom  32C    basis set group =>   1
Atom  33C    basis set group =>   1
Atom  34C    basis set group =>   1
Atom  35C    basis set group =>   1
Atom  36O    basis set group =>   2
Atom  37O    basis set group =>   2
Atom  38O    basis set group =>   2
Atom  39O    basis set group =>   2
Atom  40O    basis set group =>   2
Atom  41C    basis set group =>   1
Atom  42H    basis set group =>   3
Atom  43H    basis set group =>   3
Atom  44H    basis set group =>   3
Atom  45H    basis set group =>   3
Atom  46H    basis set group =>   3
Atom  47H    basis set group =>   3
Atom  48H    basis set group =>   3
Atom  49H    basis set group =>   3
Atom  50H    basis set group =>   3
Atom  51H    basis set group =>   3
Atom  52H    basis set group =>   3
Atom  53H    basis set group =>   3
Atom  54H    basis set group =>   3
Atom  55H    basis set group =>   3
Atom  56H    basis set group =>   3
Atom  57H    basis set group =>   3
Atom  58H    basis set group =>   3
Atom  59H    basis set group =>   3
Atom  60H    basis set group =>   3
Atom  61H    basis set group =>   3
Atom  62H    basis set group =>   3
Atom  63H    basis set group =>   3
Atom  64H    basis set group =>   3
Atom  65H    basis set group =>   3
Atom  66H    basis set group =>   3
Atom  67H    basis set group =>   3
Atom  68H    basis set group =>   3
Atom  69H    basis set group =>   3
Atom  70H    basis set group =>   3
Atom  71H    basis set group =>   3
Atom  72H    basis set group =>   3
Atom  73H    basis set group =>   3
Atom  74H    basis set group =>   3
Atom  75H    basis set group =>   3
Atom  76H    basis set group =>   3
Atom  77H    basis set group =>   3
Atom  78H    basis set group =>   3
Atom  79H    basis set group =>   3
Atom  80H    basis set group =>   3
Atom  81H    basis set group =>   3
--------------------------------------------------------------------------
WARNING: There is at least one non-excluded one OpenFabrics device found,
but there are no active ports detected (or Open MPI was unable to use
them).  This is most certainly not what you wanted.  Check your
cables, subnet manager configuration, etc.  The openib BTL will be
ignored for this job.

  Local host: c09b01n02
--------------------------------------------------------------------------
--------------------------------------------------------------------------
WARNING: There was an error initializing an OpenFabrics device.

  Local host:   c09b01n02
  Local device: mlx5_0
--------------------------------------------------------------------------
[c09b01n02:2402182] 9 more processes have sent help message help-mpi-btl-openib.txt / no active ports found
[c09b01n02:2402182] Set MCA parameter "orte_base_help_aggregate" to 0 to see all help / error messages
[c09b01n02:2402182] 49 more processes have sent help message help-mpi-btl-openib.txt / error in device init


           ************************************************************
           *        Program running with 60 parallel MPI-processes    *
           *              working on a common directory               *
           ************************************************************
------------------------------------------------------------------------------
                             ORCA STARTUP CALCULATIONS
                           -- RI-GTO INTEGRALS CHOSEN --
------------------------------------------------------------------------------
------------------------------------------------------------------------------
                   ___                                                        
                  /   \      - P O W E R E D   B Y -                         
                 /     \                                                     
                 |  |  |   _    _      __       _____    __    __             
                 |  |  |  | |  | |    /  \     |  _  \  |  |  /  |          
                  \  \/   | |  | |   /    \    | | | |  |  | /  /          
                 / \  \   | |__| |  /  /\  \   | |_| |  |  |/  /          
                |  |  |   |  __  | /  /__\  \  |    /   |      \           
                |  |  |   | |  | | |   __   |  |    \   |  |\   \          
                \     /   | |  | | |  |  |  |  | |\  \  |  | \   \       
                 \___/    |_|  |_| |__|  |__|  |_| \__\ |__|  \__/        
                                                                              
                      - O R C A' S   B I G   F R I E N D -                    
                                      &                                       
                       - I N T E G R A L  F E E D E R -                       
                                                                              
 v1 FN, 2020, v2 2021, v3 2022-2024                                           
------------------------------------------------------------------------------


----------------------
SHARK INTEGRAL PACKAGE
----------------------

Number of atoms                             ...     82
Number of basis functions                   ...   2072
Number of shells                            ...    744
Maximum angular momentum                    ...      3
Integral batch strategy                     ... SHARK/LIBINT Hybrid
RI-J (if used) integral strategy            ... SPLIT-RIJ (Revised 2003 algorithm where possible)
Printlevel                                  ...      1
Contraction scheme used                     ... SEGMENTED contraction
Prescreening option                         ... SCHWARTZ
   Thresh                                   ... 1.000e-10
   Tcut                                     ... 1.000e-11
   Tpresel                                  ... 1.000e-11 
Coulomb Range Separation                    ... NOT USED
Exchange Range Separation                   ... NOT USED
Multipole approximations                    ... NOT USED
Finite Nucleus Model                        ... NOT USED
CABS basis                                  ... NOT available
Auxiliary Coulomb fitting basis             ... AVAILABLE
   # of basis functions in Aux-J            ...  10268
   # of shells in Aux-J                     ...   2940
   Maximum angular momentum in Aux-J        ...      4
Auxiliary J/K fitting basis                 ... AVAILABLE
   # of basis functions in Aux-JK           ...  10268
   # of shells in Aux-JK                    ...   2940
   Maximum angular momentum in Aux-JK       ...      4
Auxiliary Correlation fitting basis         ... AVAILABLE
   # of basis functions in Aux-C            ...  10268
   # of shells in Aux-C                     ...   2940
   Maximum angular momentum in Aux-C        ...      4
Auxiliary 'external' fitting basis          ... NOT available

Checking pre-screening integrals            ... done (  0.0 sec) Dimension = 744
   => SHARK Basis and OBASIS are compatible. Storing Pre-screening
Shell pair information
Shell pair cut-off parameter TPreSel        ...   1.0e-11
Total number of shell pairs                 ...    277140
Shell pairs after pre-screening             ...    153204
Total number of primitive shell pairs       ...    823733
Primitive shell pairs kept                  ...    281196
          la=0 lb=0:  29027 shell pairs
          la=1 lb=0:  50822 shell pairs
          la=1 lb=1:  20793 shell pairs
          la=2 lb=0:  20061 shell pairs
          la=2 lb=1:  15342 shell pairs
          la=2 lb=2:   2756 shell pairs
          la=3 lb=0:   6919 shell pairs
          la=3 lb=1:   5245 shell pairs
          la=3 lb=2:   1883 shell pairs
          la=3 lb=3:    356 shell pairs

Checking whether 4 symmetric matrices of dimension 2072 fit in memory
:Max Core in MB      =   5000.00
 MB in use           =    189.22
 MB left             =   4810.78
 MB needed           =     65.54
 Data fit in memory  = YES
Calculating RI/J V-Matrix + Cholesky decomp.... done (  9.5 sec)
Calculating RI/JK V-Matrix + Cholesky decomp.... done (  7.1 sec)
Calculating RI/C V-Matrix + Cholesky decomp.... done (  5.5 sec)
Calculating Nuclear repulsion               ... done (  0.0 sec) ENN=   5795.457744590875 Eh

Diagonalization of the overlap matrix:
Smallest eigenvalue                        ... 6.998e-06
Time for diagonalization                   ...    1.576 sec
Threshold for overlap eigenvalues          ... 1.000e-07
Number of eigenvalues below threshold      ... 0
Time for construction of square roots      ...    0.354 sec
Total time needed                          ...    1.970 sec

-------------------
DFT GRID GENERATION
-------------------

General Integration Accuracy     IntAcc      ... 4.388
Radial Grid Type                 RadialGrid  ... OptM3 with GC (2021)
Angular Grid (max. ang.)         AngularGrid ... 4 (Lebedev-302)
Angular grid pruning method      GridPruning ... 4 (adaptive)
Weight generation scheme         WeightScheme... mBecke (2022)
Basis function cutoff            BFCut       ... 1.0000e-10
Integration weight cutoff        WCut        ... 1.0000e-14
Partially contracted basis set               ... off
Rotationally invariant grid construction     ... off
Angular grids for H and He will be reduced by one unit
Diffuse basis detected: some atoms will have their outermost
                        angular grid increased by 1.

Total number of grid points                  ...   376111
Total number of batches                      ...     5913
Average number of points per batch           ...       63
Average number of grid points per atom       ...     4587
Grids setup in   6.8 sec
Initializing property integral containers    ... done (  0.2 sec)

SHARK setup successfully completed in  46.0 seconds

Maximum memory used throughout the entire STARTUP-calculation: 261.3 MB
--------------------------------------------------------------------------
WARNING: There was an error initializing an OpenFabrics device.

  Local host:   c09b01n02
  Local device: mlx5_0
--------------------------------------------------------------------------
--------------------------------------------------------------------------
WARNING: There is at least one non-excluded one OpenFabrics device found,
but there are no active ports detected (or Open MPI was unable to use
them).  This is most certainly not what you wanted.  Check your
cables, subnet manager configuration, etc.  The openib BTL will be
ignored for this job.

  Local host: c09b01n02
--------------------------------------------------------------------------


           ************************************************************
           *        Program running with 60 parallel MPI-processes    *
           *              working on a common directory               *
           ************************************************************
-------------------------------------------------------------------------------
                                 ORCA GUESS
                   Start orbitals & Density for SCF / CASSCF
-------------------------------------------------------------------------------

------------
SCF SETTINGS
------------
Hamiltonian:
 Density Functional     Method          .... DFT(GTOs)
 Exchange Functional    Exchange        .... TPSS
 Correlation Functional Correlation     .... TPSS
 LDA part of GGA corr.  LDAOpt          .... PW91-LDA
 Gradients option       PostSCFGGA      .... off
   NL short-range parameter             ....  5.000000
 RI-approximation to the Coulomb term is turned on
   Number of AuxJ basis functions       .... 10268


General Settings:
 Integral files         IntName         .... nmr-conf-6
 Hartree-Fock type      HFTyp           .... RHF
 Total Charge           Charge          ....    0
 Multiplicity           Mult            ....    1
 Number of Electrons    NEL             ....  314
 Basis Dimension        Dim             .... 2072
 Nuclear Repulsion      ENuc            ....   5795.4577445909 Eh

Convergence Acceleration:
 AO-DIIS                CNVDIIS         .... on
   Start iteration      DIISMaxIt       ....    12
   Startup error        DIISStart       ....  0.200000
   # of expansion vecs  DIISMaxEq       ....     5
   Bias factor          DIISBfac        ....   1.050
   Max. coefficient     DIISMaxC        ....  10.000
 MO-DIIS                CNVKDIIS        .... off
 Trust-Rad. Augm. Hess. CNVTRAH         .... auto
   Auto Start mean grad. ratio tolernc. ....  1.125000
   Auto Start start iteration           ....    50
   Auto Start num. interpolation iter.  ....    10
   Max. Number of Micro iterations      ....    24
   Max. Number of Macro iterations      .... Maxiter - #DIIS iter
   Number of Davidson start vectors     ....     2
   Converg. threshold    (grad. norm)   ....   5.000e-05
   Grad. Scal. Fac. for Micro threshold ....   0.100
   Minimum threshold for Micro iter.    ....   1.000e-02
   NR start threshold (gradient norm)   ....   1.000e-04
   Initial trust radius                 ....   0.400
   Minimum AH scaling param. (alpha)    ....   1.000
   Maximum AH scaling param. (alpha)    .... 1000.000
   Quad. conv. algorithm                .... NR
   White noise on init. David. guess    .... on
   Maximum white noise                  ....   0.010
   Pseudo random numbers                .... off
   Inactive MOs                         .... canonical
   Orbital update algorithm             .... Taylor
   Preconditioner                       .... Diag
   Full preconditioner red. dimension   ....   250
 SOSCF                 CNVSOSCF           .... on
   Start iteration     SOSCFMaxIt         ....   150
   Startup grad/error  SOSCFStart         ....  0.003300
   Hessian update      SOSCFHessUp        .... L-BFGS
   Autom. constraints  SOSCFAutoConstrain .... off
 Level Shifting         CNVShift        .... on
   Level shift para.    LevelShift      ....    0.2500
   Turn off err/grad.   ShiftErr        ....    0.0010
 Zerner damping         CNVZerner       .... off
 Static damping         CNVDamp         .... on
   Fraction old density DampFac         ....    0.7000
   Max. Damping (<1)    DampMax         ....    0.9800
   Min. Damping (>=0)   DampMin         ....    0.0000
   Turn off err/grad.   DampErr         ....    0.1000

SCF Procedure:
 Maximum # iterations   MaxIter         ....   125
 SCF integral mode      SCFMode         .... Direct
   Integral package                     .... SHARK and LIBINT hybrid scheme
 Reset frequency        DirectResetFreq ....    20
 Integral Threshold     Thresh          ....  1.000e-10 Eh
 Primitive CutOff       TCut            ....  1.000e-11 Eh

Convergence Tolerance:
 Convergence Check Mode ConvCheckMode   .... Total+1el-Energy
 Convergence forced     ConvForced      .... 0
 Energy Change          TolE            ....  1.000e-06 Eh
 1-El. energy change                    ....  1.000e-03 Eh
 Orbital Gradient       TolG            ....  5.000e-05
 Orbital Rotation angle TolX            ....  5.000e-05
 DIIS Error             TolErr          ....  1.000e-06

------------------------------
INITIAL GUESS: MODEL POTENTIAL
------------------------------
Loading Hartree-Fock densities                     ... done
Calculating cut-offs                               ... done
Initializing the effective Hamiltonian             ... done
Setting up the integral package (SHARK)            ... done
Starting the Coulomb interaction                   ... done (   0.8 sec)
Making the grid                                    ... done (   0.6 sec)
Mapping shells                                     ... done
Starting the XC term evaluation                    ... done (   0.2 sec)
  promolecular density results
     # of electrons  =    313.977146272
     EX              =   -260.374960916
     EC              =    -10.669934820
     EX+EC           =   -271.044895735
Transforming the Hamiltonian                       ... done (   0.3 sec)
Diagonalizing the Hamiltonian                      ... [c09b01n02:2402600] 48 more processes have sent help message help-mpi-btl-openib.txt / error in device init
[c09b01n02:2402600] Set MCA parameter "orte_base_help_aggregate" to 0 to see all help / error messages
[c09b01n02:2402600] 10 more processes have sent help message help-mpi-btl-openib.txt / no active ports found
done (   0.6 sec)
Back transforming the eigenvectors                 ... done (   0.2 sec)
Now organizing SCF variables                       ... done
                      ------------------
                      INITIAL GUESS DONE (   4.0 sec)
                      ------------------
             **** ENERGY FILE WAS UPDATED (nmr-conf-6.en.tmp) ****
Finished Guess after   8.6 sec
Maximum memory used throughout the entire GUESS-calculation: 292.9 MB
--------------------------------------------------------------------------
WARNING: There is at least one non-excluded one OpenFabrics device found,
but there are no active ports detected (or Open MPI was unable to use
them).  This is most certainly not what you wanted.  Check your
cables, subnet manager configuration, etc.  The openib BTL will be
ignored for this job.

  Local host: c09b01n02
--------------------------------------------------------------------------
--------------------------------------------------------------------------
WARNING: There was an error initializing an OpenFabrics device.

  Local host:   c09b01n02
  Local device: mlx5_0
--------------------------------------------------------------------------


           ************************************************************
           *        Program running with 60 parallel MPI-processes    *
           *              working on a common directory               *
           ************************************************************

-------------------------------------------------------------------------------------------
                                      ORCA LEAN-SCF
                              memory conserving SCF solver
-------------------------------------------------------------------------------------------

--------------------
CPCM SOLVATION MODEL
--------------------
CPCM parameters:
  Epsilon                                         ...      33.4280
  Refrac                                          ...       1.3288
  Rsolv                                           ...       1.3000
  Surface type                                    ... GAUSSIAN VDW
  Discretization scheme                           ... Constant charge density
    Threshold for H atoms                         ...       5.0000 (charges/Ang^2)
    Threshold for non-H atoms                     ...       5.0000 (charges/Ang^2)
  Epsilon function type                           ...         CPCM
Solvent:                                          ... METHANOL
Radii:
  Scheme                                          ... Element-dependent radii
  Radius for C  used is    3.8550 Bohr (=   2.0400 Ang.)
  Radius for O  used is    3.4469 Bohr (=   1.8240 Ang.)
  Radius for H  used is    2.4944 Bohr (=   1.3200 Ang.)
Calculating surface                               ...        done! (  0.0s)
Cavity surface points                             ...         6006
Cavity Volume                                     ...    4505.2312
Cavity Surface-area                               ...    1936.0570
Calculating surface distance matrix               ...        done! (  0.2s)
Performing Cholesky decomposition & store         ...        done! (  0.7s)
Overall time for CPCM initialization              ...                 0.9s

[c09b01n02:2403108] 11 more processes have sent help message help-mpi-btl-openib.txt / no active ports found
[c09b01n02:2403108] Set MCA parameter "orte_base_help_aggregate" to 0 to see all help / error messages
[c09b01n02:2403108] 47 more processes have sent help message help-mpi-btl-openib.txt / error in device init
----------------------------------------D-I-I-S--------------------------------------------
Iteration    Energy (Eh)           Delta-E    RMSDP     MaxDP     DIISErr   Damp  Time(sec)
-------------------------------------------------------------------------------------------
               ***  Starting incremental Fock matrix formation  ***
    1    -2032.9995822148021034     0.00e+00  7.83e-03  2.41e-01  2.42e-01  0.700  14.9
    2    -2033.4099181387264252    -4.10e-01  6.38e-03  1.94e-01  8.60e-02  0.700  11.2
                               ***Turning on AO-DIIS***
    3    -2033.5635994705098710    -1.54e-01  2.79e-03  7.81e-02  2.56e-02  0.700   8.9
    4    -2033.6562285794125273    -9.26e-02  4.85e-03  9.13e-02  1.23e-02  0.000   7.7
    5    -2033.8612849214605376    -2.05e-01  1.24e-03  3.26e-02  4.86e-03  0.000   7.0
                              *** Initializing SOSCF ***
---------------------------------------S-O-S-C-F--------------------------------------
Iteration    Energy (Eh)           Delta-E    RMSDP     MaxDP     MaxGrad    Time(sec)
--------------------------------------------------------------------------------------
    6    -2033.8626576182059580    -1.37e-03  3.96e-04  8.69e-03  1.37e-03     8.8
               *** Restarting incremental Fock matrix formation ***
    7    -2033.8627670094710993    -1.09e-04  3.03e-04  6.05e-03  1.32e-04     7.0
    8    -2033.8627421289465929     2.49e-05  7.56e-05  1.81e-03  6.32e-04     6.2
    9    -2033.8627825922803822    -4.05e-05  6.42e-05  8.94e-04  1.25e-04     5.9
   10    -2033.8627829188772012    -3.27e-07  2.10e-05  4.23e-04  1.30e-04     6.7
                 **** Energy Check signals convergence ****

               *****************************************************
               *                     SUCCESS                       *
               *           SCF CONVERGED AFTER  10 CYCLES          *
               *****************************************************

             **** ENERGY FILE WAS UPDATED (nmr-conf-6.en.tmp) ****

----------------
TOTAL SCF ENERGY
----------------

Total Energy       :      -2033.86278397732713 Eh          -55344.22000 eV

Components:
Nuclear Repulsion  :       5795.45774459087534 Eh          157702.42267 eV
Electronic Energy  :      -7829.28172588411508 Eh         -213045.58679 eV
One Electron Energy:     -14317.64062443397233 Eh         -389602.80841 eV
Two Electron Energy:       6488.35889854985726 Eh          176557.22163 eV
CPCM Dielectric    :         -0.03880268408703 Eh              -1.05587 eV

Virial components:
Potential Energy   :      -4061.58758191782363 Eh         -110521.41690 eV
Kinetic Energy     :       2027.72479794049673 Eh           55177.19691 eV
Virial Ratio       :          2.00302703110553

DFT components:
N(Alpha)           :      156.999768084753 electrons
N(Beta)            :      156.999768084753 electrons
N(Total)           :      313.999536169506 electrons
E(X)               :     -268.194715356807 Eh       
E(C)               :      -10.624286657721 Eh       
E(XC)              :     -278.819002014528 Eh       

CPCM Solvation Model Properties:
Surface-charge          :         -0.04344365546197
Corrected charge        :         -0.00000000000000
Outlying charge corr.   :          0.00008216155488 Eh               0.00224 eV
Free-energy (cav+disp)  :  This term is not implemented in the current solvation scheme

---------------
SCF CONVERGENCE
---------------

  Last Energy change         ...    3.2660e-07  Tolerance :   1.0000e-06
  Last MAX-Density change    ...    4.2269e-04  Tolerance :   1.0000e-05
  Last RMS-Density change    ...    2.1015e-05  Tolerance :   1.0000e-06
  Last DIIS Error            ...    1.3719e-03  Tolerance :   1.0000e-06
  Last Orbital Gradient      ...    1.3019e-04  Tolerance :   5.0000e-05
  Last Orbital Rotation      ...    2.6540e-04  Tolerance :   5.0000e-05


----------------
ORBITAL ENERGIES
----------------

  NO   OCC          E(Eh)            E(eV) 
   0   2.0000     -18.918661      -514.8029 
   1   2.0000     -18.918514      -514.7989 
   2   2.0000     -18.915165      -514.7078 
   3   2.0000     -18.914321      -514.6848 
   4   2.0000     -18.913142      -514.6527 
   5   2.0000     -18.910680      -514.5858 
   6   2.0000     -18.908100      -514.5156 
   7   2.0000     -18.881591      -513.7942 
   8   2.0000     -18.879612      -513.7404 
   9   2.0000     -18.879235      -513.7301 
  10   2.0000     -18.865632      -513.3599 
  11   2.0000     -10.045600      -273.3547 
  12   2.0000     -10.044903      -273.3357 
  13   2.0000     -10.044842      -273.3341 
  14   2.0000     -10.044229      -273.3174 
  15   2.0000     -10.042966      -273.2830 
  16   2.0000     -10.041926      -273.2547 
  17   2.0000     -10.041726      -273.2492 
  18   2.0000     -10.040245      -273.2090 
  19   2.0000     -10.035289      -273.0741 
  20   2.0000     -10.034804      -273.0609 
  21   2.0000     -10.033088      -273.0142 
  22   2.0000     -10.032100      -272.9873 
  23   2.0000     -10.031756      -272.9780 
  24   2.0000     -10.029210      -272.9087 
  25   2.0000     -10.025137      -272.7978 
  26   2.0000     -10.021562      -272.7006 
  27   2.0000      -9.989882      -271.8385 
  28   2.0000      -9.986863      -271.7564 
  29   2.0000      -9.986181      -271.7378 
  30   2.0000      -9.983962      -271.6774 
  31   2.0000      -9.983598      -271.6675 
  32   2.0000      -9.983058      -271.6528 
  33   2.0000      -9.982705      -271.6432 
  34   2.0000      -9.982585      -271.6399 
  35   2.0000      -9.982400      -271.6349 
  36   2.0000      -9.981079      -271.5990 
  37   2.0000      -9.980779      -271.5908 
  38   2.0000      -9.978637      -271.5325 
  39   2.0000      -9.977503      -271.5016 
  40   2.0000      -9.976647      -271.4784 
  41   2.0000      -9.975124      -271.4369 
  42   2.0000      -1.015235       -27.6259 
  43   2.0000      -1.014070       -27.5943 
  44   2.0000      -1.011867       -27.5343 
  45   2.0000      -1.002663       -27.2838 
  46   2.0000      -0.990364       -26.9492 
  47   2.0000      -0.988842       -26.9078 
  48   2.0000      -0.986746       -26.8507 
  49   2.0000      -0.963860       -26.2280 
  50   2.0000      -0.961965       -26.1764 
  51   2.0000      -0.956979       -26.0407 
  52   2.0000      -0.945576       -25.7304 
  53   2.0000      -0.800696       -21.7881 
  54   2.0000      -0.798392       -21.7253 
  55   2.0000      -0.796726       -21.6800 
  56   2.0000      -0.758928       -20.6515 
  57   2.0000      -0.732030       -19.9196 
  58   2.0000      -0.718666       -19.5559 
  59   2.0000      -0.703038       -19.1306 
  60   2.0000      -0.701949       -19.1010 
  61   2.0000      -0.699511       -19.0347 
  62   2.0000      -0.697840       -18.9892 
  63   2.0000      -0.687094       -18.6968 
  64   2.0000      -0.670437       -18.2435 
  65   2.0000      -0.651446       -17.7267 
  66   2.0000      -0.647649       -17.6234 
  67   2.0000      -0.645986       -17.5782 
  68   2.0000      -0.638425       -17.3724 
  69   2.0000      -0.618547       -16.8315 
  70   2.0000      -0.617895       -16.8138 
  71   2.0000      -0.615274       -16.7424 
  72   2.0000      -0.582753       -15.8575 
  73   2.0000      -0.568023       -15.4567 
  74   2.0000      -0.561107       -15.2685 
  75   2.0000      -0.558438       -15.1959 
  76   2.0000      -0.548416       -14.9231 
  77   2.0000      -0.544684       -14.8216 
  78   2.0000      -0.542526       -14.7629 
  79   2.0000      -0.532244       -14.4831 
  80   2.0000      -0.520545       -14.1648 
  81   2.0000      -0.512415       -13.9435 
  82   2.0000      -0.508863       -13.8469 
  83   2.0000      -0.496639       -13.5142 
  84   2.0000      -0.484236       -13.1767 
  85   2.0000      -0.479444       -13.0463 
  86   2.0000      -0.476897       -12.9770 
  87   2.0000      -0.472982       -12.8705 
  88   2.0000      -0.462619       -12.5885 
  89   2.0000      -0.458735       -12.4828 
  90   2.0000      -0.451359       -12.2821 
  91   2.0000      -0.450061       -12.2468 
  92   2.0000      -0.447486       -12.1767 
  93   2.0000      -0.444664       -12.0999 
  94   2.0000      -0.443515       -12.0686 
  95   2.0000      -0.434562       -11.8250 
  96   2.0000      -0.430283       -11.7086 
  97   2.0000      -0.427121       -11.6226 
  98   2.0000      -0.425963       -11.5910 
  99   2.0000      -0.423006       -11.5106 
 100   2.0000      -0.418429       -11.3860 
 101   2.0000      -0.416164       -11.3244 
 102   2.0000      -0.411045       -11.1851 
 103   2.0000      -0.403716       -10.9857 
 104   2.0000      -0.402504       -10.9527 
 105   2.0000      -0.400650       -10.9022 
 106   2.0000      -0.396977       -10.8023 
 107   2.0000      -0.392319       -10.6755 
 108   2.0000      -0.390015       -10.6128 
 109   2.0000      -0.387219       -10.5368 
 110   2.0000      -0.383436       -10.4338 
 111   2.0000      -0.382390       -10.4053 
 112   2.0000      -0.379547       -10.3280 
 113   2.0000      -0.376730       -10.2513 
 114   2.0000      -0.376214       -10.2373 
 115   2.0000      -0.373095       -10.1524 
 116   2.0000      -0.369385       -10.0515 
 117   2.0000      -0.368381       -10.0242 
[...]
  X           0.7536770    0.0190593    0.6569686
  Y          -0.4999406    0.6655012    0.5542270
  Z          -0.4266502   -0.7461534    0.5111015

 --------------
 Nucleus  73H :
 --------------

Diamagnetic contribution to the shielding tensor (ppm) : 
          -117.782          1.398        18.046
          -140.005         46.095        26.041
          -100.761         78.014       -46.346

Paramagnetic contribution to the shielding tensor (ppm): 
           144.040         -1.631       -20.057
           140.591        -17.929       -22.649
            98.611        -75.985        75.047

Total shielding tensor (ppm): 
            26.258         -0.233        -2.011
             0.586         28.166         3.392
            -2.150          2.029        28.700


 Diagonalized sT*s matrix:
 
 sDSO           -76.709         -106.869           65.544  iso=     -39.345
 sPSO           101.013          134.120          -33.976  iso=      67.052
        ---------------  ---------------  ---------------
 Total           24.304           27.252           31.568  iso=      27.708

 Orientation: 
  X          -0.6667554    0.6935096   -0.2729131
  Y           0.4586212    0.6704472    0.5832385
  Z          -0.5874553   -0.2637137    0.7650825

 --------------
 Nucleus  74H :
 --------------

Diamagnetic contribution to the shielding tensor (ppm) : 
          -134.840         42.915        19.987
          -136.488         84.323        14.910
             1.069          1.470       -35.630

Paramagnetic contribution to the shielding tensor (ppm): 
           157.923        -41.182       -19.720
           138.148        -50.912       -15.593
            -0.427          0.347        61.003

Total shielding tensor (ppm): 
            23.082          1.732         0.267
             1.659         33.411        -0.683
             0.642          1.817        25.373


 Diagonalized sT*s matrix:
 
 sDSO          -116.626          -34.237           64.716  iso=     -28.716
 sPSO           139.387           59.616          -30.990  iso=      56.004
        ---------------  ---------------  ---------------
 Total           22.761           25.379           33.726  iso=      27.289

 Orientation: 
  X           0.9790094    0.1266922    0.1596548
  Y          -0.1510554   -0.0748662    0.9856862
  Z          -0.1368315    0.9891128    0.0541572

 --------------
 Nucleus  75H :
 --------------

Diamagnetic contribution to the shielding tensor (ppm) : 
           112.422        -78.484         8.573
            63.113        -22.140        11.859
           -17.184       -116.148       -29.424

Paramagnetic contribution to the shielding tensor (ppm): 
           -82.572         70.517       -13.162
           -69.950         51.795       -10.052
            13.273        117.723        54.617

Total shielding tensor (ppm): 
            29.849         -7.967        -4.589
            -6.838         29.655         1.807
            -3.911          1.575        25.193


 Diagonalized sT*s matrix:
 
 sDSO             5.855           25.511           29.491  iso=      20.286
 sPSO            15.380           -0.555            9.015  iso=       7.947
        ---------------  ---------------  ---------------
 Total           21.235           24.956           38.506  iso=      28.232

 Orientation: 
  X           0.6961374    0.1872616   -0.6930554
  Y           0.4918710    0.5787803    0.6504432
  Z           0.5229298   -0.7936917    0.3108021

 --------------
 Nucleus  76H :
 --------------

Diamagnetic contribution to the shielding tensor (ppm) : 
           -65.563         51.805        52.480
           -92.608        101.989        40.739
          -168.741        114.553        -4.279

Paramagnetic contribution to the shielding tensor (ppm): 
            84.039        -54.606       -49.681
            89.727        -69.397       -52.978
           172.522       -124.525        35.746

Total shielding tensor (ppm): 
            18.475         -2.801         2.799
            -2.882         32.592       -12.239
             3.781         -9.972        31.466


 Diagonalized sT*s matrix:
 
 sDSO           -39.228          109.710          -38.336  iso=      10.716
 sPSO            56.913          -88.740           82.215  iso=      16.796
        ---------------  ---------------  ---------------
 Total           17.685           20.970           43.879  iso=      27.511

 Orientation: 
  X           0.9751193    0.1382036    0.1733268
  Y           0.0233204    0.7135846   -0.7001808
  Z          -0.2204509    0.6868018    0.6926071

 --------------
 Nucleus  77H :
 --------------

Diamagnetic contribution to the shielding tensor (ppm) : 
            -0.550         65.922        41.472
           -51.480        104.602        46.030
          -119.287         94.855         2.064

Paramagnetic contribution to the shielding tensor (ppm): 
            37.147        -76.994       -36.782
            40.621        -81.926       -44.366
           124.217        -93.293        21.510

Total shielding tensor (ppm): 
            36.597        -11.072         4.689
           -10.859         22.676         1.665
             4.929          1.562        23.574


 Diagonalized sT*s matrix:
 
 sDSO            38.394           75.326           -7.605  iso=      35.372
 sPSO           -23.444          -50.671           50.846  iso=      -7.756
        ---------------  ---------------  ---------------
 Total           14.950           24.654           43.242  iso=      27.616

 Orientation: 
  X           0.4834170    0.0531737   -0.8737737
  Y           0.7711765    0.4464640    0.4538246
  Z          -0.4142400    0.8932203   -0.1748220

 --------------
 Nucleus  78H :
 --------------

Diamagnetic contribution to the shielding tensor (ppm) : 
           -45.870         52.310        49.818
           -90.359         93.761        47.597
          -105.070         66.593        -9.811

Paramagnetic contribution to the shielding tensor (ppm): 
            77.714        -49.520       -57.143
            95.075        -76.065       -54.380
           101.608        -71.149        38.082

Total shielding tensor (ppm): 
            31.844          2.790        -7.324
             4.715         17.696        -6.783
            -3.462         -4.557        28.271


 Diagonalized sT*s matrix:
 
 sDSO           121.179          -59.851          -23.248  iso=      12.693
 sPSO          -106.039           84.760           61.010  iso=      13.244
        ---------------  ---------------  ---------------
 Total           15.141           24.909           37.761  iso=      25.937

 Orientation: 
  X           0.0630876    0.6860823   -0.7247834
  Y          -0.9371262   -0.2090455   -0.2794537
  Z          -0.3432410    0.6968436    0.6297576

 --------------
 Nucleus  79H :
 --------------

Diamagnetic contribution to the shielding tensor (ppm) : 
           -36.246          1.577        26.479
           -60.543         40.606        24.343
           136.177       -172.258       -67.781

Paramagnetic contribution to the shielding tensor (ppm): 
            62.949         -1.043       -25.240
            61.246        -15.302       -25.263
          -135.115        173.270        98.829

Total shielding tensor (ppm): 
            26.703          0.534         1.239
             0.702         25.304        -0.919
             1.062          1.012        31.049


 Diagonalized sT*s matrix:
 
 sDSO            39.506          -67.766          -35.160  iso=     -21.140
 sPSO           -14.458           94.435           66.499  iso=      48.825
        ---------------  ---------------  ---------------
 Total           25.047           26.669           31.339  iso=      27.685

 Orientation: 
  X           0.3900864    0.8883903    0.2420645
  Y          -0.9193383    0.3904732    0.0484530
  Z          -0.0514746   -0.2414400    0.9690496

 --------------
 Nucleus  80H :
 --------------

Diamagnetic contribution to the shielding tensor (ppm) : 
          -105.682         32.598        15.271
          -127.557         66.977         6.503
            60.113        -81.155       -96.318

Paramagnetic contribution to the shielding tensor (ppm): 
           133.933        -32.479       -13.197
           130.780        -40.017       -10.432
           -60.536         77.027       122.820

Total shielding tensor (ppm): 
            28.251          0.119         2.074
             3.222         26.960        -3.929
            -0.423         -4.128        26.502


 Diagonalized sT*s matrix:
 
 sDSO           -52.128          -71.760          -11.134  iso=     -45.007
 sPSO            74.317          100.342           42.077  iso=      72.245
        ---------------  ---------------  ---------------
 Total           22.189           28.581           30.943  iso=      27.238

 Orientation: 
  X          -0.2728102   -0.9140017   -0.3002924
  Y           0.6811430    0.0369326   -0.7312183
  Z           0.6794253   -0.4040259    0.6124903

 --------------
 Nucleus  81H :
 --------------

Diamagnetic contribution to the shielding tensor (ppm) : 
          -122.272        -63.399        17.488
          -159.830        -10.372         1.664
            59.264       -130.760      -216.111

Paramagnetic contribution to the shielding tensor (ppm): 
           149.954         60.720       -15.402
           157.754         40.900        -6.442
           -55.781        127.545       242.148

Total shielding tensor (ppm): 
            27.681         -2.679         2.086
            -2.076         30.527        -4.778
             3.483         -3.216        26.037


 Diagonalized sT*s matrix:
 
 sDSO          -212.536         -191.571           55.351  iso=    -116.252
 sPSO           235.782          217.948          -20.729  iso=     144.334
        ---------------  ---------------  ---------------
 Total           23.247           26.377           34.622  iso=      28.082

 Orientation: 
  X          -0.3353102    0.8257737    0.4535029
  Y           0.3757048    0.5586437   -0.7394343
  Z           0.8639519    0.0775566    0.4975661



--------------------------------
CHEMICAL SHIELDING SUMMARY (ppm)
--------------------------------


  Nucleus  Element    Isotropic     Anisotropy
  -------  -------  ------------   ------------
      0       C           26.279        123.080 
      1       C           42.784         94.489 
      2       C           27.288        116.923 
      3       C           77.307        125.578 
      4       C           39.763        194.311 
      5       C           77.490        135.314 
      6       C          136.994         37.311 
      7       C          132.403         19.384 
      8       C          132.367         21.994 
      9       C          139.198         23.182 
     10       C           45.124        184.213 
     11       C           69.448        138.457 
     12       C           28.509        119.990 
     13       C           32.056        122.702 
     14       C           66.463        146.475 
     15       C           60.414        168.763 
     16       C          113.679         67.597 
     17       C          113.845         57.983 
     23       C           92.372         25.834 
     24       C          104.557         33.452 
     25       C           43.842        167.946 
     26       C          110.959         52.586 
     28       C           72.550        166.174 
     29       C           31.363        112.425 
     30       C           34.205        117.351 
     31       C           69.658        144.551 
     32       C           63.570        169.613 
     33       C          125.506         72.567 
     34       C          125.691         76.650 
     35       C          125.756         75.870 
     41       C          123.725         73.514 
     42       H           25.595          9.795 
     43       H           26.158          7.702 
     44       H           29.594          6.275 
     45       H           29.241          4.347 
     46       H           29.992          5.718 
     47       H           29.268          4.414 
     48       H           28.665          8.430 
     49       H           28.474          4.375 
     50       H           24.786          8.718 
     51       H           24.672          3.357 
     52       H           24.585          7.287 
     53       H           27.980          4.947 
     54       H           27.630          8.286 
     55       H           27.114          6.152 
     56       H           27.840          8.595 
     57       H           25.470         12.376 
     58       H           26.283          2.192 
     59       H           26.894          6.467 
     60       H           27.348          6.760 
     61       H           27.590          5.585 
     62       H           29.507         14.324 
     63       H           24.462         12.402 
     64       H           25.484          4.983 
     65       H           25.335          5.117 
     66       H           28.757         10.491 
     67       H           27.568          7.026 
     68       H           28.385          8.401 
     69       H           27.782          7.836 
     70       H           28.002          9.933 
     71       H           27.433          9.776 
     72       H           27.723          9.967 
     73       H           27.708          5.791 
     74       H           27.289          9.656 
     75       H           28.232         15.410 
     76       H           27.511         24.552 
     77       H           27.616         23.439 
     78       H           25.937         17.736 
     79       H           27.685          5.481 
     80       H           27.238          5.557 
     81       H           28.082          9.810 


NMR shielding tensor and spin rotation calculation done in   2.5 sec 
[c09b01n02:2404577] 6 more processes have sent help message help-mpi-btl-openib.txt / no active ports found
[c09b01n02:2404577] Set MCA parameter "orte_base_help_aggregate" to 0 to see all help / error messages
[c09b01n02:2404577] 52 more processes have sent help message help-mpi-btl-openib.txt / error in device init

Maximum memory used throughout the entire PROP-calculation: 370.3 MB
--------------------------------------------------------------------------
WARNING: There was an error initializing an OpenFabrics device.

  Local host:   c09b01n02
  Local device: mlx5_0
--------------------------------------------------------------------------
--------------------------------------------------------------------------
WARNING: There is at least one non-excluded one OpenFabrics device found,
but there are no active ports detected (or Open MPI was unable to use
them).  This is most certainly not what you wanted.  Check your
cables, subnet manager configuration, etc.  The openib BTL will be
ignored for this job.

  Local host: c09b01n02
--------------------------------------------------------------------------
[c09b01n02:2405098] 53 more processes have sent help message help-mpi-btl-openib.txt / error in device init
[c09b01n02:2405098] Set MCA parameter "orte_base_help_aggregate" to 0 to see all help / error messages
[c09b01n02:2405098] 5 more processes have sent help message help-mpi-btl-openib.txt / no active ports found

--------------------------------
SUGGESTED CITATIONS FOR THIS RUN
--------------------------------

Below you find a list of papers that are relevant to this ORCA run
We neither can nor want to force you to cite these papers, but we appreciate if you do
You receive ORCA, which is the product of decades of hard work by many enthusiastic individuals, for free
The only thing we kindly ask in return is that you cite our papers,
We deeply appreciate it, if you show your appreciation for ORCA by not just citing the generic ORCA reference.

Please note that relegating all ORCA citations to the supporting information does *not* help us.
SI sections are not indexed - citations you put there will not count into any citation statistics
But we need these citations in order to attract the funding resources that allow us to do what we are doing

Therefore, if you are a happy ORCA user, please consider citing a few of the papers listed below in the main body of your paper

In addition to the list printed below, the program has created the file nmr-conf-6.bibtex that contains the list in bibtex format
You can import this file easily into all common literature databanks and citation aid programs


List of essential papers. We consider these as the minimum necessary citations

  1. Neese, F.
     Software update: the ORCA program system, version 6.0
     WIRES Comput. Molec. Sci. 2025 15(1), e70019
     doi.org/10.1002/wcms.7019

List of papers to cite with high priority. The work reported in these papers was absolutely
necessary for this run to complete.
Our perspective: the developers of density functionals and basis sets usually get cited in chemistry papers
Good! But without the algorithms to do something with them, the functionals or basis sets would not do anything.
Hence, in our opinion, the algorithm design and method developments papers are equally worthy of getting cited

  1. Neese, F.
     An improvement of the resolution of the identity approximation for the formation of the Coulomb matrix
     J. Comp. Chem. 2003 24(14), 1740-1747
     doi.org/10.1002/jcc.10318
  2. Stoychev, G.L.; Auer, A.A.; Neese, F.
     Automatic Generation of Auxiliary Basis Sets
     J. Theo. Comp. Chem. 2017 13 , 554-562
     doi.org/10.1021/acs.jctc.6b01041
  3. Stoychev, G.L.; Auer, A.A.; Izsak, R.; Neese, F.
     Self-Consistent Field Calculation of Nuclear Magnetic Resonance Chemical Shielding Constants Using Gauge-Including Atomic Orbitals and Approximate Two-Electron Integrals
     J. Chem. Theory Comput. 2018 14(2), 619-637
     doi.org/10.1021/acs.jctc.7b01006
  4. Garcia-Rates, M.; Neese, F.
     Effect of the Solute Cavity on the Solvation Energy and its Derivatives within the Framework of the Gaussian Charge Scheme
     J. Comput. Chem. 2020 41 , 922-939
     doi.org/10.1002/jcc.26139
  5. Neese, F.
     The SHARK Integral Generation and Digestion System
     J. Comp. Chem. 2022 44(3), 381
     doi.org/10.1002/jcc.26942

List of suggested additional citations. These are papers that are important in the 'surrounding' of 
of this run, or papers that preceded the highly important papers. If you like your results we are grateful for a citation.

  1. Neese, F.
     The ORCA program system
     WIRES Comput. Molec. Sci. 2012 2(1), 73-78
     doi.org/10.1002/wcms.81
  2. Neese, F.
     Software update: the ORCA program system, version 4.0
     WIRES Comput. Molec. Sci. 2018 8(1), 1-6
     doi.org/10.1002/wcms.1327
  3. Neese, F.; Wennmohs, F.; Becker, U.; Riplinger, C.
     The ORCA quantum chemistry program package
     J. Chem. Phys. 2020 152(22), 224108
     doi.org/10.1063/5.0004608
  4. Neese, F.
     Software update: The ORCA program system—Version 5.0
     WIRES Comput. Molec. Sci. 2022 12(1), e1606
     doi.org/10.1002/wcms.1606

List of optional additional citations

  1. Neese, F.
     Approximate second-order SCF convergence for spin unrestricted wavefunctions
     Chem. Phys. Lett. 2000 325(1-3), 93-98
     doi.org/10.1016/s0009-2614(00)00662-x

Timings for individual modules:

Sum of individual times          ...      282.747 sec (=   4.712 min)
Startup calculation              ...       91.496 sec (=   1.525 min)  32.4 %
SCF iterations                   ...      116.960 sec (=   1.949 min)  41.4 %
Property integrals               ...       52.724 sec (=   0.879 min)  18.6 %
SCF Response                     ...       13.777 sec (=   0.230 min)   4.9 %
Property calculations            ...        7.791 sec (=   0.130 min)   2.8 %
                             ****ORCA TERMINATED NORMALLY****
TOTAL RUN TIME: 0 days 0 hours 4 minutes 51 seconds 317 msec
