
                                 *****************
                                 * O   R   C   A *
                                 *****************

                                            #,                                       
                                            ###                                      
                                            ####                                     
                                            #####                                    
                                            ######                                   
                                           ########,                                 
                                     ,,################,,,,,                         
                               ,,#################################,,                 
                          ,,##########################################,,             
                       ,#########################################, ''#####,          
                    ,#############################################,,   '####,        
                  ,##################################################,,,,####,       
                ,###########''''           ''''###############################       
              ,#####''   ,,,,##########,,,,          '''####'''          '####       
            ,##' ,,,,###########################,,,                        '##       
           ' ,,###''''                  '''############,,,                           
         ,,##''                                '''############,,,,        ,,,,,,###''
      ,#''                                            '''#######################'''  
     '                                                          ''''####''''         
             ,#######,   #######,   ,#######,      ##                                
            ,#'     '#,  ##    ##  ,#'     '#,    #''#        ,####,    ,#,          
            ##       ##  ##   ,#'  ##            #'  '#       #'       ,# #          
            ##       ##  #######   ##           ,######,      #####,      #          
            '#,     ,#'  ##    ##  '#,     ,#' ,#      #,     #,   #      #          
             '#######'   ##     ##  '#######'  #'      '#     '####' #    #          



                #########################################################
                #                        -***-                          #
                #          Department of theory and spectroscopy        #
                #                                                       #
                #                      Frank Neese                      #
                #                                                       #
                #     Directorship, Architecture, Infrastructure        #
                #                    SHARK, DRIVERS                     #
                #        Core code/Algorithms in most modules           #
                #                                                       #
                #        Max Planck Institute fuer Kohlenforschung      #
                #                Kaiser Wilhelm Platz 1                 #
                #                 D-45470 Muelheim/Ruhr                 #
                #                      Germany                          #
                #                                                       #
                #                  All rights reserved                  #
                #                        -***-                          #
                #########################################################


                         Program Version 6.1.0-f.0  -   RELEASE   -


 With contributions from (in alphabetic order):
[Max-Planck-Institut fuer Kohlenforschung]                               
  Daniel Aravena         : Magnetic Suceptibility                        
  Michael Atanasov       : Ab Initio Ligand Field Theory (pilot matlab implementation)
  Alexander A. Auer      : GIAO ZORA, VPT2 properties, NMR spectrum      
  Ute Becker             : All parallelization in ORCA, NUMFREQ, NUMCALC 
  Giovanni Bistoni       : ED, misc. LED, open-shell LED, HFLD           
  Dmytro Bykov           : pre 5.0 version of the SCF Hessian            
  Marcos Casanova-Páez   : Triplet and SCS-CIS(D). UHF-(DLPNO)-IP/EA/STEOM-CCSD. UHF-CVS-IP/STEOM-CCSD   
  Vijay G. Chilkuri      : MRCI spin determinant printing, contributions to CSF-ICE 
  Pauline Colinet        : FMM embedding                                 
  Dipayan Datta          : RHF DLPNO-CCSD density                        
  Achintya Kumar Dutta   : EOM-CC, STEOM-CC                              
  Nicolas Foglia         : Exact transition moments, OPA infrastructure, MCD improvements    
  Dmitry Ganyushin       : Spin-Orbit,Spin-Spin,Magnetic field MRCI      
  Miquel Garcia-Rates    : C-PCM and meta-GGA Hessian, CCSD/C-PCM, Gaussian charge scheme 
  Tiago L. C. Gouveia    : GS-ROHF, GS-ROCIS                             
  Yang Guo               : DLPNO-NEVPT2, F12-NEVPT2, CIM, IAO-localization        
  Andreas Hansen         : Spin unrestricted coupled pair/coupled cluster methods 
  Ingolf Harden          : AUTO-CI MPn and infrastructure                
  Benjamin Helmich-Paris : MC-RPA, TRAH-(SCF,CASSCF), AVAS, COSX integrals, SCF dyn. polar., MC-PDFT, srDFT 
  Lee Huntington         : MR-EOM, pCC                                   
  Robert Izsak           : Overlap fitted RIJCOSX, COSX-SCS-MP3, EOM     
  Riya Kayal             : Wick's Theorem for AUTO-CI, AUTO-CI UHF-CCSDT 
  Emily Kempfer          : AUTO-CI RHF CISDT and CCSDT, approximate NEVPT4
  Christian Kollmar      : KDIIS, OOCD, Brueckner-CCSD(T), CCSD density, CASPT2, CASPT2-K, improved NEVPT2 
  Axel Koslowski         : Symmetry handling                             
  Simone Kossmann        : meta-GGA functionals, TD-DFT gradient, OOMP2, (MP2 Hessian; deprecated post 5.0) 
  Lucas Lang             : DCDCAS, Hyperfine gauge corrections, ICE-SOC+SSC
  Marvin Lechner         : AUTO-CI (C++ implementation), FIC-MRCC        
  Spencer Leger          : CASSCF response                               
  Dagmar Lenk            : GEPOL surface, SMD, ORCA-2-JSON               
  Dimitrios Liakos       : Extrapolation schemes; Compound Job, Property file
  Dimitrios Manganas     : Further ROCIS development; embedding schemes. LFT, Crystal Embedding 
  Dimitrios Pantazis     : SARC Basis sets                               
  Anastasios Papadopoulos: AUTO-CI, single reference methods and gradients 
  Taras Petrenko         : pre 6.0 DFT Hessian and TD-DFT gradient,  ECA, NRVS 
  Petra Pikulova         : Analytic Raman intensities                    
  Peter Pinski           : DLPNO-MP2, DLPNO-MP2 Gradient                 
  Shashank Vittal Rao    : ES-AILFT, MagRelax                            
  Christoph Reimann      : Effective Core Potentials                     
  Marius Retegan         : Local ZFS, SOC                                
  Christoph Riplinger    : Optimizer, TS searches, QM/MM, DLPNO-CCSD(T), (RO)-DLPNO pert. Triples 
  Michael Roemelt        : Original ROCIS implementation, recursive CI coupling coefficients
  Masaaki Saitow         : Open-shell DLPNO-CCSD energy and density      
  Barbara Sandhoefer     : DKH picture change effects                    
  Yorick L. A. Schmerwitz: GMF and freeze-and-release deltaSCF, NEB S-IDPP initial path                    
  Kantharuban Sivalingam : CASSCF convergence/infrastructure, NEVPT2, NEVPT3, NEVPT4(SD), FIC-MRCI and CEPA variants
  Bernardo de Souza      : ESD, SOC TD-DFT                               
  Georgi L. Stoychev     : AutoAux, RI-MP2 NMR, DLPNO-MP2 response, X2C  
  Van Anh Tran           : RI-MP2 g-tensors                              
  Willem Van den Heuvel  : Paramagnetic NMR                              
  Zikuan Wang            : NOTCH, Electric field optimization            
  Frank Wennmohs         : Technical directorship and infrastructure     
  Hang Xu                : AUTO-CI-Response properties                   
                                                                         
[FACCTs GmbH]                                                            
  Markus Bursch, Nicolas Foglia, Miquel Garcia-Rates, Ingolf Harden, Hagen Neugebauer, Anastasios Papadopoulos, 
  Christoph Riplinger, Bernardo de Souza, Georgi L. Stoychev                                                    
                                                                 
  APM, various basis sets, CI-OPT, improved COSX, DLPNO-Multilevel,           
  DOCKER, DRACO, updates on ESD, Fragmentator, GOAT, IRC, LR-CPCM, L-BFGS, MBIS, meta-GGA TD-DFT gradient, ML-optimized integration grids, 
  MM, NACMEs, nearIR, NEB, NEB-TS, NL-DFT gradient (VV10), 2- and 3-layer-ONIOM, interface openCOSMO-RS, QMMM,   
  Crystal-QMMM, RESP, rigid body optimization, SF, symmetry and pop. for TD-DFT, various functionals, SOLVATOR                                   
                                                                         
[Other institutions]                                                     
  V. Asgeirsson          : NEB                                           
  Christoph Bannwarth    : sTDA-DFT, sTD-DFT, PBEh-3c, B97-3c, D3        
  Giovanni Bistoni       : ETS/NOCV, ADLD/ADEX, COVALED                  
  Martin Brehm           : Molecular dynamics                            
  Ronald Cardenas        : ETS/NOCV                                      
  Martina Colucci        : COVALED                                       
  Sebastian Ehlert       : rSCAN, r2SCAN, r2SCAN-3c, D4, dhf basis sets  
  Marvin Friede          : D4 for Fr, Ra, Ac-Lr                          
  Lars Goerigk           : TD-DFT with DH, B97 family of functionals     
  Stefan Grimme          : VdW corrections, initial TS optimization, DFT functionals, gCP, sTDA/sTD-DF 
  Waldemar Hujo          : DFT-NL                                        
  H. Jonsson             : NEB                                           
  Holger Kruse           : gCP                                           
  Marcel Mueller         : wB97X-3c, vDZP basis set                      
  Hagen Neugebauer       : wr2SCAN, Native XTB                           
  Gianluca Regni         : ADLD/ADEX                                     
  Tobias Risthaus        : pre 6.0 range-separated hybrid DFT and stability analysis
  Lukas Wittmann         : regularized MP2, r2SCAN double-hybrids, wr2SCAN        
                                                                         
We gratefully acknowledge several colleagues who have allowed us to      
interface, adapt or use parts of their codes:                            
  Ed Valeev, F. Pavosevic, A. Kumar             : LibInt (2-el integral package), F12 methods 
  Garnet Chan, S. Sharma, J. Yang, R. Olivares  : DMRG                   
  Ulf Ekstrom                                   : XCFun DFT Library      
  Mihaly Kallay                                 : mrcc  (arbitrary order and MRCC methods)
  Frank Weinhold                                : gennbo (NPA and NBO analysis)           
  Simon Mueller                                 : openCOSMO-RS                            
  Christopher J. Cramer and Donald G. Truhlar   : smd solvation model                     
  S Lehtola, MJT Oliveira, MAL Marques          : LibXC Library                           
  Liviu Ungur et al                             : ANISO software                          


 Your calculation uses the libint2 library for the computation of 2-el integrals
 For citations please refer to: http://libint.valeyev.net

 Your ORCA version has been built with support for libXC version: 7.0.0
 For citations please refer to: https://libxc.gitlab.io

 This ORCA versions uses:
   CBLAS   interface :  Fast vector & matrix operations
   LAPACKE interface :  Fast linear algebra routines
   SCALAPACK package :  Parallel linear algebra routines
   Shared memory     :  Shared parallel matrices
   BLAS/LAPACK       :  OpenBLAS 0.3.29  USE64BITINT DYNAMIC_ARCH NO_AFFINITY Cooperlake SINGLE_THREADED
        Core in use  :  Cooperlake
   Copyright (c) 2011-2014, The OpenBLAS Project


  ***********************************
  * Starting time: Tue Mar  3 21:10:37 2026
  * Host name:     c08b01n08
  * Process ID:    1523763
  * Working dir.:  /lustre1/jiangy/jiangy_liuxy/NMR/B9D7C2-SSSS-NMR/opt_conf
  ***********************************

NOTE: MaxCore=5000 MB was set to SCF,MP2,MDCI,CIPSI,MRCI,RASCI and CIS
      => If you want to overwrite this, your respective input block should be placed after the MaxCore statement


***************************************
The coordinates will be read from file: opt-conf-14.xyz
***************************************



Warning: The global flag for NMR shieldings has been found
         but shieldings for certain elements have also been explicitly requested in the EPRNMR block
         ==>> only the requested shieldings will be calculated

================================================================================

----- Orbital basis set information -----
Your calculation utilizes the basis: pcSseg-2
   F. Jensen, J. Chem. Theory Comput. 11, 132 (2015).

----- AuxJ basis set information -----
Your calculation utilizes the AutoAux generation procedure.
  G. L. Stoychev, A. A. Auer, F. Neese, J. Chem. Theory Comput. 13, 554 (2017)

----- AuxC basis set information -----
Your calculation utilizes the AutoAux generation procedure.
  G. L. Stoychev, A. A. Auer, F. Neese, J. Chem. Theory Comput. 13, 554 (2017)

----- AuxJK basis set information -----
Your calculation utilizes the AutoAux generation procedure.
  G. L. Stoychev, A. A. Auer, F. Neese, J. Chem. Theory Comput. 13, 554 (2017)

----- AuxX basis set information -----
Your calculation utilizes the AutoAux generation procedure.
  G. L. Stoychev, A. A. Auer, F. Neese, J. Chem. Theory Comput. 13, 554 (2017)

================================================================================
                                        WARNINGS
                       Please study these warnings very carefully!
================================================================================


================================================================================
                                       INPUT FILE
================================================================================
NAME = nmr-conf-14.inp
|  1> !TPSS PCSSEG-2 AUTOAUX NMR CPCM(Methanol)
|  2> 
|  3> %pal nprocs 60 end
|  4> %maxcore 5000
|  5> 
|  6> *XYZFILE 0 1 opt-conf-14.xyz
|  7> 
|  8> %EPRNMR
|  9>    NUCLEI = ALL C {SHIFT}
| 10>    NUCLEI = ALL H {SHIFT}
| 11>    TAU DOBSON
| 12> END
| 13> 
| 14> 
| 15>                          ****END OF INPUT****
================================================================================

                       ****************************
                       * Single Point Calculation *
                       ****************************

---------------------------------
CARTESIAN COORDINATES (ANGSTROEM)
---------------------------------
  C     29.048936  -26.313743    1.540086
  C     30.235374  -25.796147    1.017456
  C     30.207216  -25.095818   -0.190540
  C     29.006122  -24.950893   -0.883175
  C     27.831819  -25.503087   -0.378076
  C     27.854169  -26.178092    0.841126
  C     26.532363  -25.390919   -1.136558
  C     26.143005  -26.671757   -1.920811
  C     24.641869  -26.658920   -2.296314
  C     23.713280  -26.530120   -1.055485
  C     24.017772  -27.398224    0.144642
  C     24.050998  -28.796717    0.058185
  C     24.319378  -29.572474    1.175527
  C     24.554564  -28.962794    2.417614
  C     24.506381  -27.586159    2.516531
  C     24.243832  -26.813643    1.386215
  C     27.104528  -26.773863   -3.110620
  C     24.182358  -27.838737   -3.173268
  O     31.401664  -24.605386   -0.614459
  O     29.166387  -26.953488    2.739028
  O     31.400857  -25.944466    1.731804
  O     24.826790  -29.721017    3.520797
  O     24.372010  -30.935241    1.199175
  C     32.385706  -26.864277    1.209497
  C     31.970128  -28.327667    1.444903
  C     30.881473  -28.813364    0.491284
  C     33.672692  -26.511365    1.930335
  O     34.078262  -25.173159    1.655464
  C     29.819877  -29.575732    0.980820
  C     28.805003  -29.999339    0.135570
  C     28.852658  -29.674439   -1.223586
  C     29.918476  -28.950597   -1.723424
  C     30.929985  -28.525043   -0.869070
  C     27.983058  -27.489014    3.332312
  C     31.449150  -23.934892   -1.872101
  C     24.180690  -31.643108   -0.023148
  O     31.625582  -28.529846    2.808516
  O     27.085621  -28.017078   -3.824187
  O     24.540534  -27.720565   -4.548050
  O     27.709934  -30.721518    0.509355
  O     27.845826  -30.079377   -2.063815
  C     27.702434  -31.315424    1.807879
  H     28.978963  -24.413075   -1.819216
  H     26.939042  -26.597024    1.230678
  H     26.585751  -24.555512   -1.840824
  H     25.744207  -25.149432   -0.427245
  H     26.323570  -27.533025   -1.269036
  H     24.458805  -25.761647   -2.900366
  H     23.710376  -25.492650   -0.721532
  H     22.691217  -26.729970   -1.392964
  H     23.856838  -29.282872   -0.885082
  H     24.683581  -27.121419    3.478171
  H     24.218475  -25.735119    1.481685
  H     26.863577  -26.003322   -3.846409
  H     28.121600  -26.589083   -2.759484
  H     23.091768  -27.881859   -3.150152
  H     24.558512  -28.786357   -2.774496
  H     24.814253  -30.654481    3.261211
  H     32.518136  -26.676168    0.144662
  H     32.865721  -28.934495    1.276781
  H     33.546468  -26.665584    3.006694
  H     34.472736  -27.163418    1.578146
  H     33.316645  -24.604798    1.833499
  H     29.782304  -29.817578    2.030937
  H     29.950012  -28.717511   -2.780114
  H     31.749721  -27.955089   -1.284450
  H     27.504661  -28.211389    2.671212
  H     28.305499  -27.982340    4.245660
  H     27.277039  -26.691499    3.570241
  H     31.123867  -24.593710   -2.680533
  H     30.829388  -23.035051   -1.863307
  H     32.490262  -23.659008   -2.020673
  H     23.181110  -31.462510   -0.425521
  H     24.929572  -31.351532   -0.762261
  H     24.294491  -32.696574    0.219107
  H     30.859504  -27.958866    2.993765
  H     27.287002  -28.745355   -3.208740
  H     25.494186  -27.929333   -4.581022
  H     27.184316  -30.563831   -1.545886
  H     27.681228  -30.553453    2.588133
  H     26.795226  -31.909727    1.858292
  H     28.579419  -31.952709    1.941930

----------------------------
CARTESIAN COORDINATES (A.U.)
----------------------------
  NO LB      ZA    FRAG     MASS         X           Y           Z
   0 C     6.0000    0    12.011   54.894534  -49.725767    2.910341
   1 C     6.0000    0    12.011   57.136576  -48.747653    1.922712
   2 C     6.0000    0    12.011   57.083366  -47.424224   -0.360068
   3 C     6.0000    0    12.011   54.813628  -47.150355   -1.668958
   4 C     6.0000    0    12.011   52.594516  -48.193850   -0.714460
   5 C     6.0000    0    12.011   52.636752  -49.469424    1.589498
   6 C     6.0000    0    12.011   50.138900  -47.981884   -2.147784
   7 C     6.0000    0    12.011   49.403120  -50.402317   -3.629808
   8 C     6.0000    0    12.011   46.566385  -50.378057   -4.339405
   9 C     6.0000    0    12.011   44.811606  -50.134662   -1.994577
  10 C     6.0000    0    12.011   45.387011  -51.775139    0.273334
  11 C     6.0000    0    12.011   45.449800  -54.417908    0.109954
  12 C     6.0000    0    12.011   45.956963  -55.883876    2.221424
  13 C     6.0000    0    12.011   46.401401  -54.731749    4.568628
  14 C     6.0000    0    12.011   46.310349  -52.130286    4.755555
  15 C     6.0000    0    12.011   45.814204  -50.670442    2.619567
  16 C     6.0000    0    12.011   51.220134  -50.595268   -5.878220
  17 C     6.0000    0    12.011   45.698035  -52.607589   -5.996608
  18 O     8.0000    0    15.999   59.340545  -46.497442   -1.161160
  19 O     8.0000    0    15.999   55.116485  -50.934710    5.176013
  20 O     8.0000    0    15.999   59.339020  -49.027936    3.272636
  21 O     8.0000    0    15.999   46.915833  -56.164582    6.653343
  22 O     8.0000    0    15.999   46.056424  -58.459134    2.266112
  23 C     6.0000    0    12.011   61.200114  -50.766126    2.285618
  24 C     6.0000    0    12.011   60.414786  -53.531532    2.730471
  25 C     6.0000    0    12.011   58.357527  -54.449367    0.928392
  26 C     6.0000    0    12.011   63.632165  -50.099220    3.647805
  27 O     8.0000    0    15.999   64.398583  -47.570377    3.128373
  28 C     6.0000    0    12.011   56.351401  -55.890034    1.853481
  29 C     6.0000    0    12.011   54.433566  -56.690536    0.256190
  30 C     6.0000    0    12.011   54.523622  -56.076562   -2.312243
  31 C     6.0000    0    12.011   56.537727  -54.708701   -3.256798
  32 C     6.0000    0    12.011   58.449201  -53.904519   -1.642304
  33 C     6.0000    0    12.011   52.880316  -51.946707    6.297157
  34 C     6.0000    0    12.011   59.430281  -45.230390   -3.537758
  35 C     6.0000    0    12.011   45.694883  -59.796808   -0.043744
  36 O     8.0000    0    15.999   59.763689  -53.913596    5.307326
  37 O     8.0000    0    15.999   51.184406  -52.944604   -7.226667
  38 O     8.0000    0    15.999   46.374889  -52.384276   -8.594570
  39 O     8.0000    0    15.999   52.364187  -58.055256    0.962542
  40 O     8.0000    0    15.999   52.620985  -56.841784   -3.900046
  41 C     6.0000    0    12.011   52.350014  -59.177575    3.416395
  42 H     1.0000    0     1.008   54.762303  -46.134026   -3.437820
  43 H     1.0000    0     1.008   50.907413  -50.261092    2.325644
  44 H     1.0000    0     1.008   50.239788  -46.403193   -3.478653
  45 H     1.0000    0     1.008   48.649500  -47.525538   -0.807375
  46 H     1.0000    0     1.008   49.744338  -52.029876   -2.398130
  47 H     1.0000    0     1.008   46.220444  -48.682458   -5.480898
  48 H     1.0000    0     1.008   44.806118  -48.174127   -1.363497
  49 H     1.0000    0     1.008   42.880186  -50.512322   -2.632321
  50 H     1.0000    0     1.008   45.082890  -55.336608   -1.672563
  51 H     1.0000    0     1.008   46.645208  -51.252054    6.572791
  52 H     1.0000    0     1.008   45.766284  -48.632327    2.799980
  53 H     1.0000    0     1.008   50.764803  -49.139156   -7.268660
  54 H     1.0000    0     1.008   53.142122  -50.246086   -5.214669
  55 H     1.0000    0     1.008   43.637117  -52.689077   -5.952924
  56 H     1.0000    0     1.008   46.408861  -54.398332   -5.243037
  57 H     1.0000    0     1.008   46.892143  -57.928574    6.162795
  58 H     1.0000    0     1.008   61.450371  -50.410653    0.273372
  59 H     1.0000    0     1.008   62.107212  -54.678272    2.412766
  60 H     1.0000    0     1.008   63.393638  -50.390650    5.681828
  61 H     1.0000    0     1.008   65.144029  -51.331421    2.982263
  62 H     1.0000    0     1.008   62.959334  -46.496330    3.464811
  63 H     1.0000    0     1.008   56.280398  -56.347057    3.837915
  64 H     1.0000    0     1.008   56.597320  -54.268232   -5.253654
  65 H     1.0000    0     1.008   59.998278  -52.827461   -2.427258
  66 H     1.0000    0     1.008   51.976278  -53.311800    5.047859
  67 H     1.0000    0     1.008   53.489640  -52.878958    8.023135
  68 H     1.0000    0     1.008   51.546133  -50.439623    6.746777
  69 H     1.0000    0     1.008   58.815584  -46.475376   -5.065474
  70 H     1.0000    0     1.008   58.259100  -43.529938   -3.521140
  71 H     1.0000    0     1.008   61.397697  -44.709046   -3.818518
  72 H     1.0000    0     1.008   43.805949  -59.455528   -0.804119
  73 H     1.0000    0     1.008   47.110063  -59.245810   -1.440464
  74 H     1.0000    0     1.008   45.909934  -61.787570    0.414052
  75 H     1.0000    0     1.008   58.316012  -52.834601    5.657397
  76 H     1.0000    0     1.008   51.564961  -54.320848   -6.063640
  77 H     1.0000    0     1.008   48.177029  -52.778790   -8.656877
  78 H     1.0000    0     1.008   51.370913  -57.757271   -2.921301
  79 H     1.0000    0     1.008   52.309940  -57.737659    4.890863
  80 H     1.0000    0     1.008   50.635640  -60.300645    3.511662
  81 H     1.0000    0     1.008   54.007275  -60.381869    3.669716

--------------------------------
INTERNAL COORDINATES (ANGSTROEM)
--------------------------------
 C      0   0   0     0.000000000000     0.00000000     0.00000000
 C      1   0   0     1.395951919978     0.00000000     0.00000000
 C      2   1   0     1.396605271659   119.51313257     0.00000000
 C      3   2   1     1.394048634373   119.95062599   358.19948014
 C      4   3   2     1.392490560645   120.34047660   359.89904798
 C      1   2   3     1.390831993373   120.38372538     2.38766344
 C      5   4   3     1.508795575192   120.96254753   181.87645469
 C      7   5   4     1.551514616422   114.13375062   100.70014262
 C      8   7   5     1.547441752800   111.05438229   162.26602373
 C      9   8   7     1.555160687375   112.72493679   302.35131617
 C     10   9   8     1.512158189088   117.73987857   314.52963962
 C     11  10   9     1.401556930748   121.91385999   301.45786621
 C     12  11  10     1.386462323777   120.87560149   180.65149731
 C     13  12  11     1.403496140091   120.17164157     0.39968264
 C     14  13  12     1.381025252763   119.37752141     0.46236369
 C     11  10   9     1.390806232020   119.99505630   122.98645206
 C      8   7   5     1.533164860512   106.85001585   288.24703945
 C      9   8   7     1.540184497990   114.91238110   175.44769515
 O      3   2   1     1.359020648328   115.66086577   178.84070212
 O      1   2   3     1.364013031304   115.45498675   181.56087400
 O      2   1   3     1.375007049204   119.07165705   177.55270576
 O     14  13  12     1.366024657611   120.46336378   180.36054058
 O     13  12  11     1.363988718071   125.48312854   179.85440111
 C     21   2   1     1.445262082779   117.28999175   109.22003393
 C     24  21   2     1.539360564177   111.45631834   285.03439235
 C     25  24  21     1.526584500650   113.54390231    76.17887977
 C     24  21   2     1.516735967021   104.97356204   163.36041899
 O     27  24  21     1.425074565411   111.61161022   298.54407351
 C     26  25  24     1.395649436684   119.80991328   223.21649956
 C     29  26  25     1.387033124116   120.63929924   178.47195969
 C     30  29  26     1.398262230852   119.76538439     0.79399117
 C     31  30  29     1.381937552880   119.97158270     0.95123382
 C     32  31  30     1.390743008730   119.93532258   358.81171326
 C     20   1   2     1.427950382422   118.01729933   179.19558616
 C     19   3   2     1.426001421327   118.29744449   177.11879405
 C     23  13  12     1.425395358511   118.43225120     2.14362592
 O     25  24  21     1.420925033191   110.33344998   308.94861886
 O     17   8   7     1.433568739328   115.83405576   168.63319681
 O     18   9   8     1.425580789690   114.24472372   282.71407141
 O     30  29  26     1.363976731760   125.60103355   181.45911994
 O     31  30  29     1.372469050597   120.10074657   180.60821583
 C     40  30  29     1.427915861838   118.27103828   347.46386437
 H      4   3   2     1.079888600117   120.27243205   180.19232179
 H      6   1   2     1.079218243692   120.60784539   178.55584130
 H      7   5   4     1.093958850522   109.77773163   338.65790634
 H      7   5   4     1.087489224402   108.22871801   222.67710982
 H      8   7   5     1.095078468156   107.88135802    43.95515966
 H      9   8   7     1.097036441639   107.59443507    58.59064612
 H     10   9   8     1.089897744556   108.95974944    77.46114454
 H     10   9   8     1.094735202286   107.24022878   191.09029146
 H     12  11  10     1.078795060764   119.95574739     0.06246884
 H     15  14  13     1.082651763458   119.06531873   179.68945976
 H     16  11  10     1.083037860400   119.56772483   358.85525286
 H     17   8   7     1.092326337584   109.72010079   288.39541101
 H     17   8   7     1.091730901613   108.86787838    45.93633695
 H     18   9   8     1.091687618335   108.43625047   164.82950822
 H     18   9   8     1.094758016547   110.68048863    47.09586115
 H     22  14  13     0.968967302304   108.40845633   359.83767447
 H     24  21   2     1.089401157273   109.03745911    46.99913206
 H     25  24  21     1.094802695035   106.41533459   195.00340559
 H     27  24  21     1.094652471930   109.67539925    61.69948654
 H     27  24  21     1.090541438501   109.26202173   180.55443260
 H     28  27  24     0.966846689244   106.99651054    51.63944019
 H     29  26  25     1.078261519486   119.38185375   359.75661185
 H     32  31  30     1.082551478536   119.22870567   179.15687381
 H     33  32  31     1.081367474843   118.46682492   180.36637156
 H     34  20   1     1.089835952602   111.11947356    58.57464494
 H     34  20   1     1.086988397500   105.87234949   177.76709463
 H     34  20   1     1.091376513202   110.64720275   296.79790873
 H     35  19   3     1.092434840592   111.04992851   300.63781674
 H     35  19   3     1.092655436226   111.17599145    62.81678461
 H     35  19   3     1.087243650800   105.76625711   181.69702944
 H     36  23  13     1.092557092042   110.88712349   297.28161601
 H     36  23  13     1.091845717557   110.84353929    59.14492110
 H     36  23  13     1.086935711659   106.02996607   178.19454885
 H     37  25  24     0.973247462780   106.86111981    62.31714078
 H     38  17   8     0.974534589323   109.32976180   302.39060943
 H     39  18   9     0.976792079122   105.07792569    75.85446631
 H     41  31  30     0.969815391998   108.71247456     0.81707669
 H     42  40  30     1.090800918790   111.10307430    66.41445863
 H     42  40  30     1.085708734560   105.91950737   185.17534116
 H     42  40  30     1.092338695189   110.48967210   304.54635263

---------------------------
INTERNAL COORDINATES (A.U.)
---------------------------
 C      0   0   0     0.000000000000     0.00000000     0.00000000
 C      1   0   0     2.637966824879     0.00000000     0.00000000
 C      2   1   0     2.639201480626   119.51313257     0.00000000
 C      3   2   1     2.634370136333   119.95062599   358.19948014
 C      4   3   2     2.631425803690   120.34047660   359.89904798
 C      1   2   3     2.628291565771   120.38372538     2.38766344
 C      5   4   3     2.851210429185   120.96254753   181.87645469
 C      7   5   4     2.931937717813   114.13375062   100.70014262
 C      8   7   5     2.924241120987   111.05438229   162.26602373
 C      9   8   7     2.938827793380   112.72493679   302.35131617
 C     10   9   8     2.857564848542   117.73987857   314.52963962
 C     11  10   9     2.648558760214   121.91385999   301.45786621
 C     12  11  10     2.620034086939   120.87560149   180.65149731
 C     13  12  11     2.652223334788   120.17164157     0.39968264
 C     14  13  12     2.609759511751   119.37752141     0.46236369
 C     11  10   9     2.628242883869   119.99505630   122.98645206
 C      8   7   5     2.897261704519   106.85001585   288.24703945
 C      9   8   7     2.910526896912   114.91238110   175.44769515
 O      3   2   1     2.568176835684   115.66086577   178.84070212
 O      1   2   3     2.577611072265   115.45498675   181.56087400
 O      2   1   3     2.598386755207   119.07165705   177.55270576
 O     14  13  12     2.581412495068   120.46336378   180.36054058
 O     13  12  11     2.577565126913   125.48312854   179.85440111
 C     21   2   1     2.731149528194   117.28999175   109.22003393
 C     24  21   2     2.908969887653   111.45631834   285.03439235
 C     25  24  21     2.884826626518   113.54390231    76.17887977
 C     24  21   2     2.866215595137   104.97356204   163.36041899
 O     27  24  21     2.693000649044   111.61161022   298.54407351
 C     26  25  24     2.637395214294   119.80991328   223.21649956
 C     29  26  25     2.621112743257   120.63929924   178.47195969
 C     30  29  26     2.642332679717   119.76538439     0.79399117
 C     31  30  29     2.611483509125   119.97158270     0.95123382
 C     32  31  30     2.628123409165   119.93532258   358.81171326
 C     20   1   2     2.698435155605   118.01729933   179.19558616
 C     19   3   2     2.694752152890   118.29744449   177.11879405
 C     23  13  12     2.693606860148   118.43225120     2.14362592
 O     25  24  21     2.685159169564   110.33344998   308.94861886
 O     17   8   7     2.709052311480   115.83405576   168.63319681
 O     18   9   8     2.693957274293   114.24472372   282.71407141
 O     30  29  26     2.577542476068   125.60103355   181.45911994
 O     31  30  29     2.593590632912   120.10074657   180.60821583
 C     40  30  29     2.698369921156   118.27103828   347.46386437
 H      4   3   2     2.040693709365   120.27243205   180.19232179
 H      6   1   2     2.039426919309   120.60784539   178.55584130
 H      7   5   4     2.067282629266   109.77773163   338.65790634
 H      7   5   4     2.055056807710   108.22871801   222.67710982
 H      8   7   5     2.069398399970   107.88135802    43.95515966
 H      9   8   7     2.073098433630   107.59443507    58.59064612
 H     10   9   8     2.059608251190   108.95974944    77.46114454
 H     10   9   8     2.068749721484   107.24022878   191.09029146
 H     12  11  10     2.038627219472   119.95574739     0.06246884
 H     15  14  13     2.045915331343   119.06531873   179.68945976
 H     16  11  10     2.046644948825   119.56772483   358.85525286
 H     17   8   7     2.064197626903   109.72010079   288.39541101
 H     17   8   7     2.063072415987   108.86787838    45.93633695
 H     18   9   8     2.062990622446   108.43625047   164.82950822
 H     18   9   8     2.068792834189   110.68048863    47.09586115
 H     22  14  13     1.831082834078   108.40845633   359.83767447
 H     24  21   2     2.058669837223   109.03745911    46.99913206
 H     25  24  21     2.068877264295   106.41533459   195.00340559
 H     27  24  21     2.068593383767   109.67539925    61.69948654
 H     27  24  21     2.060824656459   109.26202173   180.55443260
 H     28  27  24     1.827075456160   106.99651054    51.63944019
 H     29  26  25     2.037618972574   119.38185375   359.75661185
 H     32  31  30     2.045725820305   119.22870567   179.15687381
 H     33  32  31     2.043488377584   118.46682492   180.36637156
 H     34  20   1     2.059491481319   111.11947356    58.57464494
 H     34  20   1     2.054110382025   105.87234949   177.76709463
 H     34  20   1     2.062402718946   110.64720275   296.79790873
 H     35  19   3     2.064402667872   111.04992851   300.63781674
 H     35  19   3     2.064819533207   111.17599145    62.81678461
 H     35  19   3     2.054592740856   105.76625711   181.69702944
 H     36  23  13     2.064633689633   110.88712349   297.28161601
 H     36  23  13     2.063289386678   110.84353929    59.14492110
 H     36  23  13     2.054010820214   106.02996607   178.19454885
 H     37  25  24     1.839171165189   106.86111981    62.31714078
 H     38  17   8     1.841603481854   109.32976180   302.39060943
 H     39  18   9     1.845869519323   105.07792569    75.85446631
 H     41  31  30     1.832685491338   108.71247456     0.81707669
 H     42  40  30     2.061315003142   111.10307430    66.41445863
 H     42  40  30     2.051692169524   105.91950737   185.17534116
 H     42  40  30     2.064220979392   110.48967210   304.54635263

---------------------
BASIS SET INFORMATION
---------------------
There are 3 groups of distinct atoms

 Group   1 Type C   : 11s7p2d1f contracted to 4s5p2d1f pattern {7211/31111/11/1}
 Group   2 Type O   : 11s7p2d1f contracted to 4s5p2d1f pattern {7211/31111/11/1}
 Group   3 Type H   : 6s3p1d contracted to 3s2p1d pattern {411/21/1}

Atom   0C    basis set group =>   1
Atom   1C    basis set group =>   1
Atom   2C    basis set group =>   1
Atom   3C    basis set group =>   1
Atom   4C    basis set group =>   1
Atom   5C    basis set group =>   1
Atom   6C    basis set group =>   1
Atom   7C    basis set group =>   1
Atom   8C    basis set group =>   1
Atom   9C    basis set group =>   1
Atom  10C    basis set group =>   1
Atom  11C    basis set group =>   1
Atom  12C    basis set group =>   1
Atom  13C    basis set group =>   1
Atom  14C    basis set group =>   1
Atom  15C    basis set group =>   1
Atom  16C    basis set group =>   1
Atom  17C    basis set group =>   1
Atom  18O    basis set group =>   2
Atom  19O    basis set group =>   2
Atom  20O    basis set group =>   2
Atom  21O    basis set group =>   2
Atom  22O    basis set group =>   2
Atom  23C    basis set group =>   1
Atom  24C    basis set group =>   1
Atom  25C    basis set group =>   1
Atom  26C    basis set group =>   1
Atom  27O    basis set group =>   2
Atom  28C    basis set group =>   1
Atom  29C    basis set group =>   1
Atom  30C    basis set group =>   1
Atom  31C    basis set group =>   1
Atom  32C    basis set group =>   1
Atom  33C    basis set group =>   1
Atom  34C    basis set group =>   1
Atom  35C    basis set group =>   1
Atom  36O    basis set group =>   2
Atom  37O    basis set group =>   2
Atom  38O    basis set group =>   2
Atom  39O    basis set group =>   2
Atom  40O    basis set group =>   2
Atom  41C    basis set group =>   1
Atom  42H    basis set group =>   3
Atom  43H    basis set group =>   3
Atom  44H    basis set group =>   3
Atom  45H    basis set group =>   3
Atom  46H    basis set group =>   3
Atom  47H    basis set group =>   3
Atom  48H    basis set group =>   3
Atom  49H    basis set group =>   3
Atom  50H    basis set group =>   3
Atom  51H    basis set group =>   3
Atom  52H    basis set group =>   3
Atom  53H    basis set group =>   3
Atom  54H    basis set group =>   3
Atom  55H    basis set group =>   3
Atom  56H    basis set group =>   3
Atom  57H    basis set group =>   3
Atom  58H    basis set group =>   3
Atom  59H    basis set group =>   3
Atom  60H    basis set group =>   3
Atom  61H    basis set group =>   3
Atom  62H    basis set group =>   3
Atom  63H    basis set group =>   3
Atom  64H    basis set group =>   3
Atom  65H    basis set group =>   3
Atom  66H    basis set group =>   3
Atom  67H    basis set group =>   3
Atom  68H    basis set group =>   3
Atom  69H    basis set group =>   3
Atom  70H    basis set group =>   3
Atom  71H    basis set group =>   3
Atom  72H    basis set group =>   3
Atom  73H    basis set group =>   3
Atom  74H    basis set group =>   3
Atom  75H    basis set group =>   3
Atom  76H    basis set group =>   3
Atom  77H    basis set group =>   3
Atom  78H    basis set group =>   3
Atom  79H    basis set group =>   3
Atom  80H    basis set group =>   3
Atom  81H    basis set group =>   3
---------------------------------
AUXILIARY/J BASIS SET INFORMATION
---------------------------------
There are 3 groups of distinct atoms

 Group   1 Type C   : 15s13p12d5f5g contracted to 15s13p12d5f5g pattern {111111111111111/1111111111111/111111111111/11111/11111}
 Group   2 Type O   : 15s13p12d5f5g contracted to 15s13p12d5f5g pattern {111111111111111/1111111111111/111111111111/11111/11111}
 Group   3 Type H   : 12s4p3d2f contracted to 12s4p3d2f pattern {111111111111/1111/111/11}

Atom   0C    basis set group =>   1
Atom   1C    basis set group =>   1
Atom   2C    basis set group =>   1
Atom   3C    basis set group =>   1
Atom   4C    basis set group =>   1
Atom   5C    basis set group =>   1
Atom   6C    basis set group =>   1
Atom   7C    basis set group =>   1
Atom   8C    basis set group =>   1
Atom   9C    basis set group =>   1
Atom  10C    basis set group =>   1
Atom  11C    basis set group =>   1
Atom  12C    basis set group =>   1
Atom  13C    basis set group =>   1
Atom  14C    basis set group =>   1
Atom  15C    basis set group =>   1
Atom  16C    basis set group =>   1
Atom  17C    basis set group =>   1
Atom  18O    basis set group =>   2
Atom  19O    basis set group =>   2
Atom  20O    basis set group =>   2
Atom  21O    basis set group =>   2
Atom  22O    basis set group =>   2
Atom  23C    basis set group =>   1
Atom  24C    basis set group =>   1
Atom  25C    basis set group =>   1
Atom  26C    basis set group =>   1
Atom  27O    basis set group =>   2
Atom  28C    basis set group =>   1
Atom  29C    basis set group =>   1
Atom  30C    basis set group =>   1
Atom  31C    basis set group =>   1
Atom  32C    basis set group =>   1
Atom  33C    basis set group =>   1
Atom  34C    basis set group =>   1
Atom  35C    basis set group =>   1
Atom  36O    basis set group =>   2
Atom  37O    basis set group =>   2
Atom  38O    basis set group =>   2
Atom  39O    basis set group =>   2
Atom  40O    basis set group =>   2
Atom  41C    basis set group =>   1
Atom  42H    basis set group =>   3
Atom  43H    basis set group =>   3
Atom  44H    basis set group =>   3
Atom  45H    basis set group =>   3
Atom  46H    basis set group =>   3
Atom  47H    basis set group =>   3
Atom  48H    basis set group =>   3
Atom  49H    basis set group =>   3
Atom  50H    basis set group =>   3
Atom  51H    basis set group =>   3
Atom  52H    basis set group =>   3
Atom  53H    basis set group =>   3
Atom  54H    basis set group =>   3
Atom  55H    basis set group =>   3
Atom  56H    basis set group =>   3
Atom  57H    basis set group =>   3
Atom  58H    basis set group =>   3
Atom  59H    basis set group =>   3
Atom  60H    basis set group =>   3
Atom  61H    basis set group =>   3
Atom  62H    basis set group =>   3
Atom  63H    basis set group =>   3
Atom  64H    basis set group =>   3
Atom  65H    basis set group =>   3
Atom  66H    basis set group =>   3
Atom  67H    basis set group =>   3
Atom  68H    basis set group =>   3
Atom  69H    basis set group =>   3
Atom  70H    basis set group =>   3
Atom  71H    basis set group =>   3
Atom  72H    basis set group =>   3
Atom  73H    basis set group =>   3
Atom  74H    basis set group =>   3
Atom  75H    basis set group =>   3
Atom  76H    basis set group =>   3
Atom  77H    basis set group =>   3
Atom  78H    basis set group =>   3
Atom  79H    basis set group =>   3
Atom  80H    basis set group =>   3
Atom  81H    basis set group =>   3
---------------------------------
AUXILIARY/C BASIS SET INFORMATION
---------------------------------
There are 3 groups of distinct atoms

 Group   1 Type C   : 15s13p12d5f5g contracted to 15s13p12d5f5g pattern {111111111111111/1111111111111/111111111111/11111/11111}
 Group   2 Type O   : 15s13p12d5f5g contracted to 15s13p12d5f5g pattern {111111111111111/1111111111111/111111111111/11111/11111}
 Group   3 Type H   : 12s4p3d2f contracted to 12s4p3d2f pattern {111111111111/1111/111/11}

Atom   0C    basis set group =>   1
Atom   1C    basis set group =>   1
Atom   2C    basis set group =>   1
Atom   3C    basis set group =>   1
Atom   4C    basis set group =>   1
Atom   5C    basis set group =>   1
Atom   6C    basis set group =>   1
Atom   7C    basis set group =>   1
Atom   8C    basis set group =>   1
Atom   9C    basis set group =>   1
Atom  10C    basis set group =>   1
Atom  11C    basis set group =>   1
Atom  12C    basis set group =>   1
Atom  13C    basis set group =>   1
Atom  14C    basis set group =>   1
Atom  15C    basis set group =>   1
Atom  16C    basis set group =>   1
Atom  17C    basis set group =>   1
Atom  18O    basis set group =>   2
Atom  19O    basis set group =>   2
Atom  20O    basis set group =>   2
Atom  21O    basis set group =>   2
Atom  22O    basis set group =>   2
Atom  23C    basis set group =>   1
Atom  24C    basis set group =>   1
Atom  25C    basis set group =>   1
Atom  26C    basis set group =>   1
Atom  27O    basis set group =>   2
Atom  28C    basis set group =>   1
Atom  29C    basis set group =>   1
Atom  30C    basis set group =>   1
Atom  31C    basis set group =>   1
Atom  32C    basis set group =>   1
Atom  33C    basis set group =>   1
Atom  34C    basis set group =>   1
Atom  35C    basis set group =>   1
Atom  36O    basis set group =>   2
Atom  37O    basis set group =>   2
Atom  38O    basis set group =>   2
Atom  39O    basis set group =>   2
Atom  40O    basis set group =>   2
Atom  41C    basis set group =>   1
Atom  42H    basis set group =>   3
Atom  43H    basis set group =>   3
Atom  44H    basis set group =>   3
Atom  45H    basis set group =>   3
Atom  46H    basis set group =>   3
Atom  47H    basis set group =>   3
Atom  48H    basis set group =>   3
Atom  49H    basis set group =>   3
Atom  50H    basis set group =>   3
Atom  51H    basis set group =>   3
Atom  52H    basis set group =>   3
Atom  53H    basis set group =>   3
Atom  54H    basis set group =>   3
Atom  55H    basis set group =>   3
Atom  56H    basis set group =>   3
Atom  57H    basis set group =>   3
Atom  58H    basis set group =>   3
Atom  59H    basis set group =>   3
Atom  60H    basis set group =>   3
Atom  61H    basis set group =>   3
Atom  62H    basis set group =>   3
Atom  63H    basis set group =>   3
Atom  64H    basis set group =>   3
Atom  65H    basis set group =>   3
Atom  66H    basis set group =>   3
Atom  67H    basis set group =>   3
Atom  68H    basis set group =>   3
Atom  69H    basis set group =>   3
Atom  70H    basis set group =>   3
Atom  71H    basis set group =>   3
Atom  72H    basis set group =>   3
Atom  73H    basis set group =>   3
Atom  74H    basis set group =>   3
Atom  75H    basis set group =>   3
Atom  76H    basis set group =>   3
Atom  77H    basis set group =>   3
Atom  78H    basis set group =>   3
Atom  79H    basis set group =>   3
Atom  80H    basis set group =>   3
Atom  81H    basis set group =>   3
----------------------------------
AUXILIARY/JK BASIS SET INFORMATION
----------------------------------
There are 3 groups of distinct atoms

 Group   1 Type C   : 15s13p12d5f5g contracted to 15s13p12d5f5g pattern {111111111111111/1111111111111/111111111111/11111/11111}
 Group   2 Type O   : 15s13p12d5f5g contracted to 15s13p12d5f5g pattern {111111111111111/1111111111111/111111111111/11111/11111}
 Group   3 Type H   : 12s4p3d2f contracted to 12s4p3d2f pattern {111111111111/1111/111/11}

Atom   0C    basis set group =>   1
Atom   1C    basis set group =>   1
Atom   2C    basis set group =>   1
Atom   3C    basis set group =>   1
Atom   4C    basis set group =>   1
Atom   5C    basis set group =>   1
Atom   6C    basis set group =>   1
Atom   7C    basis set group =>   1
Atom   8C    basis set group =>   1
Atom   9C    basis set group =>   1
Atom  10C    basis set group =>   1
Atom  11C    basis set group =>   1
Atom  12C    basis set group =>   1
Atom  13C    basis set group =>   1
Atom  14C    basis set group =>   1
Atom  15C    basis set group =>   1
Atom  16C    basis set group =>   1
Atom  17C    basis set group =>   1
Atom  18O    basis set group =>   2
Atom  19O    basis set group =>   2
Atom  20O    basis set group =>   2
Atom  21O    basis set group =>   2
Atom  22O    basis set group =>   2
Atom  23C    basis set group =>   1
Atom  24C    basis set group =>   1
Atom  25C    basis set group =>   1
Atom  26C    basis set group =>   1
Atom  27O    basis set group =>   2
Atom  28C    basis set group =>   1
Atom  29C    basis set group =>   1
Atom  30C    basis set group =>   1
Atom  31C    basis set group =>   1
Atom  32C    basis set group =>   1
Atom  33C    basis set group =>   1
Atom  34C    basis set group =>   1
Atom  35C    basis set group =>   1
Atom  36O    basis set group =>   2
Atom  37O    basis set group =>   2
Atom  38O    basis set group =>   2
Atom  39O    basis set group =>   2
Atom  40O    basis set group =>   2
Atom  41C    basis set group =>   1
Atom  42H    basis set group =>   3
Atom  43H    basis set group =>   3
Atom  44H    basis set group =>   3
Atom  45H    basis set group =>   3
Atom  46H    basis set group =>   3
Atom  47H    basis set group =>   3
Atom  48H    basis set group =>   3
Atom  49H    basis set group =>   3
Atom  50H    basis set group =>   3
Atom  51H    basis set group =>   3
Atom  52H    basis set group =>   3
Atom  53H    basis set group =>   3
Atom  54H    basis set group =>   3
Atom  55H    basis set group =>   3
Atom  56H    basis set group =>   3
Atom  57H    basis set group =>   3
Atom  58H    basis set group =>   3
Atom  59H    basis set group =>   3
Atom  60H    basis set group =>   3
Atom  61H    basis set group =>   3
Atom  62H    basis set group =>   3
Atom  63H    basis set group =>   3
Atom  64H    basis set group =>   3
Atom  65H    basis set group =>   3
Atom  66H    basis set group =>   3
Atom  67H    basis set group =>   3
Atom  68H    basis set group =>   3
Atom  69H    basis set group =>   3
Atom  70H    basis set group =>   3
Atom  71H    basis set group =>   3
Atom  72H    basis set group =>   3
Atom  73H    basis set group =>   3
Atom  74H    basis set group =>   3
Atom  75H    basis set group =>   3
Atom  76H    basis set group =>   3
Atom  77H    basis set group =>   3
Atom  78H    basis set group =>   3
Atom  79H    basis set group =>   3
Atom  80H    basis set group =>   3
Atom  81H    basis set group =>   3
---------------------------------
AUXILIARY/X BASIS SET INFORMATION
---------------------------------
There are 3 groups of distinct atoms

 Group   1 Type C   : 15s13p12d5f5g contracted to 15s13p12d5f5g pattern {111111111111111/1111111111111/111111111111/11111/11111}
 Group   2 Type O   : 15s13p12d5f5g contracted to 15s13p12d5f5g pattern {111111111111111/1111111111111/111111111111/11111/11111}
 Group   3 Type H   : 12s4p3d2f contracted to 12s4p3d2f pattern {111111111111/1111/111/11}

Atom   0C    basis set group =>   1
Atom   1C    basis set group =>   1
Atom   2C    basis set group =>   1
Atom   3C    basis set group =>   1
Atom   4C    basis set group =>   1
Atom   5C    basis set group =>   1
Atom   6C    basis set group =>   1
Atom   7C    basis set group =>   1
Atom   8C    basis set group =>   1
Atom   9C    basis set group =>   1
Atom  10C    basis set group =>   1
Atom  11C    basis set group =>   1
Atom  12C    basis set group =>   1
Atom  13C    basis set group =>   1
Atom  14C    basis set group =>   1
Atom  15C    basis set group =>   1
Atom  16C    basis set group =>   1
Atom  17C    basis set group =>   1
Atom  18O    basis set group =>   2
Atom  19O    basis set group =>   2
Atom  20O    basis set group =>   2
Atom  21O    basis set group =>   2
Atom  22O    basis set group =>   2
Atom  23C    basis set group =>   1
Atom  24C    basis set group =>   1
Atom  25C    basis set group =>   1
Atom  26C    basis set group =>   1
Atom  27O    basis set group =>   2
Atom  28C    basis set group =>   1
Atom  29C    basis set group =>   1
Atom  30C    basis set group =>   1
Atom  31C    basis set group =>   1
Atom  32C    basis set group =>   1
Atom  33C    basis set group =>   1
Atom  34C    basis set group =>   1
Atom  35C    basis set group =>   1
Atom  36O    basis set group =>   2
Atom  37O    basis set group =>   2
Atom  38O    basis set group =>   2
Atom  39O    basis set group =>   2
Atom  40O    basis set group =>   2
Atom  41C    basis set group =>   1
Atom  42H    basis set group =>   3
Atom  43H    basis set group =>   3
Atom  44H    basis set group =>   3
Atom  45H    basis set group =>   3
Atom  46H    basis set group =>   3
Atom  47H    basis set group =>   3
Atom  48H    basis set group =>   3
Atom  49H    basis set group =>   3
Atom  50H    basis set group =>   3
Atom  51H    basis set group =>   3
Atom  52H    basis set group =>   3
Atom  53H    basis set group =>   3
Atom  54H    basis set group =>   3
Atom  55H    basis set group =>   3
Atom  56H    basis set group =>   3
Atom  57H    basis set group =>   3
Atom  58H    basis set group =>   3
Atom  59H    basis set group =>   3
Atom  60H    basis set group =>   3
Atom  61H    basis set group =>   3
Atom  62H    basis set group =>   3
Atom  63H    basis set group =>   3
Atom  64H    basis set group =>   3
Atom  65H    basis set group =>   3
Atom  66H    basis set group =>   3
Atom  67H    basis set group =>   3
Atom  68H    basis set group =>   3
Atom  69H    basis set group =>   3
Atom  70H    basis set group =>   3
Atom  71H    basis set group =>   3
Atom  72H    basis set group =>   3
Atom  73H    basis set group =>   3
Atom  74H    basis set group =>   3
Atom  75H    basis set group =>   3
Atom  76H    basis set group =>   3
Atom  77H    basis set group =>   3
Atom  78H    basis set group =>   3
Atom  79H    basis set group =>   3
Atom  80H    basis set group =>   3
Atom  81H    basis set group =>   3
--------------------------------------------------------------------------
WARNING: There was an error initializing an OpenFabrics device.

  Local host:   c08b01n08
  Local device: mlx5_0
--------------------------------------------------------------------------
--------------------------------------------------------------------------
WARNING: There is at least one non-excluded one OpenFabrics device found,
but there are no active ports detected (or Open MPI was unable to use
them).  This is most certainly not what you wanted.  Check your
cables, subnet manager configuration, etc.  The openib BTL will be
ignored for this job.

  Local host: c08b01n08
--------------------------------------------------------------------------
[c08b01n08:1523772] 47 more processes have sent help message help-mpi-btl-openib.txt / error in device init
[c08b01n08:1523772] Set MCA parameter "orte_base_help_aggregate" to 0 to see all help / error messages
[c08b01n08:1523772] 11 more processes have sent help message help-mpi-btl-openib.txt / no active ports found


           ************************************************************
           *        Program running with 60 parallel MPI-processes    *
           *              working on a common directory               *
           ************************************************************
------------------------------------------------------------------------------
                             ORCA STARTUP CALCULATIONS
                           -- RI-GTO INTEGRALS CHOSEN --
------------------------------------------------------------------------------
------------------------------------------------------------------------------
                   ___                                                        
                  /   \      - P O W E R E D   B Y -                         
                 /     \                                                     
                 |  |  |   _    _      __       _____    __    __             
                 |  |  |  | |  | |    /  \     |  _  \  |  |  /  |          
                  \  \/   | |  | |   /    \    | | | |  |  | /  /          
                 / \  \   | |__| |  /  /\  \   | |_| |  |  |/  /          
                |  |  |   |  __  | /  /__\  \  |    /   |      \           
                |  |  |   | |  | | |   __   |  |    \   |  |\   \          
                \     /   | |  | | |  |  |  |  | |\  \  |  | \   \       
                 \___/    |_|  |_| |__|  |__|  |_| \__\ |__|  \__/        
                                                                              
                      - O R C A' S   B I G   F R I E N D -                    
                                      &                                       
                       - I N T E G R A L  F E E D E R -                       
                                                                              
 v1 FN, 2020, v2 2021, v3 2022-2024                                           
------------------------------------------------------------------------------


----------------------
SHARK INTEGRAL PACKAGE
----------------------

Number of atoms                             ...     82
Number of basis functions                   ...   2072
Number of shells                            ...    744
Maximum angular momentum                    ...      3
Integral batch strategy                     ... SHARK/LIBINT Hybrid
RI-J (if used) integral strategy            ... SPLIT-RIJ (Revised 2003 algorithm where possible)
Printlevel                                  ...      1
Contraction scheme used                     ... SEGMENTED contraction
Prescreening option                         ... SCHWARTZ
   Thresh                                   ... 1.000e-10
   Tcut                                     ... 1.000e-11
   Tpresel                                  ... 1.000e-11 
Coulomb Range Separation                    ... NOT USED
Exchange Range Separation                   ... NOT USED
Multipole approximations                    ... NOT USED
Finite Nucleus Model                        ... NOT USED
CABS basis                                  ... NOT available
Auxiliary Coulomb fitting basis             ... AVAILABLE
   # of basis functions in Aux-J            ...  10268
   # of shells in Aux-J                     ...   2940
   Maximum angular momentum in Aux-J        ...      4
Auxiliary J/K fitting basis                 ... AVAILABLE
   # of basis functions in Aux-JK           ...  10268
   # of shells in Aux-JK                    ...   2940
   Maximum angular momentum in Aux-JK       ...      4
Auxiliary Correlation fitting basis         ... AVAILABLE
   # of basis functions in Aux-C            ...  10268
   # of shells in Aux-C                     ...   2940
   Maximum angular momentum in Aux-C        ...      4
Auxiliary 'external' fitting basis          ... NOT available

Checking pre-screening integrals            ... done (  0.1 sec) Dimension = 744
   => SHARK Basis and OBASIS are compatible. Storing Pre-screening
Shell pair information
Shell pair cut-off parameter TPreSel        ...   1.0e-11
Total number of shell pairs                 ...    277140
Shell pairs after pre-screening             ...    152905
Total number of primitive shell pairs       ...    823733
Primitive shell pairs kept                  ...    280003
          la=0 lb=0:  29107 shell pairs
          la=1 lb=0:  50833 shell pairs
          la=1 lb=1:  20733 shell pairs
          la=2 lb=0:  20058 shell pairs
          la=2 lb=1:  15212 shell pairs
          la=2 lb=2:   2704 shell pairs
          la=3 lb=0:   6911 shell pairs
          la=3 lb=1:   5193 shell pairs
          la=3 lb=2:   1821 shell pairs
          la=3 lb=3:    333 shell pairs

Checking whether 4 symmetric matrices of dimension 2072 fit in memory
:Max Core in MB      =   5000.00
 MB in use           =    188.62
 MB left             =   4811.38
 MB needed           =     65.54
 Data fit in memory  = YES
Calculating RI/J V-Matrix + Cholesky decomp.... done ( 10.0 sec)
Calculating RI/JK V-Matrix + Cholesky decomp.... done (  3.9 sec)
Calculating RI/C V-Matrix + Cholesky decomp.... done (  3.9 sec)
Calculating Nuclear repulsion               ... done (  0.0 sec) ENN=   5754.994012182328 Eh

Diagonalization of the overlap matrix:
Smallest eigenvalue                        ... 6.558e-06
Time for diagonalization                   ...    2.322 sec
Threshold for overlap eigenvalues          ... 1.000e-07
Number of eigenvalues below threshold      ... 0
Time for construction of square roots      ...    0.743 sec
Total time needed                          ...    3.176 sec

-------------------
DFT GRID GENERATION
-------------------

General Integration Accuracy     IntAcc      ... 4.388
Radial Grid Type                 RadialGrid  ... OptM3 with GC (2021)
Angular Grid (max. ang.)         AngularGrid ... 4 (Lebedev-302)
Angular grid pruning method      GridPruning ... 4 (adaptive)
Weight generation scheme         WeightScheme... mBecke (2022)
Basis function cutoff            BFCut       ... 1.0000e-10
Integration weight cutoff        WCut        ... 1.0000e-14
Partially contracted basis set               ... off
Rotationally invariant grid construction     ... off
Angular grids for H and He will be reduced by one unit
Diffuse basis detected: some atoms will have their outermost
                        angular grid increased by 1.

Total number of grid points                  ...   376426
Total number of batches                      ...     5924
Average number of points per batch           ...       63
Average number of grid points per atom       ...     4591
Grids setup in   5.1 sec
Initializing property integral containers    ... done (  0.2 sec)

SHARK setup successfully completed in  46.2 seconds

Maximum memory used throughout the entire STARTUP-calculation: 260.7 MB
--------------------------------------------------------------------------
WARNING: There was an error initializing an OpenFabrics device.

  Local host:   c08b01n08
  Local device: mlx5_0
--------------------------------------------------------------------------
--------------------------------------------------------------------------
WARNING: There is at least one non-excluded one OpenFabrics device found,
but there are no active ports detected (or Open MPI was unable to use
them).  This is most certainly not what you wanted.  Check your
cables, subnet manager configuration, etc.  The openib BTL will be
ignored for this job.

  Local host: c08b01n08
--------------------------------------------------------------------------


           ************************************************************
           *        Program running with 60 parallel MPI-processes    *
           *              working on a common directory               *
           ************************************************************
-------------------------------------------------------------------------------
                                 ORCA GUESS
                   Start orbitals & Density for SCF / CASSCF
-------------------------------------------------------------------------------

------------
SCF SETTINGS
------------
Hamiltonian:
 Density Functional     Method          .... DFT(GTOs)
 Exchange Functional    Exchange        .... TPSS
 Correlation Functional Correlation     .... TPSS
 LDA part of GGA corr.  LDAOpt          .... PW91-LDA
 Gradients option       PostSCFGGA      .... off
   NL short-range parameter             ....  5.000000
 RI-approximation to the Coulomb term is turned on
   Number of AuxJ basis functions       .... 10268


General Settings:
 Integral files         IntName         .... nmr-conf-14
 Hartree-Fock type      HFTyp           .... RHF
 Total Charge           Charge          ....    0
 Multiplicity           Mult            ....    1
 Number of Electrons    NEL             ....  314
 Basis Dimension        Dim             .... 2072
 Nuclear Repulsion      ENuc            ....   5754.9940121823 Eh

Convergence Acceleration:
 AO-DIIS                CNVDIIS         .... on
   Start iteration      DIISMaxIt       ....    12
   Startup error        DIISStart       ....  0.200000
   # of expansion vecs  DIISMaxEq       ....     5
   Bias factor          DIISBfac        ....   1.050
   Max. coefficient     DIISMaxC        ....  10.000
 MO-DIIS                CNVKDIIS        .... off
 Trust-Rad. Augm. Hess. CNVTRAH         .... auto
   Auto Start mean grad. ratio tolernc. ....  1.125000
   Auto Start start iteration           ....    50
   Auto Start num. interpolation iter.  ....    10
   Max. Number of Micro iterations      ....    24
   Max. Number of Macro iterations      .... Maxiter - #DIIS iter
   Number of Davidson start vectors     ....     2
   Converg. threshold    (grad. norm)   ....   5.000e-05
   Grad. Scal. Fac. for Micro threshold ....   0.100
   Minimum threshold for Micro iter.    ....   1.000e-02
   NR start threshold (gradient norm)   ....   1.000e-04
   Initial trust radius                 ....   0.400
   Minimum AH scaling param. (alpha)    ....   1.000
   Maximum AH scaling param. (alpha)    .... 1000.000
   Quad. conv. algorithm                .... NR
   White noise on init. David. guess    .... on
   Maximum white noise                  ....   0.010
   Pseudo random numbers                .... off
   Inactive MOs                         .... canonical
   Orbital update algorithm             .... Taylor
   Preconditioner                       .... Diag
   Full preconditioner red. dimension   ....   250
 SOSCF                 CNVSOSCF           .... on
   Start iteration     SOSCFMaxIt         ....   150
   Startup grad/error  SOSCFStart         ....  0.003300
   Hessian update      SOSCFHessUp        .... L-BFGS
   Autom. constraints  SOSCFAutoConstrain .... off
 Level Shifting         CNVShift        .... on
   Level shift para.    LevelShift      ....    0.2500
   Turn off err/grad.   ShiftErr        ....    0.0010
 Zerner damping         CNVZerner       .... off
 Static damping         CNVDamp         .... on
   Fraction old density DampFac         ....    0.7000
   Max. Damping (<1)    DampMax         ....    0.9800
   Min. Damping (>=0)   DampMin         ....    0.0000
   Turn off err/grad.   DampErr         ....    0.1000

SCF Procedure:
 Maximum # iterations   MaxIter         ....   125
 SCF integral mode      SCFMode         .... Direct
   Integral package                     .... SHARK and LIBINT hybrid scheme
 Reset frequency        DirectResetFreq ....    20
 Integral Threshold     Thresh          ....  1.000e-10 Eh
 Primitive CutOff       TCut            ....  1.000e-11 Eh

Convergence Tolerance:
 Convergence Check Mode ConvCheckMode   .... Total+1el-Energy
 Convergence forced     ConvForced      .... 0
 Energy Change          TolE            ....  1.000e-06 Eh
 1-El. energy change                    ....  1.000e-03 Eh
 Orbital Gradient       TolG            ....  5.000e-05
 Orbital Rotation angle TolX            ....  5.000e-05
 DIIS Error             TolErr          ....  1.000e-06

------------------------------
INITIAL GUESS: MODEL POTENTIAL
------------------------------
Loading Hartree-Fock densities                     ... done
Calculating cut-offs                               ... done
Initializing the effective Hamiltonian             ... done
Setting up the integral package (SHARK)            ... done
Starting the Coulomb interaction                   ... [c08b01n08:1524209] 49 more processes have sent help message help-mpi-btl-openib.txt / error in device init
[c08b01n08:1524209] Set MCA parameter "orte_base_help_aggregate" to 0 to see all help / error messages
[c08b01n08:1524209] 9 more processes have sent help message help-mpi-btl-openib.txt / no active ports found
done (   4.5 sec)
Making the grid                                    ... done (   0.6 sec)
Mapping shells                                     ... done
Starting the XC term evaluation                    ... done (   1.6 sec)
  promolecular density results
     # of electrons  =    313.968571571
     EX              =   -260.299761621
     EC              =    -10.648370930
     EX+EC           =   -270.948132551
Transforming the Hamiltonian                       ... done (   0.3 sec)
Diagonalizing the Hamiltonian                      ... done (   0.6 sec)
Back transforming the eigenvectors                 ... done (   0.2 sec)
Now organizing SCF variables                       ... done
                      ------------------
                      INITIAL GUESS DONE (   8.7 sec)
                      ------------------
             **** ENERGY FILE WAS UPDATED (nmr-conf-14.en.tmp) ****
Finished Guess after  14.8 sec
Maximum memory used throughout the entire GUESS-calculation: 291.7 MB
--------------------------------------------------------------------------
WARNING: There is at least one non-excluded one OpenFabrics device found,
but there are no active ports detected (or Open MPI was unable to use
them).  This is most certainly not what you wanted.  Check your
cables, subnet manager configuration, etc.  The openib BTL will be
ignored for this job.

  Local host: c08b01n08
--------------------------------------------------------------------------
--------------------------------------------------------------------------
WARNING: There was an error initializing an OpenFabrics device.

  Local host:   c08b01n08
  Local device: mlx5_0
--------------------------------------------------------------------------


           ************************************************************
           *        Program running with 60 parallel MPI-processes    *
           *              working on a common directory               *
           ************************************************************

-------------------------------------------------------------------------------------------
                                      ORCA LEAN-SCF
                              memory conserving SCF solver
-------------------------------------------------------------------------------------------

--------------------
CPCM SOLVATION MODEL
--------------------
CPCM parameters:
  Epsilon                                         ...      33.4280
  Refrac                                          ...       1.3288
  Rsolv                                           ...       1.3000
  Surface type                                    ... GAUSSIAN VDW
  Discretization scheme                           ... Constant charge density
    Threshold for H atoms                         ...       5.0000 (charges/Ang^2)
    Threshold for non-H atoms                     ...       5.0000 (charges/Ang^2)
  Epsilon function type                           ...         CPCM
Solvent:                                          ... METHANOL
Radii:
  Scheme                                          ... Element-dependent radii
  Radius for C  used is    3.8550 Bohr (=   2.0400 Ang.)
  Radius for O  used is    3.4469 Bohr (=   1.8240 Ang.)
  Radius for H  used is    2.4944 Bohr (=   1.3200 Ang.)
Calculating surface                               ...        [c08b01n08:1524621] 9 more processes have sent help message help-mpi-btl-openib.txt / no active ports found
[c08b01n08:1524621] Set MCA parameter "orte_base_help_aggregate" to 0 to see all help / error messages
[c08b01n08:1524621] 49 more processes have sent help message help-mpi-btl-openib.txt / error in device init
done! (  0.2s)
Cavity surface points                             ...         6140
Cavity Volume                                     ...    4567.2486
Cavity Surface-area                               ...    2037.0736
Calculating surface distance matrix               ...        done! (  0.2s)
Performing Cholesky decomposition & store         ...        done! (  0.6s)
Overall time for CPCM initialization              ...                 1.3s

----------------------------------------D-I-I-S--------------------------------------------
Iteration    Energy (Eh)           Delta-E    RMSDP     MaxDP     DIISErr   Damp  Time(sec)
-------------------------------------------------------------------------------------------
               ***  Starting incremental Fock matrix formation  ***
    1    -2033.0357516150761512     0.00e+00  8.12e-03  2.83e-01  2.44e-01  0.700  15.9
    2    -2033.4361448677300359    -4.00e-01  6.72e-03  2.17e-01  8.73e-02  0.700  15.7
                               ***Turning on AO-DIIS***
    3    -2033.5867664327515740    -1.51e-01  2.86e-03  6.37e-02  2.49e-02  0.700  14.0
    4    -2033.6775888677057083    -9.08e-02  4.81e-03  6.61e-02  1.17e-02  0.000   7.9
    5    -2033.8783603193141971    -2.01e-01  1.27e-03  3.37e-02  4.67e-03  0.000   8.3
                              *** Initializing SOSCF ***
---------------------------------------S-O-S-C-F--------------------------------------
Iteration    Energy (Eh)           Delta-E    RMSDP     MaxDP     MaxGrad    Time(sec)
--------------------------------------------------------------------------------------
    6    -2033.8796888643446437    -1.33e-03  4.07e-04  9.19e-03  1.45e-03    10.1
               *** Restarting incremental Fock matrix formation ***
    7    -2033.8797924603959473    -1.04e-04  3.03e-04  5.59e-03  1.41e-04    11.2
    8    -2033.8797678512019047     2.46e-05  7.45e-05  2.00e-03  6.66e-04     6.3
    9    -2033.8798076926259455    -3.98e-05  6.82e-05  1.13e-03  1.25e-04     6.0
   10    -2033.8798077957508212    -1.03e-07  2.13e-05  6.41e-04  1.31e-04     6.5
                 **** Energy Check signals convergence ****

               *****************************************************
               *                     SUCCESS                       *
               *           SCF CONVERGED AFTER  10 CYCLES          *
               *****************************************************

             **** ENERGY FILE WAS UPDATED (nmr-conf-14.en.tmp) ****

----------------
TOTAL SCF ENERGY
----------------

Total Energy       :      -2033.87980821580186 Eh          -55344.68325 eV

Components:
Nuclear Repulsion  :       5754.99401218232833 Eh          156601.34853 eV
Electronic Energy  :      -7788.82732816731186 Eh         -211944.76666 eV
One Electron Energy:     -14236.41594469080155 Eh         -387392.57251 eV
Two Electron Energy:       6447.58861652348969 Eh          175447.80585 eV
CPCM Dielectric    :         -0.04649223081818 Eh              -1.26512 eV

Virial components:
Potential Energy   :      -4061.12348105354067 Eh         -110508.78808 eV
Kinetic Energy     :       2027.24367283773904 Eh           55164.10483 eV
Virial Ratio       :          2.00327347692188

DFT components:
N(Alpha)           :      157.000711736583 electrons
N(Beta)            :      157.000711736583 electrons
N(Total)           :      314.001423473166 electrons
E(X)               :     -268.093711549078 Eh       
E(C)               :      -10.608774917811 Eh       
E(XC)              :     -278.702486466889 Eh       

CPCM Solvation Model Properties:
Surface-charge          :         -0.04285703791433
Corrected charge        :         -0.00000000000000
Outlying charge corr.   :          0.00008011535935 Eh               0.00218 eV
Free-energy (cav+disp)  :  This term is not implemented in the current solvation scheme

---------------
SCF CONVERGENCE
---------------

  Last Energy change         ...    1.0312e-07  Tolerance :   1.0000e-06
  Last MAX-Density change    ...    6.4072e-04  Tolerance :   1.0000e-05
  Last RMS-Density change    ...    2.1251e-05  Tolerance :   1.0000e-06
  Last DIIS Error            ...    1.4529e-03  Tolerance :   1.0000e-06
  Last Orbital Gradient      ...    1.3063e-04  Tolerance :   5.0000e-05
  Last Orbital Rotation      ...    2.7193e-04  Tolerance :   5.0000e-05


----------------
ORBITAL ENERGIES
----------------

  NO   OCC          E(Eh)            E(eV) 
   0   2.0000     -18.922460      -514.9063 
   1   2.0000     -18.919209      -514.8178 
   2   2.0000     -18.918570      -514.8005 
   3   2.0000     -18.918360      -514.7947 
   4   2.0000     -18.913301      -514.6571 
   5   2.0000     -18.910402      -514.5782 
   6   2.0000     -18.904067      -514.4058 
   7   2.0000     -18.880444      -513.7630 
   8   2.0000     -18.880277      -513.7585 
   9   2.0000     -18.877429      -513.6810 
  10   2.0000     -18.860608      -513.2232 
  11   2.0000     -10.046637      -273.3829 
  12   2.0000     -10.046177      -273.3704 
  13   2.0000     -10.045987      -273.3652 
  14   2.0000     -10.045407      -273.3494 
  15   2.0000     -10.045250      -273.3452 
  16   2.0000     -10.044737      -273.3312 
  17   2.0000     -10.042100      -273.2594 
  18   2.0000     -10.041613      -273.2462 
  19   2.0000     -10.036802      -273.1153 
  20   2.0000     -10.034946      -273.0648 
  21   2.0000     -10.034442      -273.0511 
  22   2.0000     -10.034074      -273.0410 
  23   2.0000     -10.033865      -273.0354 
  24   2.0000     -10.030675      -272.9485 
  25   2.0000     -10.025826      -272.8166 
  26   2.0000     -10.020257      -272.6651 
  27   2.0000      -9.993693      -271.9422 
  28   2.0000      -9.992659      -271.9141 
  29   2.0000      -9.988922      -271.8124 
  30   2.0000      -9.988583      -271.8032 
  31   2.0000      -9.987632      -271.7773 
  32   2.0000      -9.986468      -271.7456 
  33   2.0000      -9.985563      -271.7210 
  34   2.0000      -9.984343      -271.6878 
  35   2.0000      -9.984065      -271.6802 
  36   2.0000      -9.984052      -271.6799 
  37   2.0000      -9.983917      -271.6762 
  38   2.0000      -9.983104      -271.6541 
  39   2.0000      -9.979568      -271.5578 
  40   2.0000      -9.978411      -271.5264 
  41   2.0000      -9.976697      -271.4797 
  42   2.0000      -1.015876       -27.6434 
  43   2.0000      -1.012610       -27.5545 
  44   2.0000      -1.011882       -27.5347 
  45   2.0000      -1.001270       -27.2460 
  46   2.0000      -0.990449       -26.9515 
  47   2.0000      -0.984639       -26.7934 
  48   2.0000      -0.984134       -26.7797 
  49   2.0000      -0.956408       -26.0252 
  50   2.0000      -0.954573       -25.9752 
  51   2.0000      -0.950630       -25.8679 
  52   2.0000      -0.932596       -25.3772 
  53   2.0000      -0.799043       -21.7431 
  54   2.0000      -0.798001       -21.7147 
  55   2.0000      -0.795327       -21.6419 
  56   2.0000      -0.759571       -20.6690 
  57   2.0000      -0.734121       -19.9765 
  58   2.0000      -0.719489       -19.5783 
  59   2.0000      -0.703734       -19.1496 
  60   2.0000      -0.700806       -19.0699 
  61   2.0000      -0.699558       -19.0359 
  62   2.0000      -0.697367       -18.9763 
  63   2.0000      -0.688608       -18.7380 
  64   2.0000      -0.671584       -18.2747 
  65   2.0000      -0.652524       -17.7561 
  66   2.0000      -0.650796       -17.7090 
  67   2.0000      -0.650337       -17.6966 
  68   2.0000      -0.640424       -17.4268 
  69   2.0000      -0.620648       -16.8887 
  70   2.0000      -0.617705       -16.8086 
  71   2.0000      -0.609979       -16.5984 
  72   2.0000      -0.580437       -15.7945 
  73   2.0000      -0.567068       -15.4307 
  74   2.0000      -0.560746       -15.2587 
  75   2.0000      -0.559623       -15.2281 
  76   2.0000      -0.549643       -14.9566 
  77   2.0000      -0.546204       -14.8630 
  78   2.0000      -0.543731       -14.7957 
  79   2.0000      -0.534170       -14.5355 
  80   2.0000      -0.515517       -14.0279 
  81   2.0000      -0.513788       -13.9809 
  82   2.0000      -0.506328       -13.7779 
  83   2.0000      -0.495947       -13.4954 
  84   2.0000      -0.484497       -13.1838 
  85   2.0000      -0.480260       -13.0685 
  86   2.0000      -0.478159       -13.0114 
  87   2.0000      -0.473752       -12.8914 
  88   2.0000      -0.465005       -12.6534 
  89   2.0000      -0.456989       -12.4353 
  90   2.0000      -0.454337       -12.3631 
  91   2.0000      -0.449855       -12.2412 
  92   2.0000      -0.445848       -12.1321 
  93   2.0000      -0.444055       -12.0833 
  94   2.0000      -0.436857       -11.8875 
  95   2.0000      -0.432832       -11.7780 
  96   2.0000      -0.430570       -11.7164 
  97   2.0000      -0.426739       -11.6122 
  98   2.0000      -0.423769       -11.5313 
  99   2.0000      -0.423045       -11.5116 
 100   2.0000      -0.420448       -11.4410 
 101   2.0000      -0.413422       -11.2498 
 102   2.0000      -0.410744       -11.1769 
 103   2.0000      -0.403377       -10.9764 
 104   2.0000      -0.401769       -10.9327 
 105   2.0000      -0.400479       -10.8976 
 106   2.0000      -0.398955       -10.8561 
 107   2.0000      -0.390664       -10.6305 
 108   2.0000      -0.388324       -10.5668 
 109   2.0000      -0.387842       -10.5537 
 110   2.0000      -0.383941       -10.4476 
 111   2.0000      -0.382016       -10.3952 
 112   2.0000      -0.376873       -10.2552 
 113   2.0000      -0.376686       -10.2502 
 114   2.0000      -0.374741       -10.1972 
 115   2.0000      -0.371980       -10.1221 
 116   2.0000      -0.370269       -10.0755 
 117   2.0000      -0.368372       -10.0239 
[...]
  X           0.6873316    0.0594315    0.7239082
  Y          -0.5088961    0.7505380    0.4215655
  Z          -0.5182664   -0.6581493    0.5461130

 --------------
 Nucleus  73H :
 --------------

Diamagnetic contribution to the shielding tensor (ppm) : 
           -80.425         24.441        38.213
          -107.540         63.682        43.656
          -102.401         80.099        11.066

Paramagnetic contribution to the shielding tensor (ppm): 
           107.264        -23.978       -40.353
           108.233        -37.637       -41.697
           100.286        -79.845        19.054

Total shielding tensor (ppm): 
            26.839          0.463        -2.140
             0.693         26.045         1.959
            -2.115          0.254        30.121


 Diagonalized sT*s matrix:
 
 sDSO           -12.457          -32.852           39.633  iso=      -1.892
 sPSO            37.324           59.717           -8.359  iso=      29.561
        ---------------  ---------------  ---------------
 Total           24.866           26.865           31.274  iso=      27.668

 Orientation: 
  X          -0.6231380    0.6655289   -0.4108166
  Y           0.6814641    0.7197780    0.1323871
  Z          -0.3838042    0.1974613    0.9020551

 --------------
 Nucleus  74H :
 --------------

Diamagnetic contribution to the shielding tensor (ppm) : 
          -119.289         48.215        33.578
          -127.321         91.780        31.287
           -17.758         16.516       -28.312

Paramagnetic contribution to the shielding tensor (ppm): 
           142.907        -46.539       -32.797
           128.566        -59.544       -30.584
            18.477        -13.523        54.383

Total shielding tensor (ppm): 
            23.618          1.676         0.782
             1.245         32.236         0.703
             0.718          2.993        26.071


 Diagonalized sT*s matrix:
 
 sDSO          -105.625          -28.342           78.146  iso=     -18.607
 sPSO           128.921           53.951          -45.126  iso=      45.915
        ---------------  ---------------  ---------------
 Total           23.296           25.610           33.020  iso=      27.308

 Orientation: 
  X           0.9762371   -0.1407940    0.1647368
  Y          -0.1212123    0.2753782    0.9536637
  Z          -0.1796351   -0.9509700    0.2517684

 --------------
 Nucleus  75H :
 --------------

Diamagnetic contribution to the shielding tensor (ppm) : 
           118.141        -89.349        24.587
            60.133        -35.440        27.104
           -11.562       -126.333       -47.073

Paramagnetic contribution to the shielding tensor (ppm): 
           -82.232         80.105       -29.340
           -68.850         60.140       -26.649
             7.353        126.838        68.518

Total shielding tensor (ppm): 
            35.909         -9.244        -4.753
            -8.717         24.700         0.455
            -4.209          0.504        21.444


 Diagonalized sT*s matrix:
 
 sDSO           -46.395            4.117           77.906  iso=      11.876
 sPSO            64.776           17.811          -36.162  iso=      15.475
        ---------------  ---------------  ---------------
 Total           18.381           21.928           41.744  iso=      27.351

 Orientation: 
  X           0.4860792    0.1482715   -0.8612448
  Y           0.6355924    0.6163965    0.4648415
  Z           0.5997910   -0.7733504    0.2053774

 --------------
 Nucleus  76H :
 --------------

Diamagnetic contribution to the shielding tensor (ppm) : 
           -82.096         25.156        16.451
          -109.494         82.235         6.895
          -179.775        110.412        -1.257

Paramagnetic contribution to the shielding tensor (ppm): 
           100.946        -31.421       -11.755
           103.126        -47.840       -19.022
           184.397       -120.586        28.869

Total shielding tensor (ppm): 
            18.850         -6.265         4.696
            -6.367         34.395       -12.126
             4.622        -10.174        27.612


 Diagonalized sT*s matrix:
 
 sDSO           -67.417           86.730          -20.430  iso=      -0.372
 sPSO            83.913          -67.375           65.437  iso=      27.325
        ---------------  ---------------  ---------------
 Total           16.496           19.355           45.007  iso=      26.953

 Orientation: 
  X           0.9577726   -0.0037911    0.2875019
  Y           0.2307557    0.6066634   -0.7607308
  Z          -0.1715329    0.7949498    0.5819204

 --------------
 Nucleus  77H :
 --------------

Diamagnetic contribution to the shielding tensor (ppm) : 
           -21.034         49.812        29.593
           -61.968         72.763        39.371
          -167.637        135.414       -13.877

Paramagnetic contribution to the shielding tensor (ppm): 
            62.302        -54.877       -26.846
            58.023        -59.627       -38.070
           169.274       -134.152        35.980

Total shielding tensor (ppm): 
            41.268         -5.064         2.747
            -3.945         13.136         1.301
             1.637          1.262        22.103


 Diagonalized sT*s matrix:
 
 sDSO            42.567           29.413          -34.129  iso=      12.617
 sPSO           -30.394           -7.241           76.289  iso=      12.885
        ---------------  ---------------  ---------------
 Total           12.174           22.172           42.160  iso=      25.502

 Orientation: 
  X          -0.1744094    0.0786309    0.9815287
  Y          -0.9718344   -0.1741895   -0.1587324
  Z           0.1584907   -0.9815677    0.1067965

 --------------
 Nucleus  78H :
 --------------

Diamagnetic contribution to the shielding tensor (ppm) : 
           -80.123         82.173         7.739
          -112.760        118.034        10.418
          -117.477         64.393       -50.304

Paramagnetic contribution to the shielding tensor (ppm): 
           107.330        -75.723       -11.760
           119.852        -96.686       -15.947
           115.577        -68.402        77.971

Total shielding tensor (ppm): 
            27.207          6.450        -4.021
             7.092         21.348        -5.530
            -1.901         -4.008        27.667


 Diagonalized sT*s matrix:
 
 sDSO           106.336         -107.583          -11.146  iso=      -4.131
 sPSO           -90.011          132.257           46.368  iso=      29.538
        ---------------  ---------------  ---------------
 Total           16.326           24.674           35.222  iso=      25.407

 Orientation: 
  X           0.4558129    0.6234530   -0.6352488
  Y          -0.8589762    0.1211073   -0.4974865
  Z          -0.2332262    0.7724244    0.5907335

 --------------
 Nucleus  79H :
 --------------

Diamagnetic contribution to the shielding tensor (ppm) : 
           -50.186         13.105        39.088
           -78.698         57.607        37.523
           134.346       -173.428       -75.698

Paramagnetic contribution to the shielding tensor (ppm): 
            77.225        -13.183       -39.642
            79.444        -31.903       -37.891
          -134.371        175.204       106.076

Total shielding tensor (ppm): 
            27.039         -0.078        -0.554
             0.746         25.704        -0.369
            -0.025          1.776        30.378


 Diagonalized sT*s matrix:
 
 sDSO            91.776          -56.003         -104.050  iso=     -22.759
 sPSO           -66.265           83.118          134.546  iso=      50.466
        ---------------  ---------------  ---------------
 Total           25.511           27.114           30.497  iso=      27.707

 Orientation: 
  X          -0.2379374    0.9690760   -0.0654026
  Y           0.9561527    0.2455380    0.1596344
  Z          -0.1707567    0.0245519    0.9850073

 --------------
 Nucleus  80H :
 --------------

Diamagnetic contribution to the shielding tensor (ppm) : 
          -105.517         40.820        27.081
          -129.869         76.656        19.947
            51.752        -72.599      -107.789

Paramagnetic contribution to the shielding tensor (ppm): 
           133.974        -40.344       -26.579
           132.683        -49.430       -23.132
           -53.038         69.027       134.123

Total shielding tensor (ppm): 
            28.458          0.476         0.503
             2.815         27.226        -3.185
            -1.285         -3.572        26.334


 Diagonalized sT*s matrix:
 
 sDSO           -48.385          -29.573          -58.691  iso=     -45.550
 sPSO            71.629           57.278           89.760  iso=      72.889
        ---------------  ---------------  ---------------
 Total           23.244           27.705           31.068  iso=      27.339

 Orientation: 
  X          -0.1562433   -0.8339966   -0.5291859
  Y           0.6765863    0.2999593   -0.6724994
  Z           0.7195964   -0.4631134    0.5174040

 --------------
 Nucleus  81H :
 --------------

Diamagnetic contribution to the shielding tensor (ppm) : 
          -123.834        -52.132        21.158
          -161.600          1.933         6.726
            65.483       -123.048      -217.668

Paramagnetic contribution to the shielding tensor (ppm): 
           150.249         49.402       -19.417
           159.624         28.976       -11.288
           -62.215        119.763       244.415

Total shielding tensor (ppm): 
            26.415         -2.729         1.741
            -1.975         30.909        -4.562
             3.268         -3.285        26.747


 Diagonalized sT*s matrix:
 
 sDSO          -206.884         -184.446           51.760  iso=    -113.190
 sPSO           230.678          210.106          -17.144  iso=     141.213
        ---------------  ---------------  ---------------
 Total           23.794           25.661           34.616  iso=      28.023

 Orientation: 
  X          -0.5131644    0.7705033    0.3781362
  Y           0.2838854    0.5681442   -0.7724126
  Z           0.8099824    0.2890273    0.5102860



--------------------------------
CHEMICAL SHIELDING SUMMARY (ppm)
--------------------------------


  Nucleus  Element    Isotropic     Anisotropy
  -------  -------  ------------   ------------
      0       C           24.827        122.177 
      1       C           44.637         92.247 
      2       C           25.758        119.949 
      3       C           74.600        126.210 
      4       C           39.011        194.182 
      5       C           76.673        133.973 
      6       C          143.049         32.701 
      7       C          132.565         19.348 
      8       C          128.922         17.646 
      9       C          139.273         29.372 
     10       C           45.688        181.158 
     11       C           68.209        149.972 
     12       C           30.102        119.980 
     13       C           32.768        123.838 
     14       C           67.126        144.866 
     15       C           55.788        147.349 
     16       C          110.686         71.136 
     17       C          106.459         59.916 
     23       C           92.676         33.468 
     24       C          103.653         39.592 
     25       C           42.132        168.989 
     26       C          110.851         57.538 
     28       C           73.595        163.652 
     29       C           30.916        117.606 
     30       C           34.799        117.457 
     31       C           67.508        148.015 
     32       C           63.558        167.422 
     33       C          122.154         73.779 
     34       C          123.728         78.679 
     35       C          123.758         76.761 
     41       C          122.725         75.327 
     42       H           25.533          9.991 
     43       H           26.551          8.623 
     44       H           30.176          7.149 
     45       H           28.748          5.915 
     46       H           30.824          4.307 
     47       H           30.078          6.109 
     48       H           28.511          6.123 
     49       H           28.794          7.695 
     50       H           24.699         10.638 
     51       H           24.794          2.412 
     52       H           24.727          5.521 
     53       H           28.336          5.078 
     54       H           27.671          8.358 
     55       H           27.829          4.848 
     56       H           27.034          6.861 
     57       H           25.370         12.266 
     58       H           26.495          2.575 
     59       H           27.007          5.990 
     60       H           27.392          6.503 
     61       H           27.767          5.653 
     62       H           29.336         13.788 
     63       H           24.535         11.503 
     64       H           25.107          4.599 
     65       H           25.207          6.051 
     66       H           28.723         10.390 
     67       H           27.470          6.747 
     68       H           28.265          8.451 
     69       H           27.894          7.437 
     70       H           27.947          9.727 
     71       H           27.439          9.578 
     72       H           27.673          9.225 
     73       H           27.668          5.408 
     74       H           27.308          8.567 
     75       H           27.351         21.589 
     76       H           26.953         27.082 
     77       H           25.502         24.987 
     78       H           25.407         14.723 
     79       H           27.707          4.184 
     80       H           27.339          5.594 
     81       H           28.023          9.889 


NMR shielding tensor and spin rotation calculation done in   2.4 sec 

Maximum memory used throughout the entire PROP-calculation: 369.6 MB
[c08b01n08:1525868] 10 more processes have sent help message help-mpi-btl-openib.txt / no active ports found
[c08b01n08:1525868] Set MCA parameter "orte_base_help_aggregate" to 0 to see all help / error messages
[c08b01n08:1525868] 48 more processes have sent help message help-mpi-btl-openib.txt / error in device init
--------------------------------------------------------------------------
WARNING: There was an error initializing an OpenFabrics device.

  Local host:   c08b01n08
  Local device: mlx5_0
--------------------------------------------------------------------------
--------------------------------------------------------------------------
WARNING: There is at least one non-excluded one OpenFabrics device found,
but there are no active ports detected (or Open MPI was unable to use
them).  This is most certainly not what you wanted.  Check your
cables, subnet manager configuration, etc.  The openib BTL will be
ignored for this job.

  Local host: c08b01n08
--------------------------------------------------------------------------
[c08b01n08:1526184] 49 more processes have sent help message help-mpi-btl-openib.txt / error in device init
[c08b01n08:1526184] Set MCA parameter "orte_base_help_aggregate" to 0 to see all help / error messages
[c08b01n08:1526184] 9 more processes have sent help message help-mpi-btl-openib.txt / no active ports found

--------------------------------
SUGGESTED CITATIONS FOR THIS RUN
--------------------------------

Below you find a list of papers that are relevant to this ORCA run
We neither can nor want to force you to cite these papers, but we appreciate if you do
You receive ORCA, which is the product of decades of hard work by many enthusiastic individuals, for free
The only thing we kindly ask in return is that you cite our papers,
We deeply appreciate it, if you show your appreciation for ORCA by not just citing the generic ORCA reference.

Please note that relegating all ORCA citations to the supporting information does *not* help us.
SI sections are not indexed - citations you put there will not count into any citation statistics
But we need these citations in order to attract the funding resources that allow us to do what we are doing

Therefore, if you are a happy ORCA user, please consider citing a few of the papers listed below in the main body of your paper

In addition to the list printed below, the program has created the file nmr-conf-14.bibtex that contains the list in bibtex format
You can import this file easily into all common literature databanks and citation aid programs


List of essential papers. We consider these as the minimum necessary citations

  1. Neese, F.
     Software update: the ORCA program system, version 6.0
     WIRES Comput. Molec. Sci. 2025 15(1), e70019
     doi.org/10.1002/wcms.7019

List of papers to cite with high priority. The work reported in these papers was absolutely
necessary for this run to complete.
Our perspective: the developers of density functionals and basis sets usually get cited in chemistry papers
Good! But without the algorithms to do something with them, the functionals or basis sets would not do anything.
Hence, in our opinion, the algorithm design and method developments papers are equally worthy of getting cited

  1. Neese, F.
     An improvement of the resolution of the identity approximation for the formation of the Coulomb matrix
     J. Comp. Chem. 2003 24(14), 1740-1747
     doi.org/10.1002/jcc.10318
  2. Stoychev, G.L.; Auer, A.A.; Neese, F.
     Automatic Generation of Auxiliary Basis Sets
     J. Theo. Comp. Chem. 2017 13 , 554-562
     doi.org/10.1021/acs.jctc.6b01041
  3. Stoychev, G.L.; Auer, A.A.; Izsak, R.; Neese, F.
     Self-Consistent Field Calculation of Nuclear Magnetic Resonance Chemical Shielding Constants Using Gauge-Including Atomic Orbitals and Approximate Two-Electron Integrals
     J. Chem. Theory Comput. 2018 14(2), 619-637
     doi.org/10.1021/acs.jctc.7b01006
  4. Garcia-Rates, M.; Neese, F.
     Effect of the Solute Cavity on the Solvation Energy and its Derivatives within the Framework of the Gaussian Charge Scheme
     J. Comput. Chem. 2020 41 , 922-939
     doi.org/10.1002/jcc.26139
  5. Neese, F.
     The SHARK Integral Generation and Digestion System
     J. Comp. Chem. 2022 44(3), 381
     doi.org/10.1002/jcc.26942

List of suggested additional citations. These are papers that are important in the 'surrounding' of 
of this run, or papers that preceded the highly important papers. If you like your results we are grateful for a citation.

  1. Neese, F.
     The ORCA program system
     WIRES Comput. Molec. Sci. 2012 2(1), 73-78
     doi.org/10.1002/wcms.81
  2. Neese, F.
     Software update: the ORCA program system, version 4.0
     WIRES Comput. Molec. Sci. 2018 8(1), 1-6
     doi.org/10.1002/wcms.1327
  3. Neese, F.; Wennmohs, F.; Becker, U.; Riplinger, C.
     The ORCA quantum chemistry program package
     J. Chem. Phys. 2020 152(22), 224108
     doi.org/10.1063/5.0004608
  4. Neese, F.
     Software update: The ORCA program system—Version 5.0
     WIRES Comput. Molec. Sci. 2022 12(1), e1606
     doi.org/10.1002/wcms.1606

List of optional additional citations

  1. Neese, F.
     Approximate second-order SCF convergence for spin unrestricted wavefunctions
     Chem. Phys. Lett. 2000 325(1-3), 93-98
     doi.org/10.1016/s0009-2614(00)00662-x

Timings for individual modules:

Sum of individual times          ...      324.215 sec (=   5.404 min)
Startup calculation              ...      108.720 sec (=   1.812 min)  33.5 %
SCF iterations                   ...      140.473 sec (=   2.341 min)  43.3 %
Property integrals               ...       52.267 sec (=   0.871 min)  16.1 %
SCF Response                     ...       15.808 sec (=   0.263 min)   4.9 %
Property calculations            ...        6.948 sec (=   0.116 min)   2.1 %
                             ****ORCA TERMINATED NORMALLY****
TOTAL RUN TIME: 0 days 0 hours 5 minutes 54 seconds 284 msec
