
                                 *****************
                                 * O   R   C   A *
                                 *****************

                                            #,                                       
                                            ###                                      
                                            ####                                     
                                            #####                                    
                                            ######                                   
                                           ########,                                 
                                     ,,################,,,,,                         
                               ,,#################################,,                 
                          ,,##########################################,,             
                       ,#########################################, ''#####,          
                    ,#############################################,,   '####,        
                  ,##################################################,,,,####,       
                ,###########''''           ''''###############################       
              ,#####''   ,,,,##########,,,,          '''####'''          '####       
            ,##' ,,,,###########################,,,                        '##       
           ' ,,###''''                  '''############,,,                           
         ,,##''                                '''############,,,,        ,,,,,,###''
      ,#''                                            '''#######################'''  
     '                                                          ''''####''''         
             ,#######,   #######,   ,#######,      ##                                
            ,#'     '#,  ##    ##  ,#'     '#,    #''#        ,####,    ,#,          
            ##       ##  ##   ,#'  ##            #'  '#       #'       ,# #          
            ##       ##  #######   ##           ,######,      #####,      #          
            '#,     ,#'  ##    ##  '#,     ,#' ,#      #,     #,   #      #          
             '#######'   ##     ##  '#######'  #'      '#     '####' #    #          



                #########################################################
                #                        -***-                          #
                #          Department of theory and spectroscopy        #
                #                                                       #
                #                      Frank Neese                      #
                #                                                       #
                #     Directorship, Architecture, Infrastructure        #
                #                    SHARK, DRIVERS                     #
                #        Core code/Algorithms in most modules           #
                #                                                       #
                #        Max Planck Institute fuer Kohlenforschung      #
                #                Kaiser Wilhelm Platz 1                 #
                #                 D-45470 Muelheim/Ruhr                 #
                #                      Germany                          #
                #                                                       #
                #                  All rights reserved                  #
                #                        -***-                          #
                #########################################################


                         Program Version 6.1.0-f.0  -   RELEASE   -


 With contributions from (in alphabetic order):
[Max-Planck-Institut fuer Kohlenforschung]                               
  Daniel Aravena         : Magnetic Suceptibility                        
  Michael Atanasov       : Ab Initio Ligand Field Theory (pilot matlab implementation)
  Alexander A. Auer      : GIAO ZORA, VPT2 properties, NMR spectrum      
  Ute Becker             : All parallelization in ORCA, NUMFREQ, NUMCALC 
  Giovanni Bistoni       : ED, misc. LED, open-shell LED, HFLD           
  Dmytro Bykov           : pre 5.0 version of the SCF Hessian            
  Marcos Casanova-Páez   : Triplet and SCS-CIS(D). UHF-(DLPNO)-IP/EA/STEOM-CCSD. UHF-CVS-IP/STEOM-CCSD   
  Vijay G. Chilkuri      : MRCI spin determinant printing, contributions to CSF-ICE 
  Pauline Colinet        : FMM embedding                                 
  Dipayan Datta          : RHF DLPNO-CCSD density                        
  Achintya Kumar Dutta   : EOM-CC, STEOM-CC                              
  Nicolas Foglia         : Exact transition moments, OPA infrastructure, MCD improvements    
  Dmitry Ganyushin       : Spin-Orbit,Spin-Spin,Magnetic field MRCI      
  Miquel Garcia-Rates    : C-PCM and meta-GGA Hessian, CCSD/C-PCM, Gaussian charge scheme 
  Tiago L. C. Gouveia    : GS-ROHF, GS-ROCIS                             
  Yang Guo               : DLPNO-NEVPT2, F12-NEVPT2, CIM, IAO-localization        
  Andreas Hansen         : Spin unrestricted coupled pair/coupled cluster methods 
  Ingolf Harden          : AUTO-CI MPn and infrastructure                
  Benjamin Helmich-Paris : MC-RPA, TRAH-(SCF,CASSCF), AVAS, COSX integrals, SCF dyn. polar., MC-PDFT, srDFT 
  Lee Huntington         : MR-EOM, pCC                                   
  Robert Izsak           : Overlap fitted RIJCOSX, COSX-SCS-MP3, EOM     
  Riya Kayal             : Wick's Theorem for AUTO-CI, AUTO-CI UHF-CCSDT 
  Emily Kempfer          : AUTO-CI RHF CISDT and CCSDT, approximate NEVPT4
  Christian Kollmar      : KDIIS, OOCD, Brueckner-CCSD(T), CCSD density, CASPT2, CASPT2-K, improved NEVPT2 
  Axel Koslowski         : Symmetry handling                             
  Simone Kossmann        : meta-GGA functionals, TD-DFT gradient, OOMP2, (MP2 Hessian; deprecated post 5.0) 
  Lucas Lang             : DCDCAS, Hyperfine gauge corrections, ICE-SOC+SSC
  Marvin Lechner         : AUTO-CI (C++ implementation), FIC-MRCC        
  Spencer Leger          : CASSCF response                               
  Dagmar Lenk            : GEPOL surface, SMD, ORCA-2-JSON               
  Dimitrios Liakos       : Extrapolation schemes; Compound Job, Property file
  Dimitrios Manganas     : Further ROCIS development; embedding schemes. LFT, Crystal Embedding 
  Dimitrios Pantazis     : SARC Basis sets                               
  Anastasios Papadopoulos: AUTO-CI, single reference methods and gradients 
  Taras Petrenko         : pre 6.0 DFT Hessian and TD-DFT gradient,  ECA, NRVS 
  Petra Pikulova         : Analytic Raman intensities                    
  Peter Pinski           : DLPNO-MP2, DLPNO-MP2 Gradient                 
  Shashank Vittal Rao    : ES-AILFT, MagRelax                            
  Christoph Reimann      : Effective Core Potentials                     
  Marius Retegan         : Local ZFS, SOC                                
  Christoph Riplinger    : Optimizer, TS searches, QM/MM, DLPNO-CCSD(T), (RO)-DLPNO pert. Triples 
  Michael Roemelt        : Original ROCIS implementation, recursive CI coupling coefficients
  Masaaki Saitow         : Open-shell DLPNO-CCSD energy and density      
  Barbara Sandhoefer     : DKH picture change effects                    
  Yorick L. A. Schmerwitz: GMF and freeze-and-release deltaSCF, NEB S-IDPP initial path                    
  Kantharuban Sivalingam : CASSCF convergence/infrastructure, NEVPT2, NEVPT3, NEVPT4(SD), FIC-MRCI and CEPA variants
  Bernardo de Souza      : ESD, SOC TD-DFT                               
  Georgi L. Stoychev     : AutoAux, RI-MP2 NMR, DLPNO-MP2 response, X2C  
  Van Anh Tran           : RI-MP2 g-tensors                              
  Willem Van den Heuvel  : Paramagnetic NMR                              
  Zikuan Wang            : NOTCH, Electric field optimization            
  Frank Wennmohs         : Technical directorship and infrastructure     
  Hang Xu                : AUTO-CI-Response properties                   
                                                                         
[FACCTs GmbH]                                                            
  Markus Bursch, Nicolas Foglia, Miquel Garcia-Rates, Ingolf Harden, Hagen Neugebauer, Anastasios Papadopoulos, 
  Christoph Riplinger, Bernardo de Souza, Georgi L. Stoychev                                                    
                                                                 
  APM, various basis sets, CI-OPT, improved COSX, DLPNO-Multilevel,           
  DOCKER, DRACO, updates on ESD, Fragmentator, GOAT, IRC, LR-CPCM, L-BFGS, MBIS, meta-GGA TD-DFT gradient, ML-optimized integration grids, 
  MM, NACMEs, nearIR, NEB, NEB-TS, NL-DFT gradient (VV10), 2- and 3-layer-ONIOM, interface openCOSMO-RS, QMMM,   
  Crystal-QMMM, RESP, rigid body optimization, SF, symmetry and pop. for TD-DFT, various functionals, SOLVATOR                                   
                                                                         
[Other institutions]                                                     
  V. Asgeirsson          : NEB                                           
  Christoph Bannwarth    : sTDA-DFT, sTD-DFT, PBEh-3c, B97-3c, D3        
  Giovanni Bistoni       : ETS/NOCV, ADLD/ADEX, COVALED                  
  Martin Brehm           : Molecular dynamics                            
  Ronald Cardenas        : ETS/NOCV                                      
  Martina Colucci        : COVALED                                       
  Sebastian Ehlert       : rSCAN, r2SCAN, r2SCAN-3c, D4, dhf basis sets  
  Marvin Friede          : D4 for Fr, Ra, Ac-Lr                          
  Lars Goerigk           : TD-DFT with DH, B97 family of functionals     
  Stefan Grimme          : VdW corrections, initial TS optimization, DFT functionals, gCP, sTDA/sTD-DF 
  Waldemar Hujo          : DFT-NL                                        
  H. Jonsson             : NEB                                           
  Holger Kruse           : gCP                                           
  Marcel Mueller         : wB97X-3c, vDZP basis set                      
  Hagen Neugebauer       : wr2SCAN, Native XTB                           
  Gianluca Regni         : ADLD/ADEX                                     
  Tobias Risthaus        : pre 6.0 range-separated hybrid DFT and stability analysis
  Lukas Wittmann         : regularized MP2, r2SCAN double-hybrids, wr2SCAN        
                                                                         
We gratefully acknowledge several colleagues who have allowed us to      
interface, adapt or use parts of their codes:                            
  Ed Valeev, F. Pavosevic, A. Kumar             : LibInt (2-el integral package), F12 methods 
  Garnet Chan, S. Sharma, J. Yang, R. Olivares  : DMRG                   
  Ulf Ekstrom                                   : XCFun DFT Library      
  Mihaly Kallay                                 : mrcc  (arbitrary order and MRCC methods)
  Frank Weinhold                                : gennbo (NPA and NBO analysis)           
  Simon Mueller                                 : openCOSMO-RS                            
  Christopher J. Cramer and Donald G. Truhlar   : smd solvation model                     
  S Lehtola, MJT Oliveira, MAL Marques          : LibXC Library                           
  Liviu Ungur et al                             : ANISO software                          


 Your calculation uses the libint2 library for the computation of 2-el integrals
 For citations please refer to: http://libint.valeyev.net

 Your ORCA version has been built with support for libXC version: 7.0.0
 For citations please refer to: https://libxc.gitlab.io

 This ORCA versions uses:
   CBLAS   interface :  Fast vector & matrix operations
   LAPACKE interface :  Fast linear algebra routines
   SCALAPACK package :  Parallel linear algebra routines
   Shared memory     :  Shared parallel matrices
   BLAS/LAPACK       :  OpenBLAS 0.3.29  USE64BITINT DYNAMIC_ARCH NO_AFFINITY Cooperlake SINGLE_THREADED
        Core in use  :  Cooperlake
   Copyright (c) 2011-2014, The OpenBLAS Project


  ***********************************
  * Starting time: Tue Mar  3 20:59:37 2026
  * Host name:     c01b01n06
  * Process ID:    46648
  * Working dir.:  /lustre1/jiangy/jiangy_liuxy/NMR/B9D7C2-SSSS-NMR/opt_conf
  ***********************************

NOTE: MaxCore=5000 MB was set to SCF,MP2,MDCI,CIPSI,MRCI,RASCI and CIS
      => If you want to overwrite this, your respective input block should be placed after the MaxCore statement


***************************************
The coordinates will be read from file: opt-conf-1.xyz
***************************************



Warning: The global flag for NMR shieldings has been found
         but shieldings for certain elements have also been explicitly requested in the EPRNMR block
         ==>> only the requested shieldings will be calculated

================================================================================

----- Orbital basis set information -----
Your calculation utilizes the basis: pcSseg-2
   F. Jensen, J. Chem. Theory Comput. 11, 132 (2015).

----- AuxJ basis set information -----
Your calculation utilizes the AutoAux generation procedure.
  G. L. Stoychev, A. A. Auer, F. Neese, J. Chem. Theory Comput. 13, 554 (2017)

----- AuxC basis set information -----
Your calculation utilizes the AutoAux generation procedure.
  G. L. Stoychev, A. A. Auer, F. Neese, J. Chem. Theory Comput. 13, 554 (2017)

----- AuxJK basis set information -----
Your calculation utilizes the AutoAux generation procedure.
  G. L. Stoychev, A. A. Auer, F. Neese, J. Chem. Theory Comput. 13, 554 (2017)

----- AuxX basis set information -----
Your calculation utilizes the AutoAux generation procedure.
  G. L. Stoychev, A. A. Auer, F. Neese, J. Chem. Theory Comput. 13, 554 (2017)

================================================================================
                                        WARNINGS
                       Please study these warnings very carefully!
================================================================================


================================================================================
                                       INPUT FILE
================================================================================
NAME = nmr-conf-1.inp
|  1> !TPSS PCSSEG-2 AUTOAUX NMR CPCM(Methanol)
|  2> 
|  3> %pal nprocs 60 end
|  4> %maxcore 5000
|  5> 
|  6> *XYZFILE 0 1 opt-conf-1.xyz
|  7> 
|  8> %EPRNMR
|  9>    NUCLEI = ALL C {SHIFT}
| 10>    NUCLEI = ALL H {SHIFT}
| 11>    TAU DOBSON
| 12> END
| 13> 
| 14> 
| 15>                          ****END OF INPUT****
================================================================================

                       ****************************
                       * Single Point Calculation *
                       ****************************

---------------------------------
CARTESIAN COORDINATES (ANGSTROEM)
---------------------------------
  C     28.050235  -28.206815    1.333562
  C     28.946474  -27.268178    0.819119
  C     28.952790  -27.004367   -0.549454
  C     28.059479  -27.670305   -1.387798
  C     27.139791  -28.570272   -0.862350
  C     27.145137  -28.846701    0.502325
  C     26.071911  -29.184616   -1.727890
  C     24.697975  -28.525238   -1.469522
  C     24.637992  -27.049461   -1.951490
  C     23.915003  -26.159235   -0.916536
  C     24.720855  -25.927256    0.337394
  C     25.854089  -25.105253    0.286743
  C     26.627988  -24.890485    1.414889
  C     26.280970  -25.503418    2.629085
  C     25.162207  -26.311301    2.689077
  C     24.387561  -26.521660    1.547738
  C     23.549835  -29.419191   -1.937967
  C     24.009447  -26.826632   -3.328508
  O     29.849926  -26.074927   -0.974335
  O     28.168325  -28.445022    2.673404
  O     29.728589  -26.589452    1.717899
  O     27.039783  -25.299190    3.747404
  O     27.743123  -24.103427    1.474885
  C     31.164076  -26.660292    1.653142
  C     31.671091  -28.094164    1.897197
  C     31.507686  -28.957201    0.653094
  C     31.618423  -25.676502    2.716130
  O     31.077736  -24.378069    2.477617
  C     30.667197  -30.069419    0.646043
  C     30.453075  -30.778505   -0.526174
  C     31.099845  -30.395242   -1.709181
  C     31.966477  -29.316141   -1.694545
  C     32.168188  -28.602175   -0.517905
  C     27.261312  -29.365709    3.278634
  C     29.978400  -25.852825   -2.375983
  C     28.121507  -23.381311    0.303462
  O     31.080878  -28.656353    3.058998
  O     23.639861  -29.845351   -3.313832
  O     24.666260  -27.523222   -4.386737
  O     29.625135  -31.856702   -0.659707
  O     30.880173  -31.079768   -2.870955
  C     28.914714  -32.308730    0.491635
  H     28.049913  -27.462708   -2.447432
  H     26.433790  -29.551603    0.906253
  H     25.993999  -30.253226   -1.501964
  H     26.343106  -29.094127   -2.780316
  H     24.582870  -28.498744   -0.382191
  H     25.665412  -26.685482   -2.022043
  H     23.694658  -25.193183   -1.381655
  H     22.952353  -26.609186   -0.658261
  H     26.126933  -24.638989   -0.649837
  H     24.901250  -26.776359    3.631584
  H     23.512725  -27.157342    1.611493
  H     23.505084  -30.304922   -1.299064
  H     22.596645  -28.896283   -1.849693
  H     24.077896  -25.763980   -3.570775
  H     22.943279  -27.085206   -3.310748
  H     27.780881  -24.722021    3.511245
  H     31.501340  -26.318591    0.675256
  H     32.739984  -28.011538    2.116252
  H     31.326301  -26.039923    3.706784
  H     32.704447  -25.582950    2.685351
  H     30.126449  -24.492693    2.335638
  H     30.159963  -30.358780    1.552935
  H     32.472199  -29.035632   -2.610095
  H     32.835881  -27.749556   -0.528929
  H     27.376852  -30.366447    2.857522
  H     27.516657  -29.381358    4.335241
  H     26.230836  -29.029591    3.153553
  H     29.053615  -25.453704   -2.799417
  H     30.774905  -25.121318   -2.488552
  H     30.249982  -26.775469   -2.893961
  H     27.324937  -22.699300   -0.003040
  H     29.007833  -22.813321    0.575056
  H     28.361147  -24.063891   -0.511872
  H     30.116250  -28.531360    3.015113
  H     24.248289  -30.592864   -3.363661
  H     24.425483  -28.460060   -4.269840
  H     30.256033  -31.798174   -2.688005
  H     28.325071  -33.161391    0.164453
  H     29.606076  -32.618617    1.278865
  H     28.254969  -31.525909    0.869077

----------------------------
CARTESIAN COORDINATES (A.U.)
----------------------------
  NO LB      ZA    FRAG     MASS         X           Y           Z
   0 C     6.0000    0    12.011   53.007262  -53.303155    2.520068
   1 C     6.0000    0    12.011   54.700909  -51.529389    1.547910
   2 C     6.0000    0    12.011   54.712843  -51.030858   -1.038319
   3 C     6.0000    0    12.011   53.024731  -52.289298   -2.622558
   4 C     6.0000    0    12.011   51.286772  -53.989990   -1.629605
   5 C     6.0000    0    12.011   51.296876  -54.512365    0.949256
   6 C     6.0000    0    12.011   49.268771  -55.150932   -3.265239
   7 C     6.0000    0    12.011   46.672410  -53.904887   -2.776995
   8 C     6.0000    0    12.011   46.559057  -51.116074   -3.687782
   9 C     6.0000    0    12.011   45.192805  -49.433789   -1.732003
  10 C     6.0000    0    12.011   46.715645  -48.995414    0.637582
  11 C     6.0000    0    12.011   48.857147  -47.442054    0.541865
  12 C     6.0000    0    12.011   50.319605  -47.036200    2.673752
  13 C     6.0000    0    12.011   49.663836  -48.194476    4.968250
  14 C     6.0000    0    12.011   47.549680  -49.721153    5.081619
  15 C     6.0000    0    12.011   46.085811  -50.118675    2.924801
  16 C     6.0000    0    12.011   44.502739  -55.594213   -3.662227
  17 C     6.0000    0    12.011   45.371280  -50.694988   -6.289969
  18 O     8.0000    0    15.999   56.408185  -49.274471   -1.841225
  19 O     8.0000    0    15.999   53.230419  -53.753301    5.052002
  20 O     8.0000    0    15.999   56.178891  -50.246783    3.246359
  21 O     8.0000    0    15.999   51.097785  -47.808541    7.081566
  22 O     8.0000    0    15.999   52.426904  -45.548877    2.787128
  23 C     6.0000    0    12.011   58.891569  -50.380651    3.123986
  24 C     6.0000    0    12.011   59.849689  -53.090276    3.585183
  25 C     6.0000    0    12.011   59.540898  -54.721179    1.234169
  26 C     6.0000    0    12.011   59.750161  -48.521557    5.132743
  27 O     8.0000    0    15.999   58.728411  -46.067875    4.682018
  28 C     6.0000    0    12.011   57.952603  -56.822966    1.220844
  29 C     6.0000    0    12.011   57.547971  -58.162944   -0.994325
  30 C     6.0000    0    12.011   58.770189  -57.438684   -3.229884
  31 C     6.0000    0    12.011   60.407887  -55.399477   -3.202226
  32 C     6.0000    0    12.011   60.789065  -54.050278   -0.978698
  33 C     6.0000    0    12.011   51.516414  -55.493148    6.195721
  34 C     6.0000    0    12.011   56.650965  -48.854759   -4.489958
  35 C     6.0000    0    12.011   53.141947  -44.184274    0.573460
  36 O     8.0000    0    15.999   58.734348  -54.152659    5.780669
  37 O     8.0000    0    15.999   44.672864  -56.399540   -6.262236
  38 O     8.0000    0    15.999   46.612475  -52.011352   -8.289732
  39 O     8.0000    0    15.999   55.983393  -60.200442   -1.246665
  40 O     8.0000    0    15.999   58.355069  -58.732250   -5.425318
  41 C     6.0000    0    12.011   54.640890  -61.054651    0.929055
  42 H     1.0000    0     1.008   53.006653  -51.896997   -4.624976
  43 H     1.0000    0     1.008   49.952623  -55.844436    1.712569
  44 H     1.0000    0     1.008   49.121540  -57.170311   -2.838300
  45 H     1.0000    0     1.008   49.781257  -54.979932   -5.254036
  46 H     1.0000    0     1.008   46.454891  -53.854822   -0.722236
  47 H     1.0000    0     1.008   48.500599  -50.428252   -3.821107
  48 H     1.0000    0     1.008   44.776415  -47.608216   -2.610949
  49 H     1.0000    0     1.008   43.373661  -50.284075   -1.243932
  50 H     1.0000    0     1.008   49.372749  -46.560942   -1.228014
  51 H     1.0000    0     1.008   47.056543  -50.599986    6.862699
  52 H     1.0000    0     1.008   44.432612  -51.319940    3.045280
  53 H     1.0000    0     1.008   44.418172  -57.268004   -2.454874
  54 H     1.0000    0     1.008   42.701471  -54.606061   -3.495413
  55 H     1.0000    0     1.008   45.500630  -48.686866   -6.747787
  56 H     1.0000    0     1.008   43.356514  -51.183622   -6.256407
  57 H     1.0000    0     1.008   52.498257  -46.717848    6.635292
  58 H     1.0000    0     1.008   59.528906  -49.734929    1.276048
  59 H     1.0000    0     1.008   61.869603  -52.934136    3.999137
  60 H     1.0000    0     1.008   59.198129  -49.208323    7.004807
  61 H     1.0000    0     1.008   61.802448  -48.344769    5.074578
  62 H     1.0000    0     1.008   56.930738  -46.284482    4.413715
  63 H     1.0000    0     1.008   56.994069  -57.369781    2.934622
  64 H     1.0000    0     1.008   61.363562  -54.869392   -4.932366
  65 H     1.0000    0     1.008   62.050823  -52.439062   -0.999530
  66 H     1.0000    0     1.008   51.734752  -57.384268    5.399933
  67 H     1.0000    0     1.008   51.998946  -55.522719    8.192417
  68 H     1.0000    0     1.008   49.569096  -54.857977    5.959351
  69 H     1.0000    0     1.008   54.903376  -48.100529   -5.290131
  70 H     1.0000    0     1.008   58.156142  -47.472411   -4.702683
  71 H     1.0000    0     1.008   57.164182  -50.598304   -5.468793
  72 H     1.0000    0     1.008   51.636648  -42.895460   -0.005746
  73 H     1.0000    0     1.008   54.816861  -43.110929    1.086699
  74 H     1.0000    0     1.008   53.594801  -45.474164   -0.967297
  75 H     1.0000    0     1.008   56.911465  -53.916457    5.697738
  76 H     1.0000    0     1.008   45.822625  -57.812134   -6.356399
  77 H     1.0000    0     1.008   46.157474  -53.781720   -8.068828
  78 H     1.0000    0     1.008   57.175616  -60.089840   -5.079594
  79 H     1.0000    0     1.008   53.526626  -62.665947    0.310772
  80 H     1.0000    0     1.008   55.947376  -61.640253    2.416705
  81 H     1.0000    0     1.008   53.394153  -59.575334    1.642317

--------------------------------
INTERNAL COORDINATES (ANGSTROEM)
--------------------------------
 C      0   0   0     0.000000000000     0.00000000     0.00000000
 C      1   0   0     1.396043156644     0.00000000     0.00000000
 C      2   1   0     1.393782339409   119.47255888     0.00000000
 C      3   2   1     1.394380554948   119.80545262     0.51442777
 C      4   3   2     1.389914782163   120.38815379     1.64898433
 C      1   2   3     1.385500737766   120.58563336   358.14363726
 C      5   4   3     1.505638480953   121.07620872   173.29855767
 C      7   5   4     1.545714237200   111.11766503   256.30489634
 C      8   7   5     1.553642958663   112.80957455    68.04222107
 C      9   8   7     1.544780465666   110.95480518   222.44959199
 C     10   9   8     1.508493786004   113.29769875    71.37972083
 C     11  10   9     1.400883078674   119.49349886    71.06627932
 C     12  11  10     1.384831852002   120.90493567   181.10377387
 C     13  12  11     1.403702741654   119.92001018     0.14603201
 C     14  13  12     1.381268946497   119.55079467   359.60624677
 C     11  10   9     1.389004536290   122.02806466   252.06856094
 C      8   7   5     1.528665724514   111.52574282   200.03171919
 C      9   8   7     1.530000179316   115.68360894    97.52789777
 O      3   2   1     1.359865489481   116.04953166   179.76843091
 O      1   2   3     1.365966333357   115.03696859   176.76721281
 O      2   1   3     1.371195743096   117.22248626   176.14342120
 O     14  13  12     1.366800408041   120.34777740   179.89636911
 O     13  12  11     1.366230129711   125.53840112   180.44564373
 C     21   2   1     1.438692602775   121.01360321   120.63419710
 C     24  21   2     1.540330030054   111.53879375   296.71118973
 C     25  24  21     1.522933335480   111.27073403    78.31395498
 C     24  21   2     1.517965141664   103.60428988   174.62898553
 O     27  24  21     1.426589924403   111.06059984   303.45162722
 C     26  25  24     1.394094814031   121.39479972   243.53950947
 C     29  26  25     1.386630329771   120.35466639   174.93112886
 C     30  29  26     1.401679625849   120.15946154     1.12412332
 C     31  30  29     1.384097418103   119.54903768     0.85987530
 C     26  25  24     1.390519542823   119.49142620    60.99212962
 C     20   1   2     1.427109107949   118.26455625   178.30288308
 C     19   3   2     1.424940063620   118.25193673   174.61931946
 C     23  13  12     1.427185156383   118.15355001     3.28036849
 O     25  24  21     1.419221115207   111.19625083   310.65657964
 O     17   8   7     1.443163903670   114.70738344   305.78303666
 O     18   9   8     1.427056128267   114.03093191   301.32263891
 O     30  29  26     1.365951313249   125.44248559   181.92715360
 O     31  30  29     1.366217311390   120.43128678   180.81209224
 C     40  30  29     1.426399612497   118.23691158   359.84393725
 H      4   3   2     1.079820578958   120.25499510   179.25429846
 H      6   1   2     1.079842227681   120.49093884   181.75055131
 H      7   5   4     1.095006138637   109.27174578   136.51530009
 H      7   5   4     1.090566979831   110.15321908    18.84743629
 H      8   7   5     1.093728253660   105.66737926   312.26134019
 H      9   8   7     1.092268388322   107.47283244   339.04970889
 H     10   9   8     1.094596786180   108.55008521   192.56326588
 H     10   9   8     1.093552811462   109.45792998   308.59227546
 H     12  11  10     1.081216049142   119.24188367     0.75830098
 H     15  14  13     1.082911446813   118.95755002   180.22955406
 H     16  11  10     1.083278689752   119.74772568   358.71031507
 H     17   8   7     1.093033083025   108.99657604    67.89309541
 H     17   8   7     1.090777447525   110.56022165   186.19234675
 H     18   9   8     1.092066038381   108.39880965   183.07526767
 H     18   9   8     1.097219520816   110.50549847    66.01107765
 H     22  14  13     0.968566660399   108.32070135   358.90465761
 H     24  21   2     1.089388992330   109.50322875    57.96247456
 H     25  24  21     1.094231888104   106.43722884   195.89253487
 H     27  24  21     1.094899834034   109.79302464    66.11858995
 H     27  24  21     1.090479654244   109.50718259   185.32691971
 H     28  27  24     0.968630308551   106.79942844    49.75648528
 H     29  26  25     1.078642793525   119.55652108   356.74758297
 H     32  31  30     1.082899773361   119.04027191   179.16454476
 H     33  26  25     1.083002990310   120.16069181     3.33067101
 H     34  20   1     1.091860961499   111.12964386    62.44675586
 H     34  20   1     1.087135144737   105.79477074   181.43106446
 H     34  20   1     1.091101648141   110.66415739   300.23064770
 H     35  19   3     1.092620550946   111.21263514    64.08382296
 H     35  19   3     1.087287807375   105.82816533   182.93915447
 H     35  19   3     1.092396652854   110.92734575   301.85053253
 H     36  23  13     1.092522948297   110.65980244    59.85645269
 H     36  23  13     1.087175429905   105.98832132   178.81671874
 H     36  23  13     1.090005496184   110.81793754   297.60227126
 H     37  25  24     0.973681675259   108.92058270    49.74014948
 H     38  17   8     0.965112429828   108.49765967    80.82693483
 H     39  18   9     0.974322331176   105.46457269    73.15513790
 H     41  31  30     0.969086329133   108.32766519   359.66938291
 H     42  40  30     1.087086330732   106.00830134   179.93469563
 H     42  40  30     1.092585935600   110.87349018   298.96746032
 H     42  40  30     1.091116405298   110.67117846    60.91850466

---------------------------
INTERNAL COORDINATES (A.U.)
---------------------------
 C      0   0   0     0.000000000000     0.00000000     0.00000000
 C      1   0   0     2.638139237193     0.00000000     0.00000000
 C      2   1   0     2.633866911780   119.47255888     0.00000000
 C      3   2   1     2.634997375318   119.80545262     0.51442777
 C      4   3   2     2.626558287776   120.38815379     1.64898433
 C      1   2   3     2.618216952723   120.58563336   358.14363726
 C      5   4   3     2.845244385695   121.07620872   173.29855767
 C      7   5   4     2.920976589611   111.11766503   256.30489634
 C      8   7   5     2.935959701768   112.80957455    68.04222107
 C      9   8   7     2.919212017140   110.95480518   222.44959199
 C     10   9   8     2.850640130270   113.29769875    71.37972083
 C     11  10   9     2.647285364339   119.49349886    71.06627932
 C     12  11  10     2.616952941815   120.90493567   181.10377387
 C     13  12  11     2.652613755161   119.92001018     0.14603201
 C     14  13  12     2.610220026170   119.55079467   359.60624677
 C     11  10   9     2.624838172363   122.02806466   252.06856094
 C      8   7   5     2.888759569644   111.52574282   200.03171919
 C      9   8   7     2.891281323757   115.68360894    97.52789777
 O      3   2   1     2.569773354090   116.04953166   179.76843091
 O      1   2   3     2.581302278201   115.03696859   176.76721281
 O      2   1   3     2.591184430449   117.22248626   176.14342120
 O     14  13  12     2.582878450928   120.34777740   179.89636911
 O     13  12  11     2.581800781065   125.53840112   180.44564373
 C     21   2   1     2.718735010143   121.01360321   120.63419710
 C     24  21   2     2.910801912657   111.53879375   296.71118973
 C     25  24  21     2.877926924276   111.27073403    78.31395498
 C     24  21   2     2.868538398583   103.60428988   174.62898553
 O     27  24  21     2.695864262533   111.06059984   303.45162722
 C     26  25  24     2.634457403239   121.39479972   243.53950947
 C     29  26  25     2.620351572256   120.35466639   174.93112886
 C     30  29  26     2.648790620352   120.15946154     1.12412332
 C     31  30  29     2.615565062883   119.54903768     0.85987530
 C     26  25  24     2.627701119801   119.49142620    60.99212962
 C     20   1   2     2.696845377248   118.26455625   178.30288308
 C     19   3   2     2.692746477494   118.25193673   174.61931946
 C     23  13  12     2.696989087962   118.15355001     3.28036849
 O     25  24  21     2.681939231219   111.19625083   310.65657964
 O     17   8   7     2.727184544298   114.70738344   305.78303666
 O     18   9   8     2.696745260158   114.03093191   301.32263891
 O     30  29  26     2.581273894312   125.44248559   181.92715360
 O     31  30  29     2.581776557950   120.43128678   180.81209224
 C     40  30  29     2.695504625151   118.23691158   359.84393725
 H      4   3   2     2.040565168003   120.25499510   179.25429846
 H      6   1   2     2.040606078160   120.49093884   181.75055131
 H      7   5   4     2.069261716987   109.27174578   136.51530009
 H      7   5   4     2.060872922578   110.15321908    18.84743629
 H      8   7   5     2.066846864349   105.66737926   312.26134019
 H      9   8   7     2.064088118667   107.47283244   339.04970889
 H     10   9   8     2.068488152951   108.55008521   192.56326588
 H     10   9   8     2.066515326642   109.45792998   308.59227546
 H     12  11  10     2.043202224478   119.24188367     0.75830098
 H     15  14  13     2.046406061764   118.95755002   180.22955406
 H     16  11  10     2.047100050345   119.74772568   358.71031507
 H     17   8   7     2.065533182233   108.99657604    67.89309541
 H     17   8   7     2.061270648880   110.56022165   186.19234675
 H     18   9   8     2.063705732696   108.39880965   183.07526767
 H     18   9   8     2.073444403134   110.50549847    66.01107765
 H     22  14  13     1.830325730601   108.32070135   358.90465761
 H     24  21   2     2.058646848812   109.50322875    57.96247456
 H     25  24  21     2.067798595521   106.43722884   195.89253487
 H     27  24  21     2.069060830401   109.79302464    66.11858995
 H     27  24  21     2.060707901135   109.50718259   185.32691971
 H     28  27  24     1.830446008177   106.79942844    49.75648528
 H     29  26  25     2.038339476090   119.55652108   356.74758297
 H     32  31  30     2.046384002137   119.04027191   179.16454476
 H     33  26  25     2.046579053904   120.16069181     3.33067101
 H     34  20   1     2.063318193553   111.12964386    62.44675586
 H     34  20   1     2.054387694114   105.79477074   181.43106446
 H     34  20   1     2.061883299257   110.66415739   300.23064770
 H     35  19   3     2.064753609583   111.21263514    64.08382296
 H     35  19   3     2.054676184691   105.82816533   182.93915447
 H     35  19   3     2.064330503507   110.92734575   301.85053253
 H     36  23  13     2.064569167305   110.65980244    59.85645269
 H     36  23  13     2.054463822049   105.98832132   178.81671874
 H     36  23  13     2.059811872256   110.81793754   297.60227126
 H     37  25  24     1.839991707857   108.92058270    49.74014948
 H     38  17   8     1.823798180818   108.49765967    80.82693483
 H     39  18   9     1.841202372086   105.46457269    73.15513790
 H     41  31  30     1.831307762189   108.32766519   359.66938291
 H     42  40  30     2.054295449012   106.00830134   179.93469563
 H     42  40  30     2.064688196059   110.87349018   298.96746032
 H     42  40  30     2.061911186242   110.67117846    60.91850466

---------------------
BASIS SET INFORMATION
---------------------
There are 3 groups of distinct atoms

 Group   1 Type C   : 11s7p2d1f contracted to 4s5p2d1f pattern {7211/31111/11/1}
 Group   2 Type O   : 11s7p2d1f contracted to 4s5p2d1f pattern {7211/31111/11/1}
 Group   3 Type H   : 6s3p1d contracted to 3s2p1d pattern {411/21/1}

Atom   0C    basis set group =>   1
Atom   1C    basis set group =>   1
Atom   2C    basis set group =>   1
Atom   3C    basis set group =>   1
Atom   4C    basis set group =>   1
Atom   5C    basis set group =>   1
Atom   6C    basis set group =>   1
Atom   7C    basis set group =>   1
Atom   8C    basis set group =>   1
Atom   9C    basis set group =>   1
Atom  10C    basis set group =>   1
Atom  11C    basis set group =>   1
Atom  12C    basis set group =>   1
Atom  13C    basis set group =>   1
Atom  14C    basis set group =>   1
Atom  15C    basis set group =>   1
Atom  16C    basis set group =>   1
Atom  17C    basis set group =>   1
Atom  18O    basis set group =>   2
Atom  19O    basis set group =>   2
Atom  20O    basis set group =>   2
Atom  21O    basis set group =>   2
Atom  22O    basis set group =>   2
Atom  23C    basis set group =>   1
Atom  24C    basis set group =>   1
Atom  25C    basis set group =>   1
Atom  26C    basis set group =>   1
Atom  27O    basis set group =>   2
Atom  28C    basis set group =>   1
Atom  29C    basis set group =>   1
Atom  30C    basis set group =>   1
Atom  31C    basis set group =>   1
Atom  32C    basis set group =>   1
Atom  33C    basis set group =>   1
Atom  34C    basis set group =>   1
Atom  35C    basis set group =>   1
Atom  36O    basis set group =>   2
Atom  37O    basis set group =>   2
Atom  38O    basis set group =>   2
Atom  39O    basis set group =>   2
Atom  40O    basis set group =>   2
Atom  41C    basis set group =>   1
Atom  42H    basis set group =>   3
Atom  43H    basis set group =>   3
Atom  44H    basis set group =>   3
Atom  45H    basis set group =>   3
Atom  46H    basis set group =>   3
Atom  47H    basis set group =>   3
Atom  48H    basis set group =>   3
Atom  49H    basis set group =>   3
Atom  50H    basis set group =>   3
Atom  51H    basis set group =>   3
Atom  52H    basis set group =>   3
Atom  53H    basis set group =>   3
Atom  54H    basis set group =>   3
Atom  55H    basis set group =>   3
Atom  56H    basis set group =>   3
Atom  57H    basis set group =>   3
Atom  58H    basis set group =>   3
Atom  59H    basis set group =>   3
Atom  60H    basis set group =>   3
Atom  61H    basis set group =>   3
Atom  62H    basis set group =>   3
Atom  63H    basis set group =>   3
Atom  64H    basis set group =>   3
Atom  65H    basis set group =>   3
Atom  66H    basis set group =>   3
Atom  67H    basis set group =>   3
Atom  68H    basis set group =>   3
Atom  69H    basis set group =>   3
Atom  70H    basis set group =>   3
Atom  71H    basis set group =>   3
Atom  72H    basis set group =>   3
Atom  73H    basis set group =>   3
Atom  74H    basis set group =>   3
Atom  75H    basis set group =>   3
Atom  76H    basis set group =>   3
Atom  77H    basis set group =>   3
Atom  78H    basis set group =>   3
Atom  79H    basis set group =>   3
Atom  80H    basis set group =>   3
Atom  81H    basis set group =>   3
---------------------------------
AUXILIARY/J BASIS SET INFORMATION
---------------------------------
There are 3 groups of distinct atoms

 Group   1 Type C   : 15s13p12d5f5g contracted to 15s13p12d5f5g pattern {111111111111111/1111111111111/111111111111/11111/11111}
 Group   2 Type O   : 15s13p12d5f5g contracted to 15s13p12d5f5g pattern {111111111111111/1111111111111/111111111111/11111/11111}
 Group   3 Type H   : 12s4p3d2f contracted to 12s4p3d2f pattern {111111111111/1111/111/11}

Atom   0C    basis set group =>   1
Atom   1C    basis set group =>   1
Atom   2C    basis set group =>   1
Atom   3C    basis set group =>   1
Atom   4C    basis set group =>   1
Atom   5C    basis set group =>   1
Atom   6C    basis set group =>   1
Atom   7C    basis set group =>   1
Atom   8C    basis set group =>   1
Atom   9C    basis set group =>   1
Atom  10C    basis set group =>   1
Atom  11C    basis set group =>   1
Atom  12C    basis set group =>   1
Atom  13C    basis set group =>   1
Atom  14C    basis set group =>   1
Atom  15C    basis set group =>   1
Atom  16C    basis set group =>   1
Atom  17C    basis set group =>   1
Atom  18O    basis set group =>   2
Atom  19O    basis set group =>   2
Atom  20O    basis set group =>   2
Atom  21O    basis set group =>   2
Atom  22O    basis set group =>   2
Atom  23C    basis set group =>   1
Atom  24C    basis set group =>   1
Atom  25C    basis set group =>   1
Atom  26C    basis set group =>   1
Atom  27O    basis set group =>   2
Atom  28C    basis set group =>   1
Atom  29C    basis set group =>   1
Atom  30C    basis set group =>   1
Atom  31C    basis set group =>   1
Atom  32C    basis set group =>   1
Atom  33C    basis set group =>   1
Atom  34C    basis set group =>   1
Atom  35C    basis set group =>   1
Atom  36O    basis set group =>   2
Atom  37O    basis set group =>   2
Atom  38O    basis set group =>   2
Atom  39O    basis set group =>   2
Atom  40O    basis set group =>   2
Atom  41C    basis set group =>   1
Atom  42H    basis set group =>   3
Atom  43H    basis set group =>   3
Atom  44H    basis set group =>   3
Atom  45H    basis set group =>   3
Atom  46H    basis set group =>   3
Atom  47H    basis set group =>   3
Atom  48H    basis set group =>   3
Atom  49H    basis set group =>   3
Atom  50H    basis set group =>   3
Atom  51H    basis set group =>   3
Atom  52H    basis set group =>   3
Atom  53H    basis set group =>   3
Atom  54H    basis set group =>   3
Atom  55H    basis set group =>   3
Atom  56H    basis set group =>   3
Atom  57H    basis set group =>   3
Atom  58H    basis set group =>   3
Atom  59H    basis set group =>   3
Atom  60H    basis set group =>   3
Atom  61H    basis set group =>   3
Atom  62H    basis set group =>   3
Atom  63H    basis set group =>   3
Atom  64H    basis set group =>   3
Atom  65H    basis set group =>   3
Atom  66H    basis set group =>   3
Atom  67H    basis set group =>   3
Atom  68H    basis set group =>   3
Atom  69H    basis set group =>   3
Atom  70H    basis set group =>   3
Atom  71H    basis set group =>   3
Atom  72H    basis set group =>   3
Atom  73H    basis set group =>   3
Atom  74H    basis set group =>   3
Atom  75H    basis set group =>   3
Atom  76H    basis set group =>   3
Atom  77H    basis set group =>   3
Atom  78H    basis set group =>   3
Atom  79H    basis set group =>   3
Atom  80H    basis set group =>   3
Atom  81H    basis set group =>   3
---------------------------------
AUXILIARY/C BASIS SET INFORMATION
---------------------------------
There are 3 groups of distinct atoms

 Group   1 Type C   : 15s13p12d5f5g contracted to 15s13p12d5f5g pattern {111111111111111/1111111111111/111111111111/11111/11111}
 Group   2 Type O   : 15s13p12d5f5g contracted to 15s13p12d5f5g pattern {111111111111111/1111111111111/111111111111/11111/11111}
 Group   3 Type H   : 12s4p3d2f contracted to 12s4p3d2f pattern {111111111111/1111/111/11}

Atom   0C    basis set group =>   1
Atom   1C    basis set group =>   1
Atom   2C    basis set group =>   1
Atom   3C    basis set group =>   1
Atom   4C    basis set group =>   1
Atom   5C    basis set group =>   1
Atom   6C    basis set group =>   1
Atom   7C    basis set group =>   1
Atom   8C    basis set group =>   1
Atom   9C    basis set group =>   1
Atom  10C    basis set group =>   1
Atom  11C    basis set group =>   1
Atom  12C    basis set group =>   1
Atom  13C    basis set group =>   1
Atom  14C    basis set group =>   1
Atom  15C    basis set group =>   1
Atom  16C    basis set group =>   1
Atom  17C    basis set group =>   1
Atom  18O    basis set group =>   2
Atom  19O    basis set group =>   2
Atom  20O    basis set group =>   2
Atom  21O    basis set group =>   2
Atom  22O    basis set group =>   2
Atom  23C    basis set group =>   1
Atom  24C    basis set group =>   1
Atom  25C    basis set group =>   1
Atom  26C    basis set group =>   1
Atom  27O    basis set group =>   2
Atom  28C    basis set group =>   1
Atom  29C    basis set group =>   1
Atom  30C    basis set group =>   1
Atom  31C    basis set group =>   1
Atom  32C    basis set group =>   1
Atom  33C    basis set group =>   1
Atom  34C    basis set group =>   1
Atom  35C    basis set group =>   1
Atom  36O    basis set group =>   2
Atom  37O    basis set group =>   2
Atom  38O    basis set group =>   2
Atom  39O    basis set group =>   2
Atom  40O    basis set group =>   2
Atom  41C    basis set group =>   1
Atom  42H    basis set group =>   3
Atom  43H    basis set group =>   3
Atom  44H    basis set group =>   3
Atom  45H    basis set group =>   3
Atom  46H    basis set group =>   3
Atom  47H    basis set group =>   3
Atom  48H    basis set group =>   3
Atom  49H    basis set group =>   3
Atom  50H    basis set group =>   3
Atom  51H    basis set group =>   3
Atom  52H    basis set group =>   3
Atom  53H    basis set group =>   3
Atom  54H    basis set group =>   3
Atom  55H    basis set group =>   3
Atom  56H    basis set group =>   3
Atom  57H    basis set group =>   3
Atom  58H    basis set group =>   3
Atom  59H    basis set group =>   3
Atom  60H    basis set group =>   3
Atom  61H    basis set group =>   3
Atom  62H    basis set group =>   3
Atom  63H    basis set group =>   3
Atom  64H    basis set group =>   3
Atom  65H    basis set group =>   3
Atom  66H    basis set group =>   3
Atom  67H    basis set group =>   3
Atom  68H    basis set group =>   3
Atom  69H    basis set group =>   3
Atom  70H    basis set group =>   3
Atom  71H    basis set group =>   3
Atom  72H    basis set group =>   3
Atom  73H    basis set group =>   3
Atom  74H    basis set group =>   3
Atom  75H    basis set group =>   3
Atom  76H    basis set group =>   3
Atom  77H    basis set group =>   3
Atom  78H    basis set group =>   3
Atom  79H    basis set group =>   3
Atom  80H    basis set group =>   3
Atom  81H    basis set group =>   3
----------------------------------
AUXILIARY/JK BASIS SET INFORMATION
----------------------------------
There are 3 groups of distinct atoms

 Group   1 Type C   : 15s13p12d5f5g contracted to 15s13p12d5f5g pattern {111111111111111/1111111111111/111111111111/11111/11111}
 Group   2 Type O   : 15s13p12d5f5g contracted to 15s13p12d5f5g pattern {111111111111111/1111111111111/111111111111/11111/11111}
 Group   3 Type H   : 12s4p3d2f contracted to 12s4p3d2f pattern {111111111111/1111/111/11}

Atom   0C    basis set group =>   1
Atom   1C    basis set group =>   1
Atom   2C    basis set group =>   1
Atom   3C    basis set group =>   1
Atom   4C    basis set group =>   1
Atom   5C    basis set group =>   1
Atom   6C    basis set group =>   1
Atom   7C    basis set group =>   1
Atom   8C    basis set group =>   1
Atom   9C    basis set group =>   1
Atom  10C    basis set group =>   1
Atom  11C    basis set group =>   1
Atom  12C    basis set group =>   1
Atom  13C    basis set group =>   1
Atom  14C    basis set group =>   1
Atom  15C    basis set group =>   1
Atom  16C    basis set group =>   1
Atom  17C    basis set group =>   1
Atom  18O    basis set group =>   2
Atom  19O    basis set group =>   2
Atom  20O    basis set group =>   2
Atom  21O    basis set group =>   2
Atom  22O    basis set group =>   2
Atom  23C    basis set group =>   1
Atom  24C    basis set group =>   1
Atom  25C    basis set group =>   1
Atom  26C    basis set group =>   1
Atom  27O    basis set group =>   2
Atom  28C    basis set group =>   1
Atom  29C    basis set group =>   1
Atom  30C    basis set group =>   1
Atom  31C    basis set group =>   1
Atom  32C    basis set group =>   1
Atom  33C    basis set group =>   1
Atom  34C    basis set group =>   1
Atom  35C    basis set group =>   1
Atom  36O    basis set group =>   2
Atom  37O    basis set group =>   2
Atom  38O    basis set group =>   2
Atom  39O    basis set group =>   2
Atom  40O    basis set group =>   2
Atom  41C    basis set group =>   1
Atom  42H    basis set group =>   3
Atom  43H    basis set group =>   3
Atom  44H    basis set group =>   3
Atom  45H    basis set group =>   3
Atom  46H    basis set group =>   3
Atom  47H    basis set group =>   3
Atom  48H    basis set group =>   3
Atom  49H    basis set group =>   3
Atom  50H    basis set group =>   3
Atom  51H    basis set group =>   3
Atom  52H    basis set group =>   3
Atom  53H    basis set group =>   3
Atom  54H    basis set group =>   3
Atom  55H    basis set group =>   3
Atom  56H    basis set group =>   3
Atom  57H    basis set group =>   3
Atom  58H    basis set group =>   3
Atom  59H    basis set group =>   3
Atom  60H    basis set group =>   3
Atom  61H    basis set group =>   3
Atom  62H    basis set group =>   3
Atom  63H    basis set group =>   3
Atom  64H    basis set group =>   3
Atom  65H    basis set group =>   3
Atom  66H    basis set group =>   3
Atom  67H    basis set group =>   3
Atom  68H    basis set group =>   3
Atom  69H    basis set group =>   3
Atom  70H    basis set group =>   3
Atom  71H    basis set group =>   3
Atom  72H    basis set group =>   3
Atom  73H    basis set group =>   3
Atom  74H    basis set group =>   3
Atom  75H    basis set group =>   3
Atom  76H    basis set group =>   3
Atom  77H    basis set group =>   3
Atom  78H    basis set group =>   3
Atom  79H    basis set group =>   3
Atom  80H    basis set group =>   3
Atom  81H    basis set group =>   3
---------------------------------
AUXILIARY/X BASIS SET INFORMATION
---------------------------------
There are 3 groups of distinct atoms

 Group   1 Type C   : 15s13p12d5f5g contracted to 15s13p12d5f5g pattern {111111111111111/1111111111111/111111111111/11111/11111}
 Group   2 Type O   : 15s13p12d5f5g contracted to 15s13p12d5f5g pattern {111111111111111/1111111111111/111111111111/11111/11111}
 Group   3 Type H   : 12s4p3d2f contracted to 12s4p3d2f pattern {111111111111/1111/111/11}

Atom   0C    basis set group =>   1
Atom   1C    basis set group =>   1
Atom   2C    basis set group =>   1
Atom   3C    basis set group =>   1
Atom   4C    basis set group =>   1
Atom   5C    basis set group =>   1
Atom   6C    basis set group =>   1
Atom   7C    basis set group =>   1
Atom   8C    basis set group =>   1
Atom   9C    basis set group =>   1
Atom  10C    basis set group =>   1
Atom  11C    basis set group =>   1
Atom  12C    basis set group =>   1
Atom  13C    basis set group =>   1
Atom  14C    basis set group =>   1
Atom  15C    basis set group =>   1
Atom  16C    basis set group =>   1
Atom  17C    basis set group =>   1
Atom  18O    basis set group =>   2
Atom  19O    basis set group =>   2
Atom  20O    basis set group =>   2
Atom  21O    basis set group =>   2
Atom  22O    basis set group =>   2
Atom  23C    basis set group =>   1
Atom  24C    basis set group =>   1
Atom  25C    basis set group =>   1
Atom  26C    basis set group =>   1
Atom  27O    basis set group =>   2
Atom  28C    basis set group =>   1
Atom  29C    basis set group =>   1
Atom  30C    basis set group =>   1
Atom  31C    basis set group =>   1
Atom  32C    basis set group =>   1
Atom  33C    basis set group =>   1
Atom  34C    basis set group =>   1
Atom  35C    basis set group =>   1
Atom  36O    basis set group =>   2
Atom  37O    basis set group =>   2
Atom  38O    basis set group =>   2
Atom  39O    basis set group =>   2
Atom  40O    basis set group =>   2
Atom  41C    basis set group =>   1
Atom  42H    basis set group =>   3
Atom  43H    basis set group =>   3
Atom  44H    basis set group =>   3
Atom  45H    basis set group =>   3
Atom  46H    basis set group =>   3
Atom  47H    basis set group =>   3
Atom  48H    basis set group =>   3
Atom  49H    basis set group =>   3
Atom  50H    basis set group =>   3
Atom  51H    basis set group =>   3
Atom  52H    basis set group =>   3
Atom  53H    basis set group =>   3
Atom  54H    basis set group =>   3
Atom  55H    basis set group =>   3
Atom  56H    basis set group =>   3
Atom  57H    basis set group =>   3
Atom  58H    basis set group =>   3
Atom  59H    basis set group =>   3
Atom  60H    basis set group =>   3
Atom  61H    basis set group =>   3
Atom  62H    basis set group =>   3
Atom  63H    basis set group =>   3
Atom  64H    basis set group =>   3
Atom  65H    basis set group =>   3
Atom  66H    basis set group =>   3
Atom  67H    basis set group =>   3
Atom  68H    basis set group =>   3
Atom  69H    basis set group =>   3
Atom  70H    basis set group =>   3
Atom  71H    basis set group =>   3
Atom  72H    basis set group =>   3
Atom  73H    basis set group =>   3
Atom  74H    basis set group =>   3
Atom  75H    basis set group =>   3
Atom  76H    basis set group =>   3
Atom  77H    basis set group =>   3
Atom  78H    basis set group =>   3
Atom  79H    basis set group =>   3
Atom  80H    basis set group =>   3
Atom  81H    basis set group =>   3
--------------------------------------------------------------------------
WARNING: There is at least one non-excluded one OpenFabrics device found,
but there are no active ports detected (or Open MPI was unable to use
them).  This is most certainly not what you wanted.  Check your
cables, subnet manager configuration, etc.  The openib BTL will be
ignored for this job.

  Local host: c01b01n06
--------------------------------------------------------------------------
--------------------------------------------------------------------------
WARNING: There was an error initializing an OpenFabrics device.

  Local host:   c01b01n06
  Local device: mlx5_0
--------------------------------------------------------------------------
[c01b01n06:46658] 6 more processes have sent help message help-mpi-btl-openib.txt / no active ports found
[c01b01n06:46658] Set MCA parameter "orte_base_help_aggregate" to 0 to see all help / error messages
[c01b01n06:46658] 52 more processes have sent help message help-mpi-btl-openib.txt / error in device init


           ************************************************************
           *        Program running with 60 parallel MPI-processes    *
           *              working on a common directory               *
           ************************************************************
------------------------------------------------------------------------------
                             ORCA STARTUP CALCULATIONS
                           -- RI-GTO INTEGRALS CHOSEN --
------------------------------------------------------------------------------
------------------------------------------------------------------------------
                   ___                                                        
                  /   \      - P O W E R E D   B Y -                         
                 /     \                                                     
                 |  |  |   _    _      __       _____    __    __             
                 |  |  |  | |  | |    /  \     |  _  \  |  |  /  |          
                  \  \/   | |  | |   /    \    | | | |  |  | /  /          
                 / \  \   | |__| |  /  /\  \   | |_| |  |  |/  /          
                |  |  |   |  __  | /  /__\  \  |    /   |      \           
                |  |  |   | |  | | |   __   |  |    \   |  |\   \          
                \     /   | |  | | |  |  |  |  | |\  \  |  | \   \       
                 \___/    |_|  |_| |__|  |__|  |_| \__\ |__|  \__/        
                                                                              
                      - O R C A' S   B I G   F R I E N D -                    
                                      &                                       
                       - I N T E G R A L  F E E D E R -                       
                                                                              
 v1 FN, 2020, v2 2021, v3 2022-2024                                           
------------------------------------------------------------------------------


----------------------
SHARK INTEGRAL PACKAGE
----------------------

Number of atoms                             ...     82
Number of basis functions                   ...   2072
Number of shells                            ...    744
Maximum angular momentum                    ...      3
Integral batch strategy                     ... SHARK/LIBINT Hybrid
RI-J (if used) integral strategy            ... SPLIT-RIJ (Revised 2003 algorithm where possible)
Printlevel                                  ...      1
Contraction scheme used                     ... SEGMENTED contraction
Prescreening option                         ... SCHWARTZ
   Thresh                                   ... 1.000e-10
   Tcut                                     ... 1.000e-11
   Tpresel                                  ... 1.000e-11 
Coulomb Range Separation                    ... NOT USED
Exchange Range Separation                   ... NOT USED
Multipole approximations                    ... NOT USED
Finite Nucleus Model                        ... NOT USED
CABS basis                                  ... NOT available
Auxiliary Coulomb fitting basis             ... AVAILABLE
   # of basis functions in Aux-J            ...  10268
   # of shells in Aux-J                     ...   2940
   Maximum angular momentum in Aux-J        ...      4
Auxiliary J/K fitting basis                 ... AVAILABLE
   # of basis functions in Aux-JK           ...  10268
   # of shells in Aux-JK                    ...   2940
   Maximum angular momentum in Aux-JK       ...      4
Auxiliary Correlation fitting basis         ... AVAILABLE
   # of basis functions in Aux-C            ...  10268
   # of shells in Aux-C                     ...   2940
   Maximum angular momentum in Aux-C        ...      4
Auxiliary 'external' fitting basis          ... NOT available

Checking pre-screening integrals            ... done (  0.0 sec) Dimension = 744
   => SHARK Basis and OBASIS are compatible. Storing Pre-screening
Shell pair information
Shell pair cut-off parameter TPreSel        ...   1.0e-11
Total number of shell pairs                 ...    277140
Shell pairs after pre-screening             ...    155243
Total number of primitive shell pairs       ...    823733
Primitive shell pairs kept                  ...    284683
          la=0 lb=0:  29564 shell pairs
          la=1 lb=0:  51600 shell pairs
          la=1 lb=1:  20981 shell pairs
          la=2 lb=0:  20371 shell pairs
          la=2 lb=1:  15393 shell pairs
          la=2 lb=2:   2742 shell pairs
          la=3 lb=0:   7051 shell pairs
          la=3 lb=1:   5266 shell pairs
          la=3 lb=2:   1905 shell pairs
          la=3 lb=3:    370 shell pairs

Checking whether 4 symmetric matrices of dimension 2072 fit in memory
:Max Core in MB      =   5000.00
 MB in use           =    191.44
 MB left             =   4808.56
 MB needed           =     65.54
 Data fit in memory  = YES
Calculating RI/J V-Matrix + Cholesky decomp.... done ( 12.1 sec)
Calculating RI/JK V-Matrix + Cholesky decomp.... done (  8.7 sec)
Calculating RI/C V-Matrix + Cholesky decomp.... done (  3.9 sec)
Calculating Nuclear repulsion               ... done (  0.0 sec) ENN=   5826.980720556365 Eh

Diagonalization of the overlap matrix:
Smallest eigenvalue                        ... 5.481e-06
Time for diagonalization                   ...    5.223 sec
Threshold for overlap eigenvalues          ... 1.000e-07
Number of eigenvalues below threshold      ... 0
Time for construction of square roots      ...    0.590 sec
Total time needed                          ...    6.097 sec

-------------------
DFT GRID GENERATION
-------------------

General Integration Accuracy     IntAcc      ... 4.388
Radial Grid Type                 RadialGrid  ... OptM3 with GC (2021)
Angular Grid (max. ang.)         AngularGrid ... 4 (Lebedev-302)
Angular grid pruning method      GridPruning ... 4 (adaptive)
Weight generation scheme         WeightScheme... mBecke (2022)
Basis function cutoff            BFCut       ... 1.0000e-10
Integration weight cutoff        WCut        ... 1.0000e-14
Partially contracted basis set               ... off
Rotationally invariant grid construction     ... off
Angular grids for H and He will be reduced by one unit
Diffuse basis detected: some atoms will have their outermost
                        angular grid increased by 1.

Total number of grid points                  ...   376550
Total number of batches                      ...     5921
Average number of points per batch           ...       63
Average number of grid points per atom       ...     4592
Grids setup in   2.4 sec
Initializing property integral containers    ... done (  0.1 sec)

SHARK setup successfully completed in  47.1 seconds

Maximum memory used throughout the entire STARTUP-calculation: 263.6 MB
--------------------------------------------------------------------------
WARNING: There was an error initializing an OpenFabrics device.

  Local host:   c01b01n06
  Local device: mlx5_0
--------------------------------------------------------------------------
--------------------------------------------------------------------------
WARNING: There is at least one non-excluded one OpenFabrics device found,
but there are no active ports detected (or Open MPI was unable to use
them).  This is most certainly not what you wanted.  Check your
cables, subnet manager configuration, etc.  The openib BTL will be
ignored for this job.

  Local host: c01b01n06
--------------------------------------------------------------------------


           ************************************************************
           *        Program running with 60 parallel MPI-processes    *
           *              working on a common directory               *
           ************************************************************
-------------------------------------------------------------------------------
                                 ORCA GUESS
                   Start orbitals & Density for SCF / CASSCF
-------------------------------------------------------------------------------

------------
SCF SETTINGS
------------
Hamiltonian:
 Density Functional     Method          .... DFT(GTOs)
 Exchange Functional    Exchange        .... TPSS
 Correlation Functional Correlation     .... TPSS
 LDA part of GGA corr.  LDAOpt          .... PW91-LDA
 Gradients option       PostSCFGGA      .... off
   NL short-range parameter             ....  5.000000
 RI-approximation to the Coulomb term is turned on
   Number of AuxJ basis functions       .... 10268


General Settings:
 Integral files         IntName         .... nmr-conf-1
 Hartree-Fock type      HFTyp           .... RHF
 Total Charge           Charge          ....    0
 Multiplicity           Mult            ....    1
 Number of Electrons    NEL             ....  314
 Basis Dimension        Dim             .... 2072
 Nuclear Repulsion      ENuc            ....   5826.9807205564 Eh

Convergence Acceleration:
 AO-DIIS                CNVDIIS         .... on
   Start iteration      DIISMaxIt       ....    12
   Startup error        DIISStart       ....  0.200000
   # of expansion vecs  DIISMaxEq       ....     5
   Bias factor          DIISBfac        ....   1.050
   Max. coefficient     DIISMaxC        ....  10.000
 MO-DIIS                CNVKDIIS        .... off
 Trust-Rad. Augm. Hess. CNVTRAH         .... auto
   Auto Start mean grad. ratio tolernc. ....  1.125000
   Auto Start start iteration           ....    50
   Auto Start num. interpolation iter.  ....    10
   Max. Number of Micro iterations      ....    24
   Max. Number of Macro iterations      .... Maxiter - #DIIS iter
   Number of Davidson start vectors     ....     2
   Converg. threshold    (grad. norm)   ....   5.000e-05
   Grad. Scal. Fac. for Micro threshold ....   0.100
   Minimum threshold for Micro iter.    ....   1.000e-02
   NR start threshold (gradient norm)   ....   1.000e-04
   Initial trust radius                 ....   0.400
   Minimum AH scaling param. (alpha)    ....   1.000
   Maximum AH scaling param. (alpha)    .... 1000.000
   Quad. conv. algorithm                .... NR
   White noise on init. David. guess    .... on
   Maximum white noise                  ....   0.010
   Pseudo random numbers                .... off
   Inactive MOs                         .... canonical
   Orbital update algorithm             .... Taylor
   Preconditioner                       .... Diag
   Full preconditioner red. dimension   ....   250
 SOSCF                 CNVSOSCF           .... on
   Start iteration     SOSCFMaxIt         ....   150
   Startup grad/error  SOSCFStart         ....  0.003300
   Hessian update      SOSCFHessUp        .... L-BFGS
   Autom. constraints  SOSCFAutoConstrain .... off
 Level Shifting         CNVShift        .... on
   Level shift para.    LevelShift      ....    0.2500
   Turn off err/grad.   ShiftErr        ....    0.0010
 Zerner damping         CNVZerner       .... off
 Static damping         CNVDamp         .... on
   Fraction old density DampFac         ....    0.7000
   Max. Damping (<1)    DampMax         ....    0.9800
   Min. Damping (>=0)   DampMin         ....    0.0000
   Turn off err/grad.   DampErr         ....    0.1000

SCF Procedure:
 Maximum # iterations   MaxIter         ....   125
 SCF integral mode      SCFMode         .... Direct
   Integral package                     .... SHARK and LIBINT hybrid scheme
 Reset frequency        DirectResetFreq ....    20
 Integral Threshold     Thresh          ....  1.000e-10 Eh
 Primitive CutOff       TCut            ....  1.000e-11 Eh

Convergence Tolerance:
 Convergence Check Mode ConvCheckMode   .... Total+1el-Energy
 Convergence forced     ConvForced      .... 0
 Energy Change          TolE            ....  1.000e-06 Eh
 1-El. energy change                    ....  1.000e-03 Eh
 Orbital Gradient       TolG            ....  5.000e-05
 Orbital Rotation angle TolX            ....  5.000e-05
 DIIS Error             TolErr          ....  1.000e-06

------------------------------
INITIAL GUESS: MODEL POTENTIAL
------------------------------
Loading Hartree-Fock densities                     ... done
Calculating cut-offs                               ... done
Initializing the effective Hamiltonian             ... done
Setting up the integral package (SHARK)            ... done
Starting the Coulomb interaction                   ... done (   0.7 sec)
Making the grid                                    ... done (   0.5 sec)
Mapping shells                                     ... done
Starting the XC term evaluation                    ... done (   0.1 sec)
  promolecular density results
     # of electrons  =    313.955749968
     EX              =   -260.290438021
     EC              =    -10.640283443
     EX+EC           =   -270.930721464
Transforming the Hamiltonian                       ... done (   0.3 sec)
Diagonalizing the Hamiltonian                      ... done (   0.6 sec)
Back transforming the eigenvectors                 ... done (   0.2 sec)
[c01b01n06:47071] 54 more processes have sent help message help-mpi-btl-openib.txt / error in device init
[c01b01n06:47071] Set MCA parameter "orte_base_help_aggregate" to 0 to see all help / error messages
[c01b01n06:47071] 4 more processes have sent help message help-mpi-btl-openib.txt / no active ports found
Now organizing SCF variables                       ... done
                      ------------------
                      INITIAL GUESS DONE (   3.4 sec)
                      ------------------
             **** ENERGY FILE WAS UPDATED (nmr-conf-1.en.tmp) ****
Finished Guess after  10.3 sec
Maximum memory used throughout the entire GUESS-calculation: 296.4 MB
--------------------------------------------------------------------------
WARNING: There is at least one non-excluded one OpenFabrics device found,
but there are no active ports detected (or Open MPI was unable to use
them).  This is most certainly not what you wanted.  Check your
cables, subnet manager configuration, etc.  The openib BTL will be
ignored for this job.

  Local host: c01b01n06
--------------------------------------------------------------------------
--------------------------------------------------------------------------
WARNING: There was an error initializing an OpenFabrics device.

  Local host:   c01b01n06
  Local device: mlx5_0
--------------------------------------------------------------------------


           ************************************************************
           *        Program running with 60 parallel MPI-processes    *
           *              working on a common directory               *
           ************************************************************

-------------------------------------------------------------------------------------------
                                      ORCA LEAN-SCF
                              memory conserving SCF solver
-------------------------------------------------------------------------------------------

--------------------
CPCM SOLVATION MODEL
--------------------
CPCM parameters:
  Epsilon                                         ...      33.4280
  Refrac                                          ...       1.3288
  Rsolv                                           ...       1.3000
  Surface type                                    ... GAUSSIAN VDW
  Discretization scheme                           ... Constant charge density
    Threshold for H atoms                         ...       5.0000 (charges/Ang^2)
    Threshold for non-H atoms                     ...       5.0000 (charges/Ang^2)
  Epsilon function type                           ...         CPCM
Solvent:                                          ... METHANOL
Radii:
  Scheme                                          ... Element-dependent radii
  Radius for C  used is    3.8550 Bohr (=   2.0400 Ang.)
  Radius for O  used is    3.4469 Bohr (=   1.8240 Ang.)
  Radius for H  used is    2.4944 Bohr (=   1.3200 Ang.)
Calculating surface                               ...        done! (  0.0s)
Cavity surface points                             ...         6126
Cavity Volume                                     ...    4545.6190
Cavity Surface-area                               ...    2027.6850
Calculating surface distance matrix               ...        done! (  0.2s)
Performing Cholesky decomposition & store         ...        done! (  0.6s)
Overall time for CPCM initialization              ...                 0.9s

[c01b01n06:47620] 6 more processes have sent help message help-mpi-btl-openib.txt / no active ports found
[c01b01n06:47620] Set MCA parameter "orte_base_help_aggregate" to 0 to see all help / error messages
[c01b01n06:47620] 52 more processes have sent help message help-mpi-btl-openib.txt / error in device init
----------------------------------------D-I-I-S--------------------------------------------
Iteration    Energy (Eh)           Delta-E    RMSDP     MaxDP     DIISErr   Damp  Time(sec)
-------------------------------------------------------------------------------------------
               ***  Starting incremental Fock matrix formation  ***
    1    -2033.0141667483585479     0.00e+00  8.41e-03  2.69e-01  2.35e-01  0.700  11.5
    2    -2033.4247961700857559    -4.11e-01  7.07e-03  2.13e-01  8.04e-02  0.700   9.3
                               ***Turning on AO-DIIS***
    3    -2033.5774028278383412    -1.53e-01  2.89e-03  6.88e-02  2.35e-02  0.700   8.9
    4    -2033.6698020401163376    -9.24e-02  4.91e-03  7.37e-02  1.12e-02  0.000   6.8
    5    -2033.8747325431531863    -2.05e-01  1.44e-03  4.31e-02  4.62e-03  0.000   7.2
                              *** Initializing SOSCF ***
---------------------------------------S-O-S-C-F--------------------------------------
Iteration    Energy (Eh)           Delta-E    RMSDP     MaxDP     MaxGrad    Time(sec)
--------------------------------------------------------------------------------------
    6    -2033.8760981040413753    -1.37e-03  4.60e-04  1.30e-02  1.51e-03     8.9
               *** Restarting incremental Fock matrix formation ***
    7    -2033.8762066025574313    -1.08e-04  3.33e-04  7.91e-03  1.29e-04     6.6
    8    -2033.8761768348458645     2.98e-05  8.08e-05  1.94e-03  6.89e-04     6.3
    9    -2033.8762229709045641    -4.61e-05  7.15e-05  1.40e-03  1.32e-04     6.8
   10    -2033.8762221688893987     8.02e-07  2.84e-05  8.82e-04  1.41e-04     8.4
                 **** Energy Check signals convergence ****

               *****************************************************
               *                     SUCCESS                       *
               *           SCF CONVERGED AFTER  10 CYCLES          *
               *****************************************************

             **** ENERGY FILE WAS UPDATED (nmr-conf-1.en.tmp) ****

----------------
TOTAL SCF ENERGY
----------------

Total Energy       :      -2033.87622344936244 Eh          -55344.58570 eV

Components:
Nuclear Repulsion  :       5826.98072055636476 Eh          158560.20645 eV
Electronic Energy  :      -7860.80720354817186 Eh         -213903.43865 eV
One Electron Energy:     -14382.09614172577130 Eh         -391356.73221 eV
Two Electron Energy:       6521.28893817759945 Eh          177453.29356 eV
CPCM Dielectric    :         -0.04974045755504 Eh              -1.35351 eV

Virial components:
Potential Energy   :      -4061.12606882863838 Eh         -110508.85849 eV
Kinetic Energy     :       2027.24984537927571 Eh           55164.27279 eV
Virial Ratio       :          2.00326865387865

DFT components:
N(Alpha)           :      157.000090040123 electrons
N(Beta)            :      157.000090040123 electrons
N(Total)           :      314.000180080246 electrons
E(X)               :     -268.090861169779 Eh       
E(C)               :      -10.606428985020 Eh       
E(XC)              :     -278.697290154799 Eh       

CPCM Solvation Model Properties:
Surface-charge          :         -0.04253320120200
Corrected charge        :         -0.00000000000000
Outlying charge corr.   :          0.00007887255739 Eh               0.00215 eV
Free-energy (cav+disp)  :  This term is not implemented in the current solvation scheme

---------------
SCF CONVERGENCE
---------------

  Last Energy change         ...   -8.0202e-07  Tolerance :   1.0000e-06
  Last MAX-Density change    ...    8.8164e-04  Tolerance :   1.0000e-05
  Last RMS-Density change    ...    2.8411e-05  Tolerance :   1.0000e-06
  Last DIIS Error            ...    1.5119e-03  Tolerance :   1.0000e-06
  Last Orbital Gradient      ...    1.4140e-04  Tolerance :   5.0000e-05
  Last Orbital Rotation      ...    2.2572e-04  Tolerance :   5.0000e-05


----------------
ORBITAL ENERGIES
----------------

  NO   OCC          E(Eh)            E(eV) 
   0   2.0000     -18.917226      -514.7639 
   1   2.0000     -18.916830      -514.7531 
   2   2.0000     -18.915978      -514.7299 
   3   2.0000     -18.911616      -514.6112 
   4   2.0000     -18.909375      -514.5503 
   5   2.0000     -18.907035      -514.4866 
   6   2.0000     -18.903574      -514.3924 
   7   2.0000     -18.891629      -514.0674 
   8   2.0000     -18.879245      -513.7304 
   9   2.0000     -18.877701      -513.6883 
  10   2.0000     -18.864145      -513.3195 
  11   2.0000     -10.043983      -273.3107 
  12   2.0000     -10.042629      -273.2738 
  13   2.0000     -10.042274      -273.2642 
  14   2.0000     -10.041763      -273.2503 
  15   2.0000     -10.041033      -273.2304 
  16   2.0000     -10.040865      -273.2258 
  17   2.0000     -10.040039      -273.2034 
  18   2.0000     -10.038280      -273.1555 
  19   2.0000     -10.034840      -273.0619 
  20   2.0000     -10.034243      -273.0456 
  21   2.0000     -10.033155      -273.0160 
  22   2.0000     -10.033024      -273.0125 
  23   2.0000     -10.032219      -272.9905 
  24   2.0000     -10.031444      -272.9695 
  25   2.0000     -10.029919      -272.9280 
  26   2.0000     -10.020986      -272.6849 
  27   2.0000      -9.989370      -271.8246 
  28   2.0000      -9.987592      -271.7762 
  29   2.0000      -9.986205      -271.7384 
  30   2.0000      -9.984515      -271.6925 
  31   2.0000      -9.983551      -271.6662 
  32   2.0000      -9.983135      -271.6549 
  33   2.0000      -9.982999      -271.6512 
  34   2.0000      -9.981982      -271.6236 
  35   2.0000      -9.981580      -271.6126 
  36   2.0000      -9.980209      -271.5753 
  37   2.0000      -9.980195      -271.5749 
  38   2.0000      -9.979466      -271.5551 
  39   2.0000      -9.976661      -271.4788 
  40   2.0000      -9.975903      -271.4581 
  41   2.0000      -9.974382      -271.4167 
  42   2.0000      -1.012149       -27.5420 
  43   2.0000      -1.010005       -27.4836 
  44   2.0000      -1.008016       -27.4295 
  45   2.0000      -0.999434       -27.1960 
  46   2.0000      -0.985012       -26.8035 
  47   2.0000      -0.982646       -26.7392 
  48   2.0000      -0.980652       -26.6849 
  49   2.0000      -0.962576       -26.1930 
  50   2.0000      -0.953524       -25.9467 
  51   2.0000      -0.948626       -25.8134 
  52   2.0000      -0.937038       -25.4981 
  53   2.0000      -0.797709       -21.7068 
  54   2.0000      -0.794337       -21.6150 
  55   2.0000      -0.791611       -21.5408 
  56   2.0000      -0.758782       -20.6475 
  57   2.0000      -0.733651       -19.9637 
  58   2.0000      -0.717390       -19.5212 
  59   2.0000      -0.702097       -19.1050 
  60   2.0000      -0.698831       -19.0162 
  61   2.0000      -0.696185       -18.9442 
  62   2.0000      -0.694147       -18.8887 
  63   2.0000      -0.685734       -18.6598 
  64   2.0000      -0.670997       -18.2588 
  65   2.0000      -0.651084       -17.7169 
  66   2.0000      -0.649504       -17.6739 
  67   2.0000      -0.646116       -17.5817 
  68   2.0000      -0.643443       -17.5090 
  69   2.0000      -0.620475       -16.8840 
  70   2.0000      -0.615925       -16.7602 
  71   2.0000      -0.610426       -16.6105 
  72   2.0000      -0.578731       -15.7481 
  73   2.0000      -0.564159       -15.3516 
  74   2.0000      -0.558680       -15.2025 
  75   2.0000      -0.556758       -15.1502 
  76   2.0000      -0.546157       -14.8617 
  77   2.0000      -0.542116       -14.7517 
  78   2.0000      -0.538545       -14.6545 
  79   2.0000      -0.532621       -14.4934 
  80   2.0000      -0.510591       -13.8939 
  81   2.0000      -0.508976       -13.8499 
  82   2.0000      -0.502832       -13.6827 
  83   2.0000      -0.494652       -13.4602 
  84   2.0000      -0.481260       -13.0958 
  85   2.0000      -0.477692       -12.9987 
  86   2.0000      -0.476966       -12.9789 
  87   2.0000      -0.473099       -12.8737 
  88   2.0000      -0.466038       -12.6816 
  89   2.0000      -0.455837       -12.4039 
  90   2.0000      -0.451197       -12.2777 
  91   2.0000      -0.450595       -12.2613 
  92   2.0000      -0.447556       -12.1786 
  93   2.0000      -0.443488       -12.0679 
  94   2.0000      -0.439821       -11.9681 
  95   2.0000      -0.432814       -11.7775 
  96   2.0000      -0.428021       -11.6470 
  97   2.0000      -0.427446       -11.6314 
  98   2.0000      -0.422554       -11.4983 
  99   2.0000      -0.421047       -11.4573 
 100   2.0000      -0.417583       -11.3630 
 101   2.0000      -0.410745       -11.1769 
 102   2.0000      -0.406738       -11.0679 
 103   2.0000      -0.401292       -10.9197 
 104   2.0000      -0.398533       -10.8446 
 105   2.0000      -0.397456       -10.8153 
 106   2.0000      -0.395719       -10.7681 
 107   2.0000      -0.389686       -10.6039 
 108   2.0000      -0.385043       -10.4776 
 109   2.0000      -0.381867       -10.3911 
 110   2.0000      -0.381649       -10.3852 
 111   2.0000      -0.379862       -10.3366 
 112   2.0000      -0.377540       -10.2734 
 113   2.0000      -0.375282       -10.2119 
 114   2.0000      -0.372503       -10.1363 
 115   2.0000      -0.371463       -10.1080 
 116   2.0000      -0.367822       -10.0089 
 117   2.0000      -0.363199        -9.8832 
[...]
 
 sDSO           223.473          237.952           55.952  iso=     172.459
 sPSO          -199.373         -212.459          -20.959  iso=    -144.264
        ---------------  ---------------  ---------------
 Total           24.100           25.493           34.993  iso=      28.196

 Orientation: 
  X           0.8211291    0.5307860    0.2097932
  Y          -0.0789980    0.4697392   -0.8792635
  Z          -0.5652489    0.7054157    0.4276476

 --------------
 Nucleus  73H :
 --------------

Diamagnetic contribution to the shielding tensor (ppm) : 
           190.241        -57.274       -13.264
           171.062        -27.690       -11.750
            28.513          5.362       162.846

Paramagnetic contribution to the shielding tensor (ppm): 
          -162.938         59.608        13.762
          -166.988         57.673        10.127
           -29.502         -7.925      -136.879

Total shielding tensor (ppm): 
            27.303          2.334         0.498
             4.074         29.982        -1.623
            -0.990         -2.563        25.967


 Diagonalized sT*s matrix:
 
 sDSO            71.513          162.452           91.432  iso=     108.466
 sPSO           -47.142         -136.220          -58.782  iso=     -80.715
        ---------------  ---------------  ---------------
 Total           24.371           26.232           32.650  iso=      27.751

 Orientation: 
  X           0.5440422    0.6593498   -0.5189181
  Y          -0.5510311   -0.1856301   -0.8135761
  Z          -0.6327581    0.7285598    0.2623316

 --------------
 Nucleus  74H :
 --------------

Diamagnetic contribution to the shielding tensor (ppm) : 
           177.168        -55.803       -15.134
           145.196         -4.928        -6.159
           -51.351        102.272       176.976

Paramagnetic contribution to the shielding tensor (ppm): 
          -151.344         53.100        11.892
          -146.232         33.279         5.957
            49.080       -100.439      -146.966

Total shielding tensor (ppm): 
            25.825         -2.703        -3.242
            -1.036         28.351        -0.203
            -2.271          1.832        30.009


 Diagonalized sT*s matrix:
 
 sDSO           173.963           -7.033          182.287  iso=     116.405
 sPSO          -149.935           35.120         -150.216  iso=     -88.344
        ---------------  ---------------  ---------------
 Total           24.027           28.086           32.071  iso=      28.062

 Orientation: 
  X           0.8865281   -0.0858115   -0.4546475
  Y           0.3012585    0.8528632    0.4264594
  Z           0.3511570   -0.5150346    0.7819386

 --------------
 Nucleus  75H :
 --------------

Diamagnetic contribution to the shielding tensor (ppm) : 
            53.477        -21.602        43.625
           -12.730         13.013        40.770
            65.202       -199.700       -51.511

Paramagnetic contribution to the shielding tensor (ppm): 
            -9.994         21.272       -43.401
            10.972          6.227       -44.339
           -65.300        197.297        70.172

Total shielding tensor (ppm): 
            43.482         -0.330         0.224
            -1.758         19.240        -3.569
            -0.099         -2.403        18.660


 Diagonalized sT*s matrix:
 
 sDSO           -99.735           58.857           55.857  iso=       4.993
 sPSO           115.674          -36.938          -12.332  iso=      22.135
        ---------------  ---------------  ---------------
 Total           15.939           21.919           43.525  iso=      27.128

 Orientation: 
  X           0.0137317    0.0315617   -0.9994075
  Y           0.6851989    0.7276353    0.0323935
  Z           0.7282265   -0.6852378   -0.0116343

 --------------
 Nucleus  76H :
 --------------

Diamagnetic contribution to the shielding tensor (ppm) : 
           -94.848         77.680        -5.474
          -120.477        118.520         9.625
          -107.882        143.393       -62.603

Paramagnetic contribution to the shielding tensor (ppm): 
           122.331        -84.862         6.931
           112.979        -83.320        -5.075
           108.264       -138.684        88.042

Total shielding tensor (ppm): 
            27.483         -7.182         1.458
            -7.498         35.200         4.550
             0.382          4.710        25.439


 Diagonalized sT*s matrix:
 
 sDSO           -46.382         -113.795          121.246  iso=     -12.977
 sPSO            67.007          140.817          -80.771  iso=      42.351
        ---------------  ---------------  ---------------
 Total           20.625           27.022           40.474  iso=      29.374

 Orientation: 
  X           0.6245188   -0.6241378   -0.4694979
  Y           0.5045098   -0.1364982    0.8525480
  Z          -0.5961930   -0.7692986    0.2296380

 --------------
 Nucleus  77H :
 --------------

Diamagnetic contribution to the shielding tensor (ppm) : 
           -33.280         84.640        29.967
           -53.547        116.364        27.184
           -39.546        171.834        35.167

Paramagnetic contribution to the shielding tensor (ppm): 
            50.825        -78.426       -31.855
            60.485        -77.136       -30.867
            37.099       -174.653       -11.722

Total shielding tensor (ppm): 
            17.544          6.213        -1.888
             6.938         39.228        -3.682
            -2.447         -2.819        23.444


 Diagonalized sT*s matrix:
 
 sDSO           -39.443           85.747           71.946  iso=      39.417
 sPSO            54.951          -62.857          -30.129  iso=     -12.678
        ---------------  ---------------  ---------------
 Total           15.509           22.890           41.817  iso=      26.739

 Orientation: 
  X           0.9538084   -0.1101072   -0.2795102
  Y          -0.2469990    0.2421747   -0.9382659
  Z           0.1710001    0.9639646    0.2037919

 --------------
 Nucleus  78H :
 --------------

Diamagnetic contribution to the shielding tensor (ppm) : 
          -113.222         48.288       -53.793
          -139.710         81.726       -48.476
          -114.421        122.131      -126.404

Paramagnetic contribution to the shielding tensor (ppm): 
           136.568        -40.657        49.331
           147.883        -53.814        49.720
           111.437       -120.230       152.731

Total shielding tensor (ppm): 
            23.346          7.631        -4.462
             8.172         27.912         1.245
            -2.984          1.901        26.327


 Diagonalized sT*s matrix:
 
 sDSO           -76.021          -46.703          -35.176  iso=     -52.633
 sPSO            91.941           74.372           69.171  iso=      78.495
        ---------------  ---------------  ---------------
 Total           15.921           27.669           33.995  iso=      25.862

 Orientation: 
  X          -0.7611813   -0.1793459   -0.6232480
  Y           0.5489607    0.3335168   -0.7664260
  Z          -0.3453190    0.9255277    0.1554129

 --------------
 Nucleus  79H :
 --------------

Diamagnetic contribution to the shielding tensor (ppm) : 
          -136.098         56.163       -18.577
          -159.466         88.839       -19.306
             0.813         -3.426      -106.370

Paramagnetic contribution to the shielding tensor (ppm): 
           162.588        -52.907        17.763
           163.248        -57.800        19.196
            -2.835          1.883       132.255

Total shielding tensor (ppm): 
            26.491          3.256        -0.814
             3.782         31.040        -0.111
            -2.021         -1.543        25.885


 Diagonalized sT*s matrix:
 
 sDSO           -72.601          -71.062           -9.966  iso=     -51.209
 sPSO            96.712           97.141           43.190  iso=      79.014
        ---------------  ---------------  ---------------
 Total           24.111           26.079           33.225  iso=      27.805

 Orientation: 
  X           0.7990353   -0.3458157    0.4918883
  Y          -0.3626322    0.3753913    0.8529826
  Z           0.4796253    0.8599377   -0.1745470

 --------------
 Nucleus  80H :
 --------------

Diamagnetic contribution to the shielding tensor (ppm) : 
          -143.838        -31.525        -9.753
          -181.170          8.751       -25.093
           118.013       -116.014      -176.056

Paramagnetic contribution to the shielding tensor (ppm): 
           167.941         29.845         9.780
           180.789         21.403        20.572
          -116.830        113.340       206.214

Total shielding tensor (ppm): 
            24.103         -1.680         0.028
            -0.381         30.153        -4.521
             1.183         -2.675        30.158


 Diagonalized sT*s matrix:
 
 sDSO          -172.982         -147.588            9.427  iso=    -103.714
 sPSO           196.915          174.180           24.463  iso=     131.853
        ---------------  ---------------  ---------------
 Total           23.933           26.592           33.889  iso=      28.138

 Orientation: 
  X           0.9888472   -0.0942476    0.1153195
  Y           0.1481330    0.7025690   -0.6960269
  Z          -0.0154210    0.7053468    0.7086946

 --------------
 Nucleus  81H :
 --------------

Diamagnetic contribution to the shielding tensor (ppm) : 
          -106.747         60.053       -33.496
          -155.581        109.188       -29.679
            56.470        -82.554       -79.710

Paramagnetic contribution to the shielding tensor (ppm): 
           134.905        -64.139        29.998
           154.491        -79.487        29.494
           -59.464         85.268       105.740

Total shielding tensor (ppm): 
            28.158         -4.085        -3.499
            -1.090         29.701        -0.185
            -2.994          2.714        26.030


 Diagonalized sT*s matrix:
 
 sDSO           -92.084           13.431            1.384  iso=     -25.756
 sPSO           115.712           13.853           31.593  iso=      53.720
        ---------------  ---------------  ---------------
 Total           23.628           27.284           32.977  iso=      27.963

 Orientation: 
  X           0.6235365   -0.4875141    0.6111728
  Y           0.1018316   -0.7244504   -0.6817638
  Z           0.7751339    0.4873413   -0.4020770



--------------------------------
CHEMICAL SHIELDING SUMMARY (ppm)
--------------------------------


  Nucleus  Element    Isotropic     Anisotropy
  -------  -------  ------------   ------------
      0       C           25.303        130.058 
      1       C           46.053         99.839 
      2       C           27.046        122.233 
      3       C           74.489        133.005 
      4       C           41.227        197.395 
      5       C           76.894        142.322 
      6       C          139.340         18.529 
      7       C          133.374         13.330 
      8       C          135.280         20.872 
      9       C          141.270         22.380 
     10       C           45.529        184.678 
     11       C           69.608        154.299 
     12       C           30.460        123.248 
     13       C           31.782        126.732 
     14       C           68.269        143.766 
     15       C           58.070        148.586 
     16       C          111.925         63.318 
     17       C          109.942         67.330 
     23       C           93.387         23.054 
     24       C          102.674         41.269 
     25       C           43.309        169.287 
     26       C          110.967         57.451 
     28       C           74.537        166.685 
     29       C           32.328        117.967 
     30       C           32.175        122.952 
     31       C           67.708        144.704 
     32       C           63.181        162.791 
     33       C          124.747         79.632 
     34       C          125.576         76.913 
     35       C          124.658         76.189 
     41       C          124.911         76.968 
     42       H           25.803          8.051 
     43       H           25.906          7.730 
     44       H           29.022          6.194 
     45       H           29.396          4.020 
     46       H           30.111          6.542 
     47       H           29.859          7.339 
     48       H           29.431          7.577 
     49       H           29.980          7.324 
     50       H           25.709          8.892 
     51       H           24.985          3.233 
     52       H           25.305          5.618 
     53       H           27.550          7.054 
     54       H           27.472          6.225 
     55       H           28.105          5.790 
     56       H           27.759          5.448 
     57       H           25.780         12.622 
     58       H           26.327          3.899 
     59       H           26.866          6.657 
     60       H           27.340          5.917 
     61       H           27.702          6.683 
     62       H           28.982         19.407 
     63       H           25.329          9.247 
     64       H           24.823          3.192 
     65       H           25.012          6.566 
     66       H           27.897          8.277 
     67       H           27.583          9.245 
     68       H           27.980          6.589 
     69       H           28.012          8.449 
     70       H           27.671          9.392 
     71       H           28.511          7.101 
     72       H           28.196         10.196 
     73       H           27.751          7.349 
     74       H           28.062          6.014 
     75       H           27.128         24.596 
     76       H           29.374         16.651 
     77       H           26.739         22.618 
     78       H           25.862         12.200 
     79       H           27.805          8.130 
     80       H           28.138          8.627 
     81       H           27.963          7.520 


NMR shielding tensor and spin rotation calculation done in   2.6 sec 

Maximum memory used throughout the entire PROP-calculation: 372.5 MB
--------------------------------------------------------------------------
WARNING: There was an error initializing an OpenFabrics device.

  Local host:   c01b01n06
  Local device: mlx5_0
--------------------------------------------------------------------------
--------------------------------------------------------------------------
WARNING: There is at least one non-excluded one OpenFabrics device found,
but there are no active ports detected (or Open MPI was unable to use
them).  This is most certainly not what you wanted.  Check your
cables, subnet manager configuration, etc.  The openib BTL will be
ignored for this job.

  Local host: c01b01n06
--------------------------------------------------------------------------
[c01b01n06:49573] 54 more processes have sent help message help-mpi-btl-openib.txt / error in device init
[c01b01n06:49573] Set MCA parameter "orte_base_help_aggregate" to 0 to see all help / error messages
[c01b01n06:49573] 4 more processes have sent help message help-mpi-btl-openib.txt / no active ports found

--------------------------------
SUGGESTED CITATIONS FOR THIS RUN
--------------------------------

Below you find a list of papers that are relevant to this ORCA run
We neither can nor want to force you to cite these papers, but we appreciate if you do
You receive ORCA, which is the product of decades of hard work by many enthusiastic individuals, for free
The only thing we kindly ask in return is that you cite our papers,
We deeply appreciate it, if you show your appreciation for ORCA by not just citing the generic ORCA reference.

Please note that relegating all ORCA citations to the supporting information does *not* help us.
SI sections are not indexed - citations you put there will not count into any citation statistics
But we need these citations in order to attract the funding resources that allow us to do what we are doing

Therefore, if you are a happy ORCA user, please consider citing a few of the papers listed below in the main body of your paper

In addition to the list printed below, the program has created the file nmr-conf-1.bibtex that contains the list in bibtex format
You can import this file easily into all common literature databanks and citation aid programs


List of essential papers. We consider these as the minimum necessary citations

  1. Neese, F.
     Software update: the ORCA program system, version 6.0
     WIRES Comput. Molec. Sci. 2025 15(1), e70019
     doi.org/10.1002/wcms.7019

List of papers to cite with high priority. The work reported in these papers was absolutely
necessary for this run to complete.
Our perspective: the developers of density functionals and basis sets usually get cited in chemistry papers
Good! But without the algorithms to do something with them, the functionals or basis sets would not do anything.
Hence, in our opinion, the algorithm design and method developments papers are equally worthy of getting cited

  1. Neese, F.
     An improvement of the resolution of the identity approximation for the formation of the Coulomb matrix
     J. Comp. Chem. 2003 24(14), 1740-1747
     doi.org/10.1002/jcc.10318
  2. Stoychev, G.L.; Auer, A.A.; Neese, F.
     Automatic Generation of Auxiliary Basis Sets
     J. Theo. Comp. Chem. 2017 13 , 554-562
     doi.org/10.1021/acs.jctc.6b01041
  3. Stoychev, G.L.; Auer, A.A.; Izsak, R.; Neese, F.
     Self-Consistent Field Calculation of Nuclear Magnetic Resonance Chemical Shielding Constants Using Gauge-Including Atomic Orbitals and Approximate Two-Electron Integrals
     J. Chem. Theory Comput. 2018 14(2), 619-637
     doi.org/10.1021/acs.jctc.7b01006
  4. Garcia-Rates, M.; Neese, F.
     Effect of the Solute Cavity on the Solvation Energy and its Derivatives within the Framework of the Gaussian Charge Scheme
     J. Comput. Chem. 2020 41 , 922-939
     doi.org/10.1002/jcc.26139
  5. Neese, F.
     The SHARK Integral Generation and Digestion System
     J. Comp. Chem. 2022 44(3), 381
     doi.org/10.1002/jcc.26942

List of suggested additional citations. These are papers that are important in the 'surrounding' of 
of this run, or papers that preceded the highly important papers. If you like your results we are grateful for a citation.

  1. Neese, F.
     The ORCA program system
     WIRES Comput. Molec. Sci. 2012 2(1), 73-78
     doi.org/10.1002/wcms.81
  2. Neese, F.
     Software update: the ORCA program system, version 4.0
     WIRES Comput. Molec. Sci. 2018 8(1), 1-6
     doi.org/10.1002/wcms.1327
  3. Neese, F.; Wennmohs, F.; Becker, U.; Riplinger, C.
     The ORCA quantum chemistry program package
     J. Chem. Phys. 2020 152(22), 224108
     doi.org/10.1063/5.0004608
  4. Neese, F.
     Software update: The ORCA program system—Version 5.0
     WIRES Comput. Molec. Sci. 2022 12(1), e1606
     doi.org/10.1002/wcms.1606

List of optional additional citations

  1. Neese, F.
     Approximate second-order SCF convergence for spin unrestricted wavefunctions
     Chem. Phys. Lett. 2000 325(1-3), 93-98
     doi.org/10.1016/s0009-2614(00)00662-x

Timings for individual modules:

Sum of individual times          ...      289.033 sec (=   4.817 min)
Startup calculation              ...       92.512 sec (=   1.542 min)  32.0 %
SCF iterations                   ...      123.151 sec (=   2.053 min)  42.6 %
Property integrals               ...       52.930 sec (=   0.882 min)  18.3 %
SCF Response                     ...       13.435 sec (=   0.224 min)   4.6 %
Property calculations            ...        7.006 sec (=   0.117 min)   2.4 %
                             ****ORCA TERMINATED NORMALLY****
TOTAL RUN TIME: 0 days 0 hours 5 minutes 13 seconds 637 msec
