
                                 *****************
                                 * O   R   C   A *
                                 *****************

                                            #,                                       
                                            ###                                      
                                            ####                                     
                                            #####                                    
                                            ######                                   
                                           ########,                                 
                                     ,,################,,,,,                         
                               ,,#################################,,                 
                          ,,##########################################,,             
                       ,#########################################, ''#####,          
                    ,#############################################,,   '####,        
                  ,##################################################,,,,####,       
                ,###########''''           ''''###############################       
              ,#####''   ,,,,##########,,,,          '''####'''          '####       
            ,##' ,,,,###########################,,,                        '##       
           ' ,,###''''                  '''############,,,                           
         ,,##''                                '''############,,,,        ,,,,,,###''
      ,#''                                            '''#######################'''  
     '                                                          ''''####''''         
             ,#######,   #######,   ,#######,      ##                                
            ,#'     '#,  ##    ##  ,#'     '#,    #''#        ,####,    ,#,          
            ##       ##  ##   ,#'  ##            #'  '#       #'       ,# #          
            ##       ##  #######   ##           ,######,      #####,      #          
            '#,     ,#'  ##    ##  '#,     ,#' ,#      #,     #,   #      #          
             '#######'   ##     ##  '#######'  #'      '#     '####' #    #          



                #########################################################
                #                        -***-                          #
                #          Department of theory and spectroscopy        #
                #                                                       #
                #                      Frank Neese                      #
                #                                                       #
                #     Directorship, Architecture, Infrastructure        #
                #                    SHARK, DRIVERS                     #
                #        Core code/Algorithms in most modules           #
                #                                                       #
                #        Max Planck Institute fuer Kohlenforschung      #
                #                Kaiser Wilhelm Platz 1                 #
                #                 D-45470 Muelheim/Ruhr                 #
                #                      Germany                          #
                #                                                       #
                #                  All rights reserved                  #
                #                        -***-                          #
                #########################################################


                         Program Version 6.1.0-f.0  -   RELEASE   -


 With contributions from (in alphabetic order):
[Max-Planck-Institut fuer Kohlenforschung]                               
  Daniel Aravena         : Magnetic Suceptibility                        
  Michael Atanasov       : Ab Initio Ligand Field Theory (pilot matlab implementation)
  Alexander A. Auer      : GIAO ZORA, VPT2 properties, NMR spectrum      
  Ute Becker             : All parallelization in ORCA, NUMFREQ, NUMCALC 
  Giovanni Bistoni       : ED, misc. LED, open-shell LED, HFLD           
  Dmytro Bykov           : pre 5.0 version of the SCF Hessian            
  Marcos Casanova-Páez   : Triplet and SCS-CIS(D). UHF-(DLPNO)-IP/EA/STEOM-CCSD. UHF-CVS-IP/STEOM-CCSD   
  Vijay G. Chilkuri      : MRCI spin determinant printing, contributions to CSF-ICE 
  Pauline Colinet        : FMM embedding                                 
  Dipayan Datta          : RHF DLPNO-CCSD density                        
  Achintya Kumar Dutta   : EOM-CC, STEOM-CC                              
  Nicolas Foglia         : Exact transition moments, OPA infrastructure, MCD improvements    
  Dmitry Ganyushin       : Spin-Orbit,Spin-Spin,Magnetic field MRCI      
  Miquel Garcia-Rates    : C-PCM and meta-GGA Hessian, CCSD/C-PCM, Gaussian charge scheme 
  Tiago L. C. Gouveia    : GS-ROHF, GS-ROCIS                             
  Yang Guo               : DLPNO-NEVPT2, F12-NEVPT2, CIM, IAO-localization        
  Andreas Hansen         : Spin unrestricted coupled pair/coupled cluster methods 
  Ingolf Harden          : AUTO-CI MPn and infrastructure                
  Benjamin Helmich-Paris : MC-RPA, TRAH-(SCF,CASSCF), AVAS, COSX integrals, SCF dyn. polar., MC-PDFT, srDFT 
  Lee Huntington         : MR-EOM, pCC                                   
  Robert Izsak           : Overlap fitted RIJCOSX, COSX-SCS-MP3, EOM     
  Riya Kayal             : Wick's Theorem for AUTO-CI, AUTO-CI UHF-CCSDT 
  Emily Kempfer          : AUTO-CI RHF CISDT and CCSDT, approximate NEVPT4
  Christian Kollmar      : KDIIS, OOCD, Brueckner-CCSD(T), CCSD density, CASPT2, CASPT2-K, improved NEVPT2 
  Axel Koslowski         : Symmetry handling                             
  Simone Kossmann        : meta-GGA functionals, TD-DFT gradient, OOMP2, (MP2 Hessian; deprecated post 5.0) 
  Lucas Lang             : DCDCAS, Hyperfine gauge corrections, ICE-SOC+SSC
  Marvin Lechner         : AUTO-CI (C++ implementation), FIC-MRCC        
  Spencer Leger          : CASSCF response                               
  Dagmar Lenk            : GEPOL surface, SMD, ORCA-2-JSON               
  Dimitrios Liakos       : Extrapolation schemes; Compound Job, Property file
  Dimitrios Manganas     : Further ROCIS development; embedding schemes. LFT, Crystal Embedding 
  Dimitrios Pantazis     : SARC Basis sets                               
  Anastasios Papadopoulos: AUTO-CI, single reference methods and gradients 
  Taras Petrenko         : pre 6.0 DFT Hessian and TD-DFT gradient,  ECA, NRVS 
  Petra Pikulova         : Analytic Raman intensities                    
  Peter Pinski           : DLPNO-MP2, DLPNO-MP2 Gradient                 
  Shashank Vittal Rao    : ES-AILFT, MagRelax                            
  Christoph Reimann      : Effective Core Potentials                     
  Marius Retegan         : Local ZFS, SOC                                
  Christoph Riplinger    : Optimizer, TS searches, QM/MM, DLPNO-CCSD(T), (RO)-DLPNO pert. Triples 
  Michael Roemelt        : Original ROCIS implementation, recursive CI coupling coefficients
  Masaaki Saitow         : Open-shell DLPNO-CCSD energy and density      
  Barbara Sandhoefer     : DKH picture change effects                    
  Yorick L. A. Schmerwitz: GMF and freeze-and-release deltaSCF, NEB S-IDPP initial path                    
  Kantharuban Sivalingam : CASSCF convergence/infrastructure, NEVPT2, NEVPT3, NEVPT4(SD), FIC-MRCI and CEPA variants
  Bernardo de Souza      : ESD, SOC TD-DFT                               
  Georgi L. Stoychev     : AutoAux, RI-MP2 NMR, DLPNO-MP2 response, X2C  
  Van Anh Tran           : RI-MP2 g-tensors                              
  Willem Van den Heuvel  : Paramagnetic NMR                              
  Zikuan Wang            : NOTCH, Electric field optimization            
  Frank Wennmohs         : Technical directorship and infrastructure     
  Hang Xu                : AUTO-CI-Response properties                   
                                                                         
[FACCTs GmbH]                                                            
  Markus Bursch, Nicolas Foglia, Miquel Garcia-Rates, Ingolf Harden, Hagen Neugebauer, Anastasios Papadopoulos, 
  Christoph Riplinger, Bernardo de Souza, Georgi L. Stoychev                                                    
                                                                 
  APM, various basis sets, CI-OPT, improved COSX, DLPNO-Multilevel,           
  DOCKER, DRACO, updates on ESD, Fragmentator, GOAT, IRC, LR-CPCM, L-BFGS, MBIS, meta-GGA TD-DFT gradient, ML-optimized integration grids, 
  MM, NACMEs, nearIR, NEB, NEB-TS, NL-DFT gradient (VV10), 2- and 3-layer-ONIOM, interface openCOSMO-RS, QMMM,   
  Crystal-QMMM, RESP, rigid body optimization, SF, symmetry and pop. for TD-DFT, various functionals, SOLVATOR                                   
                                                                         
[Other institutions]                                                     
  V. Asgeirsson          : NEB                                           
  Christoph Bannwarth    : sTDA-DFT, sTD-DFT, PBEh-3c, B97-3c, D3        
  Giovanni Bistoni       : ETS/NOCV, ADLD/ADEX, COVALED                  
  Martin Brehm           : Molecular dynamics                            
  Ronald Cardenas        : ETS/NOCV                                      
  Martina Colucci        : COVALED                                       
  Sebastian Ehlert       : rSCAN, r2SCAN, r2SCAN-3c, D4, dhf basis sets  
  Marvin Friede          : D4 for Fr, Ra, Ac-Lr                          
  Lars Goerigk           : TD-DFT with DH, B97 family of functionals     
  Stefan Grimme          : VdW corrections, initial TS optimization, DFT functionals, gCP, sTDA/sTD-DF 
  Waldemar Hujo          : DFT-NL                                        
  H. Jonsson             : NEB                                           
  Holger Kruse           : gCP                                           
  Marcel Mueller         : wB97X-3c, vDZP basis set                      
  Hagen Neugebauer       : wr2SCAN, Native XTB                           
  Gianluca Regni         : ADLD/ADEX                                     
  Tobias Risthaus        : pre 6.0 range-separated hybrid DFT and stability analysis
  Lukas Wittmann         : regularized MP2, r2SCAN double-hybrids, wr2SCAN        
                                                                         
We gratefully acknowledge several colleagues who have allowed us to      
interface, adapt or use parts of their codes:                            
  Ed Valeev, F. Pavosevic, A. Kumar             : LibInt (2-el integral package), F12 methods 
  Garnet Chan, S. Sharma, J. Yang, R. Olivares  : DMRG                   
  Ulf Ekstrom                                   : XCFun DFT Library      
  Mihaly Kallay                                 : mrcc  (arbitrary order and MRCC methods)
  Frank Weinhold                                : gennbo (NPA and NBO analysis)           
  Simon Mueller                                 : openCOSMO-RS                            
  Christopher J. Cramer and Donald G. Truhlar   : smd solvation model                     
  S Lehtola, MJT Oliveira, MAL Marques          : LibXC Library                           
  Liviu Ungur et al                             : ANISO software                          


 Your calculation uses the libint2 library for the computation of 2-el integrals
 For citations please refer to: http://libint.valeyev.net

 Your ORCA version has been built with support for libXC version: 7.0.0
 For citations please refer to: https://libxc.gitlab.io

 This ORCA versions uses:
   CBLAS   interface :  Fast vector & matrix operations
   LAPACKE interface :  Fast linear algebra routines
   SCALAPACK package :  Parallel linear algebra routines
   Shared memory     :  Shared parallel matrices
   BLAS/LAPACK       :  OpenBLAS 0.3.29  USE64BITINT DYNAMIC_ARCH NO_AFFINITY Cooperlake SINGLE_THREADED
        Core in use  :  Cooperlake
   Copyright (c) 2011-2014, The OpenBLAS Project


  ***********************************
  * Starting time: Tue Mar  3 21:05:09 2026
  * Host name:     c03b01n03
  * Process ID:    3199759
  * Working dir.:  /lustre1/jiangy/jiangy_liuxy/NMR/B9D7C2-SSSS-NMR/opt_conf
  ***********************************

NOTE: MaxCore=5000 MB was set to SCF,MP2,MDCI,CIPSI,MRCI,RASCI and CIS
      => If you want to overwrite this, your respective input block should be placed after the MaxCore statement


***************************************
The coordinates will be read from file: opt-conf-11.xyz
***************************************



Warning: The global flag for NMR shieldings has been found
         but shieldings for certain elements have also been explicitly requested in the EPRNMR block
         ==>> only the requested shieldings will be calculated

================================================================================

----- Orbital basis set information -----
Your calculation utilizes the basis: pcSseg-2
   F. Jensen, J. Chem. Theory Comput. 11, 132 (2015).

----- AuxJ basis set information -----
Your calculation utilizes the AutoAux generation procedure.
  G. L. Stoychev, A. A. Auer, F. Neese, J. Chem. Theory Comput. 13, 554 (2017)

----- AuxC basis set information -----
Your calculation utilizes the AutoAux generation procedure.
  G. L. Stoychev, A. A. Auer, F. Neese, J. Chem. Theory Comput. 13, 554 (2017)

----- AuxJK basis set information -----
Your calculation utilizes the AutoAux generation procedure.
  G. L. Stoychev, A. A. Auer, F. Neese, J. Chem. Theory Comput. 13, 554 (2017)

----- AuxX basis set information -----
Your calculation utilizes the AutoAux generation procedure.
  G. L. Stoychev, A. A. Auer, F. Neese, J. Chem. Theory Comput. 13, 554 (2017)

================================================================================
                                        WARNINGS
                       Please study these warnings very carefully!
================================================================================


================================================================================
                                       INPUT FILE
================================================================================
NAME = nmr-conf-11.inp
|  1> !TPSS PCSSEG-2 AUTOAUX NMR CPCM(Methanol)
|  2> 
|  3> %pal nprocs 60 end
|  4> %maxcore 5000
|  5> 
|  6> *XYZFILE 0 1 opt-conf-11.xyz
|  7> 
|  8> %EPRNMR
|  9>    NUCLEI = ALL C {SHIFT}
| 10>    NUCLEI = ALL H {SHIFT}
| 11>    TAU DOBSON
| 12> END
| 13> 
| 14> 
| 15>                          ****END OF INPUT****
================================================================================

                       ****************************
                       * Single Point Calculation *
                       ****************************

---------------------------------
CARTESIAN COORDINATES (ANGSTROEM)
---------------------------------
  C     29.030758  -27.028027   -0.444527
  C     28.946193  -27.325307    0.918373
  C     28.034939  -28.296634    1.361832
  C     27.195643  -28.927768    0.461254
  C     27.282091  -28.633882   -0.892782
  C     28.211389  -27.709742   -1.337845
  C     26.285817  -29.240042   -1.840024
  C     24.917371  -28.560773   -1.618317
  C     24.955302  -27.084646   -2.067528
  C     24.047108  -26.222449   -1.171460
  C     24.611641  -26.151855    0.219557
  C     25.754040  -25.388584    0.456716
  C     26.339558  -25.351164    1.707306
  C     25.787970  -26.110978    2.754320
  C     24.644038  -26.853073    2.523168
  C     24.060492  -26.871385    1.265562
  C     23.769098  -29.405040   -2.188783
  C     24.672401  -26.817934   -3.559306
  O     28.090521  -28.553176    2.701081
  O     29.911747  -26.050866   -0.812972
  O     29.639987  -26.675883    1.909299
  O     26.362115  -26.113437    3.984692
  O     27.442345  -24.607378    2.055978
  C     31.057339  -26.570365    1.832095
  C     31.696611  -27.981195    1.901902
  C     31.531354  -28.673749    0.562279
  C     31.434941  -25.725490    3.056263
  O     30.725741  -24.516654    3.077554
  C     30.706888  -29.785931    0.435864
  C     30.473892  -30.346619   -0.804969
  C     31.089232  -29.803195   -1.943031
  C     31.954613  -28.732179   -1.803584
  C     32.172847  -28.169314   -0.558061
  C     30.088899  -25.785576   -2.185173
  C     27.138145  -29.424798    3.260807
  C     27.994416  -23.744224    1.089190
  O     31.155457  -28.697374    2.977575
  O     23.838202  -29.663184   -3.574742
  O     23.335310  -26.948607   -3.953053
  O     29.658201  -31.429228   -1.054452
  O     30.842767  -30.327446   -3.174940
  C     29.037386  -32.048032    0.043911
  H     26.467594  -29.647527    0.800267
  H     28.281690  -27.506890   -2.394166
  H     26.191927  -30.310922   -1.639141
  H     26.620399  -29.104803   -2.870175
  H     24.751214  -28.544522   -0.535871
  H     25.980813  -26.740349   -1.897279
  H     23.989812  -25.220851   -1.601223
  H     23.038656  -26.635430   -1.157187
  H     26.174002  -24.818418   -0.357242
  H     24.213307  -27.404375    3.344756
  H     23.161281  -27.449237    1.108404
  H     23.733884  -30.358088   -1.640321
  H     22.818221  -28.891189   -2.030838
  H     25.322851  -27.458109   -4.172561
  H     24.937218  -25.776178   -3.768470
  H     27.166450  -25.579426    3.938015
  H     31.353509  -26.058927    0.911031
  H     32.766575  -27.863207    2.114475
  H     31.228918  -26.312399    3.962662
  H     32.496990  -25.475170    3.026771
  H     29.800979  -24.739261    2.900610
  H     30.256876  -30.197304    1.324456
  H     32.449603  -28.351529   -2.683101
  H     32.845150  -27.330385   -0.463241
  H     30.865771  -25.024371   -2.234799
  H     30.418563  -26.679029   -2.721981
  H     29.172649  -25.395465   -2.640236
  H     26.120547  -29.082740    3.057166
  H     27.265556  -30.449147    2.893010
  H     27.318160  -29.401661    4.333812
  H     28.771994  -23.179216    1.601288
  H     28.441776  -24.305713    0.265103
  H     27.240578  -23.053083    0.699969
  H     30.201462  -28.509856    3.009184
  H     24.665483  -30.118847   -3.763312
  H     23.140928  -27.894368   -4.016489
  H     30.259842  -31.089353   -3.055676
  H     28.363575  -31.353719    0.554773
  H     28.463919  -32.877075   -0.368799
  H     29.774282  -32.434566    0.754251

----------------------------
CARTESIAN COORDINATES (A.U.)
----------------------------
  NO LB      ZA    FRAG     MASS         X           Y           Z
   0 C     6.0000    0    12.011   54.860183  -51.075569   -0.840035
   1 C     6.0000    0    12.011   54.700377  -51.637347    1.735474
   2 C     6.0000    0    12.011   52.978357  -53.472889    2.573489
   3 C     6.0000    0    12.011   51.392317  -54.665559    0.871644
   4 C     6.0000    0    12.011   51.555680  -54.110195   -1.687113
   5 C     6.0000    0    12.011   53.311800  -52.363824   -2.528160
   6 C     6.0000    0    12.011   49.672996  -55.255672   -3.477141
   7 C     6.0000    0    12.011   47.087008  -53.972039   -3.058176
   8 C     6.0000    0    12.011   47.158686  -51.182564   -3.907061
   9 C     6.0000    0    12.011   45.442449  -49.553248   -2.213739
  10 C     6.0000    0    12.011   46.509262  -49.419843    0.414902
  11 C     6.0000    0    12.011   48.668082  -47.977470    0.863068
  12 C     6.0000    0    12.011   49.774551  -47.906757    3.226341
  13 C     6.0000    0    12.011   48.732202  -49.342597    5.204911
  14 C     6.0000    0    12.011   46.570483  -50.744953    4.768097
  15 C     6.0000    0    12.011   45.467741  -50.779559    2.391565
  16 C     6.0000    0    12.011   44.917085  -55.567472   -4.136200
  17 C     6.0000    0    12.011   46.624080  -50.678551   -6.726113
  18 O     8.0000    0    15.999   53.083393  -53.957683    5.104303
  19 O     8.0000    0    15.999   56.525011  -49.229002   -1.536294
  20 O     8.0000    0    15.999   56.011458  -50.410114    3.608053
  21 O     8.0000    0    15.999   49.817178  -49.347244    7.529977
  22 O     8.0000    0    15.999   51.858517  -46.501206    3.885235
  23 C     6.0000    0    12.011   58.689865  -50.210714    3.462157
  24 C     6.0000    0    12.011   59.897914  -52.876795    3.594074
  25 C     6.0000    0    12.011   59.585623  -54.185532    1.062554
  26 C     6.0000    0    12.011   59.403430  -48.614130    5.775500
  27 O     8.0000    0    15.999   58.063237  -46.329761    5.815735
  28 C     6.0000    0    12.011   58.027608  -56.287251    0.823663
  29 C     6.0000    0    12.011   57.587310  -57.346798   -1.521172
  30 C     6.0000    0    12.011   58.750134  -56.319877   -3.671797
  31 C     6.0000    0    12.011   60.385468  -54.295950   -3.408281
  32 C     6.0000    0    12.011   60.797869  -53.232289   -1.054582
  33 C     6.0000    0    12.011   56.859779  -48.727676   -4.129378
  34 C     6.0000    0    12.011   51.283661  -55.604809    6.162031
  35 C     6.0000    0    12.011   52.901779  -44.870082    2.058270
  36 O     8.0000    0    15.999   58.875281  -54.230177    5.626801
  37 O     8.0000    0    15.999   45.047674  -56.055295   -6.755284
  38 O     8.0000    0    15.999   44.097345  -50.925486   -7.470187
  39 O     8.0000    0    15.999   56.045878  -59.392634   -1.992626
  40 O     8.0000    0    15.999   58.284383  -57.310568   -5.999767
  41 C     6.0000    0    12.011   54.872707  -60.562004    0.082980
  42 H     1.0000    0     1.008   50.016504  -56.025707    1.512286
  43 H     1.0000    0     1.008   53.444649  -51.980489   -4.524318
  44 H     1.0000    0     1.008   49.495568  -57.279341   -3.097527
  45 H     1.0000    0     1.008   50.305263  -55.000107   -5.423844
  46 H     1.0000    0     1.008   46.773015  -53.941329   -1.012650
  47 H     1.0000    0     1.008   49.096622  -50.531936   -3.585338
  48 H     1.0000    0     1.008   45.334175  -47.660501   -3.025874
  49 H     1.0000    0     1.008   43.536751  -50.333668   -2.186766
  50 H     1.0000    0     1.008   49.461695  -46.900013   -0.675089
  51 H     1.0000    0     1.008   45.756519  -51.786763    6.320672
  52 H     1.0000    0     1.008   43.768478  -51.871540    2.094579
  53 H     1.0000    0     1.008   44.850541  -57.368471   -3.099757
  54 H     1.0000    0     1.008   43.120189  -54.596434   -3.837728
  55 H     1.0000    0     1.008   47.853253  -51.888307   -7.884998
  56 H     1.0000    0     1.008   47.124512  -48.709917   -7.121376
  57 H     1.0000    0     1.008   51.337151  -48.338109    7.441769
  58 H     1.0000    0     1.008   59.249546  -49.244235    1.721599
  59 H     1.0000    0     1.008   61.919854  -52.653831    3.995779
  60 H     1.0000    0     1.008   59.014102  -49.723228    7.488346
  61 H     1.0000    0     1.008   61.410412  -48.141094    5.719767
  62 H     1.0000    0     1.008   56.315688  -46.750427    5.481358
  63 H     1.0000    0     1.008   57.177209  -57.064635    2.502859
  64 H     1.0000    0     1.008   61.320863  -53.576626   -5.070326
  65 H     1.0000    0     1.008   62.068338  -51.646942   -0.875398
  66 H     1.0000    0     1.008   58.327854  -47.289208   -4.223159
  67 H     1.0000    0     1.008   57.482754  -50.416058   -5.143799
  68 H     1.0000    0     1.008   55.128318  -47.990474   -4.989323
  69 H     1.0000    0     1.008   49.360680  -54.958414    5.777207
  70 H     1.0000    0     1.008   51.524434  -57.540550    5.466997
  71 H     1.0000    0     1.008   51.623840  -55.561087    8.189718
  72 H     1.0000    0     1.008   54.371189  -43.802370    3.025995
  73 H     1.0000    0     1.008   53.747167  -45.931141    0.500973
  74 H     1.0000    0     1.008   51.477233  -43.564013    1.322749
  75 H     1.0000    0     1.008   57.072493  -53.875821    5.686534
  76 H     1.0000    0     1.008   46.611008  -56.916373   -7.111628
  77 H     1.0000    0     1.008   43.730016  -52.712717   -7.590064
  78 H     1.0000    0     1.008   57.182814  -58.750362   -5.774391
  79 H     1.0000    0     1.008   53.599388  -59.249942    1.048369
  80 H     1.0000    0     1.008   53.789012  -62.128668   -0.696929
  81 H     1.0000    0     1.008   56.265238  -61.292447    1.425328

--------------------------------
INTERNAL COORDINATES (ANGSTROEM)
--------------------------------
 C      0   0   0     0.000000000000     0.00000000     0.00000000
 C      1   0   0     1.397506444806     0.00000000     0.00000000
 C      2   1   0     1.403749962714   119.64086543     0.00000000
 C      3   2   1     1.383397597293   120.25612682   358.02332013
 C      4   3   2     1.388256202081   120.03866327     2.11423850
 C      5   4   3     1.384092065787   119.78750629     0.09849422
 C      5   4   3     1.502417468227   119.22462730   185.18641117
 C      7   5   4     1.543763351077   108.64702358    71.80268110
 C      8   7   5     1.543431121344   110.93067159    67.90483923
 C      9   8   7     1.539849514094   110.58803179   213.73453130
 C     10   9   8     1.502867175740   110.08186914    67.53462094
 C     11  10   9     1.394238827555   119.40248290    72.47991362
 C     12  11  10     1.381378872659   121.07277660   183.16876100
 C     13  12  11     1.406344238298   119.54613123     1.00041197
 C     14  13  12     1.383010320147   119.33277601   358.11876081
 C     11  10   9     1.384057801881   121.70206517   255.27366285
 C      8   7   5     1.535171006783   111.57288270   198.70452665
 C      9   8   7     1.541612503423   116.26941443    86.00937708
 O      3   2   1     1.364731458217   114.43405311   176.68640029
 O      1   2   3     1.366285819534   117.01007502   178.41904908
 O      2   1   3     1.372966331018   124.93673369   184.25067424
 O     14  13  12     1.357742340935   120.64895973   178.56953489
 O     13  12  11     1.375110552442   125.74141914   181.78636957
 C     21   2   1     1.423369478437   119.94089603   305.72115478
 C     24  21   2     1.550477754610   109.91743732   296.19144669
 C     25  24  21     1.517079697376   109.31239195    76.50334936
 C     24  21   2     1.534596300684   104.03795663   176.90136129
 O     27  24  21     1.401678505760   111.24934399   305.77830495
 C     26  25  24     1.390206316624   120.67097938   247.49905407
 C     29  26  25     1.381421428931   120.42513332   174.69912388
 C     30  29  26     1.403259496155   119.82391041     0.97955272
 C     31  30  29     1.383981834487   119.48274997     1.82218565
 C     32  31  30     1.384114053999   120.26222288   357.59009253
 C     20   1   2     1.408792864356   118.58263796   175.85142383
 C     19   3   2     1.407138435658   118.63469721   174.50134427
 C     23  13  12     1.408721369799   118.14380022     3.79424409
 O     25  24  21     1.401011133105   109.90467907   311.01556160
 O     17   8   7     1.411488224029   115.39371556   300.19817576
 O     18   9   8     1.399973071356   115.54885360    74.09114061
 O     30  29  26     1.378273303226   125.53627158   181.32331086
 O     31  30  29     1.361316577103   120.35730815   181.54342786
 C     40  30  29     1.405251305725   117.76609685   357.96241336
 H      4   3   2     1.078442495416   120.62495966   182.33670226
 H      6   5   4     1.077917394053   118.98322410   178.70894837
 H      7   5   4     1.093595971740   109.64521091   312.56343681
 H      7   5   4     1.091533673369   109.98507915   193.05815640
 H      8   7   5     1.095244688464   106.43600819   312.92877046
 H      9   8   7     1.095079326300   106.16832196   328.99883589
 H     10   9   8     1.091411368786   108.40114222   187.82250552
 H     10   9   8     1.089831242516   109.94983954   305.33660803
 H     12  11  10     1.078880629380   118.68075773     3.50978820
 H     15  14  13     1.079105588852   118.49194954   182.05021165
 H     16  11  10     1.080366622241   119.97117156   355.69106568
 H     17   8   7     1.100159201508   108.36685116    63.26356744
 H     17   8   7     1.092316234316   109.79672068   180.90564006
 H     18   9   8     1.099541337007   109.29432615   308.44269976
 H     18   9   8     1.095050081182   107.76082682   191.65589146
 H     22  14  13     0.966592983305   107.88580428   356.70454182
 H     24  21   2     1.094369640815   110.47403570    58.49598607
 H     25  24  21     1.097238310463   108.23616244   195.16249571
 H     27  24  21     1.099302930203   108.52278081    67.77228979
 H     27  24  21     1.091548541628   110.12760866   187.12296112
 H     28  27  24     0.967496539351   106.40395912    46.96899068
 H     29  26  25     1.077652603133   118.55877555   354.69554630
 H     32  31  30     1.078637194689   118.54724607   177.59316850
 H     33  32  31     1.079252153423   119.56336309   180.39182971
 H     34  20   1     1.088772344969   105.41307320   183.17368396
 H     34  20   1     1.093206412150   111.24177865   301.77433828
 H     34  20   1     1.094889471117   111.51187026    64.77780249
 H     35  19   3     1.092692924591   111.23940416   303.64623832
 H     35  19   3     1.095810142759   111.52029067    66.56675474
 H     35  19   3     1.088247135476   105.49045196   185.19633602
 H     36  23  13     1.089085669806   105.96075491   173.73557812
 H     36  23  13     1.092940369086   111.29046076   292.32391451
 H     36  23  13     1.094276240880   111.16929251    55.02256798
 H     37  25  24     0.972762720028   107.77113940    40.36742005
 H     38  17   8     0.963109895539   108.71325461    58.49493058
 H     39  18   9     0.967612479468   107.54982445   283.36490602
 H     41  31  30     0.966709678032   107.52056587   357.14312926
 H     42  40  30     1.094108189865   110.95176428    62.22436593
 H     42  40  30     1.089268427867   105.75907117   181.00961558
 H     42  40  30     1.094078030060   111.43773531   299.76524124

---------------------------
INTERNAL COORDINATES (A.U.)
---------------------------
 C      0   0   0     0.000000000000     0.00000000     0.00000000
 C      1   0   0     2.640904451073     0.00000000     0.00000000
 C      2   1   0     2.652702990033   119.64086543     0.00000000
 C      3   2   1     2.614242593209   120.25612682   358.02332013
 C      4   3   2     2.623424025651   120.03866327     2.11423850
 C      5   4   3     2.615554948471   119.78750629     0.09849422
 C      5   4   3     2.839157553768   119.22462730   185.18641117
 C      7   5   4     2.917289949119   108.64702358    71.80268110
 C      8   7   5     2.916662125912   110.93067159    67.90483923
 C      9   8   7     2.909893869090   110.58803179   213.73453130
 C     10   9   8     2.840007377809   110.08186914    67.53462094
 C     11  10   9     2.634729549358   119.40248290    72.47991362
 C     12  11  10     2.610427756510   121.07277660   183.16876100
 C     13  12  11     2.657605460400   119.54613123     1.00041197
 C     14  13  12     2.613510745465   119.33277601   358.11876081
 C     11  10   9     2.615490199072   121.70206517   255.27366285
 C      8   7   5     2.901052771556   111.57288270   198.70452665
 C      9   8   7     2.913225436097   116.26941443    86.00937708
 O      3   2   1     2.578968702378   114.43405311   176.68640029
 O      1   2   3     2.581906019579   117.01007502   178.41904908
 O      2   1   3     2.594530356718   124.93673369   184.25067424
 O     14  13  12     2.565761184797   120.64895973   178.56953489
 O     13  12  11     2.598582347980   125.74141914   181.78636957
 C     21   2   1     2.689778501628   119.94089603   305.72115478
 C     24  21   2     2.929978332949   109.91743732   296.19144669
 C     25  24  21     2.866865151372   109.31239195    76.50334936
 C     24  21   2     2.899966734422   104.03795663   176.90136129
 O     27  24  21     2.648788503690   111.24934399   305.77830495
 C     26  25  24     2.627109208066   120.67097938   247.49905407
 C     29  26  25     2.610508176210   120.42513332   174.69912388
 C     30  29  26     2.651776142558   119.82391041     0.97955272
 C     31  30  29     2.615346641502   119.48274997     1.82218565
 C     32  31  30     2.615596500170   120.26222288   357.59009253
 C     20   1   2     2.662232693056   118.58263796   175.85142383
 C     19   3   2     2.659106275908   118.63469721   174.50134427
 C     23  13  12     2.662097587923   118.14380022     3.79424409
 O     25  24  21     2.647527352143   109.90467907   311.01556160
 O     17   8   7     2.667326184670   115.39371556   300.19817576
 O     18   9   8     2.645565699728   115.54885360    74.09114061
 O     30  29  26     2.604559080793   125.53627158   181.32331086
 O     31  30  29     2.572515512291   120.35730815   181.54342786
 C     40  30  29     2.655540117155   117.76609685   357.96241336
 H      4   3   2     2.037960967519   120.62495966   182.33670226
 H      6   5   4     2.036968669750   118.98322410   178.70894837
 H      7   5   4     2.066596887747   109.64521091   312.56343681
 H      7   5   4     2.062699708621   109.98507915   193.05815640
 H      8   7   5     2.069712510828   106.43600819   312.92877046
 H      9   8   7     2.069400021626   106.16832196   328.99883589
 H     10   9   8     2.062468586454   108.40114222   187.82250552
 H     10   9   8     2.059482580547   109.94983954   305.33660803
 H     12  11  10     2.038788920720   118.68075773     3.50978820
 H     15  14  13     2.039214032515   118.49194954   182.05021165
 H     16  11  10     2.041597040264   119.97117156   355.69106568
 H     17   8   7     2.078999594564   108.36685116    63.26356744
 H     17   8   7     2.064178534494   109.79672068   180.90564006
 H     18   9   8     2.077831999869   109.29432615   308.44269976
 H     18   9   8     2.069344756363   107.76082682   191.65589146
 H     22  14  13     1.826596021417   107.88580428   356.70454182
 H     24  21   2     2.068058910418   110.47403570    58.49598607
 H     25  24  21     2.073479910421   108.23616244   195.16249571
 H     27  24  21     2.077381476301   108.52278081    67.77228979
 H     27  24  21     2.062727805558   110.12760866   187.12296112
 H     28  27  24     1.828303494891   106.40395912    46.96899068
 H     29  26  25     2.036468287429   118.55877555   354.69554630
 H     32  31  30     2.038328895824   118.54724607   177.59316850
 H     33  32  31     2.039490999414   119.56336309   180.39182971
 H     34  20   1     2.057481554178   105.41307320   183.17368396
 H     34  20   1     2.065860726810   111.24177865   301.77433828
 H     34  20   1     2.069041247325   111.51187026    64.77780249
 H     35  19   3     2.064890375950   111.23940416   303.64623832
 H     35  19   3     2.070781064588   111.52029067    66.56675474
 H     35  19   3     2.056489052074   105.49045196   185.19633602
 H     36  23  13     2.058073652311   105.96075491   173.73557812
 H     36  23  13     2.065357978278   111.29046076   292.32391451
 H     36  23  13     2.067882410120   111.16929251    55.02256798
 H     37  25  24     1.838255134141   107.77113940    40.36742005
 H     38  17   8     1.820013939439   108.71325461    58.49493058
 H     39  18   9     1.828522589959   107.54982445   283.36490602
 H     41  31  30     1.826816542492   107.52056587   357.14312926
 H     42  40  30     2.067564839724   110.95176428    62.22436593
 H     42  40  30     2.058419014996   105.75907117   181.00961558
 H     42  40  30     2.067507845953   111.43773531   299.76524124

---------------------
BASIS SET INFORMATION
---------------------
There are 3 groups of distinct atoms

 Group   1 Type C   : 11s7p2d1f contracted to 4s5p2d1f pattern {7211/31111/11/1}
 Group   2 Type O   : 11s7p2d1f contracted to 4s5p2d1f pattern {7211/31111/11/1}
 Group   3 Type H   : 6s3p1d contracted to 3s2p1d pattern {411/21/1}

Atom   0C    basis set group =>   1
Atom   1C    basis set group =>   1
Atom   2C    basis set group =>   1
Atom   3C    basis set group =>   1
Atom   4C    basis set group =>   1
Atom   5C    basis set group =>   1
Atom   6C    basis set group =>   1
Atom   7C    basis set group =>   1
Atom   8C    basis set group =>   1
Atom   9C    basis set group =>   1
Atom  10C    basis set group =>   1
Atom  11C    basis set group =>   1
Atom  12C    basis set group =>   1
Atom  13C    basis set group =>   1
Atom  14C    basis set group =>   1
Atom  15C    basis set group =>   1
Atom  16C    basis set group =>   1
Atom  17C    basis set group =>   1
Atom  18O    basis set group =>   2
Atom  19O    basis set group =>   2
Atom  20O    basis set group =>   2
Atom  21O    basis set group =>   2
Atom  22O    basis set group =>   2
Atom  23C    basis set group =>   1
Atom  24C    basis set group =>   1
Atom  25C    basis set group =>   1
Atom  26C    basis set group =>   1
Atom  27O    basis set group =>   2
Atom  28C    basis set group =>   1
Atom  29C    basis set group =>   1
Atom  30C    basis set group =>   1
Atom  31C    basis set group =>   1
Atom  32C    basis set group =>   1
Atom  33C    basis set group =>   1
Atom  34C    basis set group =>   1
Atom  35C    basis set group =>   1
Atom  36O    basis set group =>   2
Atom  37O    basis set group =>   2
Atom  38O    basis set group =>   2
Atom  39O    basis set group =>   2
Atom  40O    basis set group =>   2
Atom  41C    basis set group =>   1
Atom  42H    basis set group =>   3
Atom  43H    basis set group =>   3
Atom  44H    basis set group =>   3
Atom  45H    basis set group =>   3
Atom  46H    basis set group =>   3
Atom  47H    basis set group =>   3
Atom  48H    basis set group =>   3
Atom  49H    basis set group =>   3
Atom  50H    basis set group =>   3
Atom  51H    basis set group =>   3
Atom  52H    basis set group =>   3
Atom  53H    basis set group =>   3
Atom  54H    basis set group =>   3
Atom  55H    basis set group =>   3
Atom  56H    basis set group =>   3
Atom  57H    basis set group =>   3
Atom  58H    basis set group =>   3
Atom  59H    basis set group =>   3
Atom  60H    basis set group =>   3
Atom  61H    basis set group =>   3
Atom  62H    basis set group =>   3
Atom  63H    basis set group =>   3
Atom  64H    basis set group =>   3
Atom  65H    basis set group =>   3
Atom  66H    basis set group =>   3
Atom  67H    basis set group =>   3
Atom  68H    basis set group =>   3
Atom  69H    basis set group =>   3
Atom  70H    basis set group =>   3
Atom  71H    basis set group =>   3
Atom  72H    basis set group =>   3
Atom  73H    basis set group =>   3
Atom  74H    basis set group =>   3
Atom  75H    basis set group =>   3
Atom  76H    basis set group =>   3
Atom  77H    basis set group =>   3
Atom  78H    basis set group =>   3
Atom  79H    basis set group =>   3
Atom  80H    basis set group =>   3
Atom  81H    basis set group =>   3
---------------------------------
AUXILIARY/J BASIS SET INFORMATION
---------------------------------
There are 3 groups of distinct atoms

 Group   1 Type C   : 15s13p12d5f5g contracted to 15s13p12d5f5g pattern {111111111111111/1111111111111/111111111111/11111/11111}
 Group   2 Type O   : 15s13p12d5f5g contracted to 15s13p12d5f5g pattern {111111111111111/1111111111111/111111111111/11111/11111}
 Group   3 Type H   : 12s4p3d2f contracted to 12s4p3d2f pattern {111111111111/1111/111/11}

Atom   0C    basis set group =>   1
Atom   1C    basis set group =>   1
Atom   2C    basis set group =>   1
Atom   3C    basis set group =>   1
Atom   4C    basis set group =>   1
Atom   5C    basis set group =>   1
Atom   6C    basis set group =>   1
Atom   7C    basis set group =>   1
Atom   8C    basis set group =>   1
Atom   9C    basis set group =>   1
Atom  10C    basis set group =>   1
Atom  11C    basis set group =>   1
Atom  12C    basis set group =>   1
Atom  13C    basis set group =>   1
Atom  14C    basis set group =>   1
Atom  15C    basis set group =>   1
Atom  16C    basis set group =>   1
Atom  17C    basis set group =>   1
Atom  18O    basis set group =>   2
Atom  19O    basis set group =>   2
Atom  20O    basis set group =>   2
Atom  21O    basis set group =>   2
Atom  22O    basis set group =>   2
Atom  23C    basis set group =>   1
Atom  24C    basis set group =>   1
Atom  25C    basis set group =>   1
Atom  26C    basis set group =>   1
Atom  27O    basis set group =>   2
Atom  28C    basis set group =>   1
Atom  29C    basis set group =>   1
Atom  30C    basis set group =>   1
Atom  31C    basis set group =>   1
Atom  32C    basis set group =>   1
Atom  33C    basis set group =>   1
Atom  34C    basis set group =>   1
Atom  35C    basis set group =>   1
Atom  36O    basis set group =>   2
Atom  37O    basis set group =>   2
Atom  38O    basis set group =>   2
Atom  39O    basis set group =>   2
Atom  40O    basis set group =>   2
Atom  41C    basis set group =>   1
Atom  42H    basis set group =>   3
Atom  43H    basis set group =>   3
Atom  44H    basis set group =>   3
Atom  45H    basis set group =>   3
Atom  46H    basis set group =>   3
Atom  47H    basis set group =>   3
Atom  48H    basis set group =>   3
Atom  49H    basis set group =>   3
Atom  50H    basis set group =>   3
Atom  51H    basis set group =>   3
Atom  52H    basis set group =>   3
Atom  53H    basis set group =>   3
Atom  54H    basis set group =>   3
Atom  55H    basis set group =>   3
Atom  56H    basis set group =>   3
Atom  57H    basis set group =>   3
Atom  58H    basis set group =>   3
Atom  59H    basis set group =>   3
Atom  60H    basis set group =>   3
Atom  61H    basis set group =>   3
Atom  62H    basis set group =>   3
Atom  63H    basis set group =>   3
Atom  64H    basis set group =>   3
Atom  65H    basis set group =>   3
Atom  66H    basis set group =>   3
Atom  67H    basis set group =>   3
Atom  68H    basis set group =>   3
Atom  69H    basis set group =>   3
Atom  70H    basis set group =>   3
Atom  71H    basis set group =>   3
Atom  72H    basis set group =>   3
Atom  73H    basis set group =>   3
Atom  74H    basis set group =>   3
Atom  75H    basis set group =>   3
Atom  76H    basis set group =>   3
Atom  77H    basis set group =>   3
Atom  78H    basis set group =>   3
Atom  79H    basis set group =>   3
Atom  80H    basis set group =>   3
Atom  81H    basis set group =>   3
---------------------------------
AUXILIARY/C BASIS SET INFORMATION
---------------------------------
There are 3 groups of distinct atoms

 Group   1 Type C   : 15s13p12d5f5g contracted to 15s13p12d5f5g pattern {111111111111111/1111111111111/111111111111/11111/11111}
 Group   2 Type O   : 15s13p12d5f5g contracted to 15s13p12d5f5g pattern {111111111111111/1111111111111/111111111111/11111/11111}
 Group   3 Type H   : 12s4p3d2f contracted to 12s4p3d2f pattern {111111111111/1111/111/11}

Atom   0C    basis set group =>   1
Atom   1C    basis set group =>   1
Atom   2C    basis set group =>   1
Atom   3C    basis set group =>   1
Atom   4C    basis set group =>   1
Atom   5C    basis set group =>   1
Atom   6C    basis set group =>   1
Atom   7C    basis set group =>   1
Atom   8C    basis set group =>   1
Atom   9C    basis set group =>   1
Atom  10C    basis set group =>   1
Atom  11C    basis set group =>   1
Atom  12C    basis set group =>   1
Atom  13C    basis set group =>   1
Atom  14C    basis set group =>   1
Atom  15C    basis set group =>   1
Atom  16C    basis set group =>   1
Atom  17C    basis set group =>   1
Atom  18O    basis set group =>   2
Atom  19O    basis set group =>   2
Atom  20O    basis set group =>   2
Atom  21O    basis set group =>   2
Atom  22O    basis set group =>   2
Atom  23C    basis set group =>   1
Atom  24C    basis set group =>   1
Atom  25C    basis set group =>   1
Atom  26C    basis set group =>   1
Atom  27O    basis set group =>   2
Atom  28C    basis set group =>   1
Atom  29C    basis set group =>   1
Atom  30C    basis set group =>   1
Atom  31C    basis set group =>   1
Atom  32C    basis set group =>   1
Atom  33C    basis set group =>   1
Atom  34C    basis set group =>   1
Atom  35C    basis set group =>   1
Atom  36O    basis set group =>   2
Atom  37O    basis set group =>   2
Atom  38O    basis set group =>   2
Atom  39O    basis set group =>   2
Atom  40O    basis set group =>   2
Atom  41C    basis set group =>   1
Atom  42H    basis set group =>   3
Atom  43H    basis set group =>   3
Atom  44H    basis set group =>   3
Atom  45H    basis set group =>   3
Atom  46H    basis set group =>   3
Atom  47H    basis set group =>   3
Atom  48H    basis set group =>   3
Atom  49H    basis set group =>   3
Atom  50H    basis set group =>   3
Atom  51H    basis set group =>   3
Atom  52H    basis set group =>   3
Atom  53H    basis set group =>   3
Atom  54H    basis set group =>   3
Atom  55H    basis set group =>   3
Atom  56H    basis set group =>   3
Atom  57H    basis set group =>   3
Atom  58H    basis set group =>   3
Atom  59H    basis set group =>   3
Atom  60H    basis set group =>   3
Atom  61H    basis set group =>   3
Atom  62H    basis set group =>   3
Atom  63H    basis set group =>   3
Atom  64H    basis set group =>   3
Atom  65H    basis set group =>   3
Atom  66H    basis set group =>   3
Atom  67H    basis set group =>   3
Atom  68H    basis set group =>   3
Atom  69H    basis set group =>   3
Atom  70H    basis set group =>   3
Atom  71H    basis set group =>   3
Atom  72H    basis set group =>   3
Atom  73H    basis set group =>   3
Atom  74H    basis set group =>   3
Atom  75H    basis set group =>   3
Atom  76H    basis set group =>   3
Atom  77H    basis set group =>   3
Atom  78H    basis set group =>   3
Atom  79H    basis set group =>   3
Atom  80H    basis set group =>   3
Atom  81H    basis set group =>   3
----------------------------------
AUXILIARY/JK BASIS SET INFORMATION
----------------------------------
There are 3 groups of distinct atoms

 Group   1 Type C   : 15s13p12d5f5g contracted to 15s13p12d5f5g pattern {111111111111111/1111111111111/111111111111/11111/11111}
 Group   2 Type O   : 15s13p12d5f5g contracted to 15s13p12d5f5g pattern {111111111111111/1111111111111/111111111111/11111/11111}
 Group   3 Type H   : 12s4p3d2f contracted to 12s4p3d2f pattern {111111111111/1111/111/11}

Atom   0C    basis set group =>   1
Atom   1C    basis set group =>   1
Atom   2C    basis set group =>   1
Atom   3C    basis set group =>   1
Atom   4C    basis set group =>   1
Atom   5C    basis set group =>   1
Atom   6C    basis set group =>   1
Atom   7C    basis set group =>   1
Atom   8C    basis set group =>   1
Atom   9C    basis set group =>   1
Atom  10C    basis set group =>   1
Atom  11C    basis set group =>   1
Atom  12C    basis set group =>   1
Atom  13C    basis set group =>   1
Atom  14C    basis set group =>   1
Atom  15C    basis set group =>   1
Atom  16C    basis set group =>   1
Atom  17C    basis set group =>   1
Atom  18O    basis set group =>   2
Atom  19O    basis set group =>   2
Atom  20O    basis set group =>   2
Atom  21O    basis set group =>   2
Atom  22O    basis set group =>   2
Atom  23C    basis set group =>   1
Atom  24C    basis set group =>   1
Atom  25C    basis set group =>   1
Atom  26C    basis set group =>   1
Atom  27O    basis set group =>   2
Atom  28C    basis set group =>   1
Atom  29C    basis set group =>   1
Atom  30C    basis set group =>   1
Atom  31C    basis set group =>   1
Atom  32C    basis set group =>   1
Atom  33C    basis set group =>   1
Atom  34C    basis set group =>   1
Atom  35C    basis set group =>   1
Atom  36O    basis set group =>   2
Atom  37O    basis set group =>   2
Atom  38O    basis set group =>   2
Atom  39O    basis set group =>   2
Atom  40O    basis set group =>   2
Atom  41C    basis set group =>   1
Atom  42H    basis set group =>   3
Atom  43H    basis set group =>   3
Atom  44H    basis set group =>   3
Atom  45H    basis set group =>   3
Atom  46H    basis set group =>   3
Atom  47H    basis set group =>   3
Atom  48H    basis set group =>   3
Atom  49H    basis set group =>   3
Atom  50H    basis set group =>   3
Atom  51H    basis set group =>   3
Atom  52H    basis set group =>   3
Atom  53H    basis set group =>   3
Atom  54H    basis set group =>   3
Atom  55H    basis set group =>   3
Atom  56H    basis set group =>   3
Atom  57H    basis set group =>   3
Atom  58H    basis set group =>   3
Atom  59H    basis set group =>   3
Atom  60H    basis set group =>   3
Atom  61H    basis set group =>   3
Atom  62H    basis set group =>   3
Atom  63H    basis set group =>   3
Atom  64H    basis set group =>   3
Atom  65H    basis set group =>   3
Atom  66H    basis set group =>   3
Atom  67H    basis set group =>   3
Atom  68H    basis set group =>   3
Atom  69H    basis set group =>   3
Atom  70H    basis set group =>   3
Atom  71H    basis set group =>   3
Atom  72H    basis set group =>   3
Atom  73H    basis set group =>   3
Atom  74H    basis set group =>   3
Atom  75H    basis set group =>   3
Atom  76H    basis set group =>   3
Atom  77H    basis set group =>   3
Atom  78H    basis set group =>   3
Atom  79H    basis set group =>   3
Atom  80H    basis set group =>   3
Atom  81H    basis set group =>   3
---------------------------------
AUXILIARY/X BASIS SET INFORMATION
---------------------------------
There are 3 groups of distinct atoms

 Group   1 Type C   : 15s13p12d5f5g contracted to 15s13p12d5f5g pattern {111111111111111/1111111111111/111111111111/11111/11111}
 Group   2 Type O   : 15s13p12d5f5g contracted to 15s13p12d5f5g pattern {111111111111111/1111111111111/111111111111/11111/11111}
 Group   3 Type H   : 12s4p3d2f contracted to 12s4p3d2f pattern {111111111111/1111/111/11}

Atom   0C    basis set group =>   1
Atom   1C    basis set group =>   1
Atom   2C    basis set group =>   1
Atom   3C    basis set group =>   1
Atom   4C    basis set group =>   1
Atom   5C    basis set group =>   1
Atom   6C    basis set group =>   1
Atom   7C    basis set group =>   1
Atom   8C    basis set group =>   1
Atom   9C    basis set group =>   1
Atom  10C    basis set group =>   1
Atom  11C    basis set group =>   1
Atom  12C    basis set group =>   1
Atom  13C    basis set group =>   1
Atom  14C    basis set group =>   1
Atom  15C    basis set group =>   1
Atom  16C    basis set group =>   1
Atom  17C    basis set group =>   1
Atom  18O    basis set group =>   2
Atom  19O    basis set group =>   2
Atom  20O    basis set group =>   2
Atom  21O    basis set group =>   2
Atom  22O    basis set group =>   2
Atom  23C    basis set group =>   1
Atom  24C    basis set group =>   1
Atom  25C    basis set group =>   1
Atom  26C    basis set group =>   1
Atom  27O    basis set group =>   2
Atom  28C    basis set group =>   1
Atom  29C    basis set group =>   1
Atom  30C    basis set group =>   1
Atom  31C    basis set group =>   1
Atom  32C    basis set group =>   1
Atom  33C    basis set group =>   1
Atom  34C    basis set group =>   1
Atom  35C    basis set group =>   1
Atom  36O    basis set group =>   2
Atom  37O    basis set group =>   2
Atom  38O    basis set group =>   2
Atom  39O    basis set group =>   2
Atom  40O    basis set group =>   2
Atom  41C    basis set group =>   1
Atom  42H    basis set group =>   3
Atom  43H    basis set group =>   3
Atom  44H    basis set group =>   3
Atom  45H    basis set group =>   3
Atom  46H    basis set group =>   3
Atom  47H    basis set group =>   3
Atom  48H    basis set group =>   3
Atom  49H    basis set group =>   3
Atom  50H    basis set group =>   3
Atom  51H    basis set group =>   3
Atom  52H    basis set group =>   3
Atom  53H    basis set group =>   3
Atom  54H    basis set group =>   3
Atom  55H    basis set group =>   3
Atom  56H    basis set group =>   3
Atom  57H    basis set group =>   3
Atom  58H    basis set group =>   3
Atom  59H    basis set group =>   3
Atom  60H    basis set group =>   3
Atom  61H    basis set group =>   3
Atom  62H    basis set group =>   3
Atom  63H    basis set group =>   3
Atom  64H    basis set group =>   3
Atom  65H    basis set group =>   3
Atom  66H    basis set group =>   3
Atom  67H    basis set group =>   3
Atom  68H    basis set group =>   3
Atom  69H    basis set group =>   3
Atom  70H    basis set group =>   3
Atom  71H    basis set group =>   3
Atom  72H    basis set group =>   3
Atom  73H    basis set group =>   3
Atom  74H    basis set group =>   3
Atom  75H    basis set group =>   3
Atom  76H    basis set group =>   3
Atom  77H    basis set group =>   3
Atom  78H    basis set group =>   3
Atom  79H    basis set group =>   3
Atom  80H    basis set group =>   3
Atom  81H    basis set group =>   3
--------------------------------------------------------------------------
WARNING: There was an error initializing an OpenFabrics device.

  Local host:   c03b01n03
  Local device: mlx5_0
--------------------------------------------------------------------------
--------------------------------------------------------------------------
WARNING: There is at least one non-excluded one OpenFabrics device found,
but there are no active ports detected (or Open MPI was unable to use
them).  This is most certainly not what you wanted.  Check your
cables, subnet manager configuration, etc.  The openib BTL will be
ignored for this job.

  Local host: c03b01n03
--------------------------------------------------------------------------


[c03b01n03:3199761] 48 more processes have sent help message help-mpi-btl-openib.txt / error in device init
[c03b01n03:3199761] Set MCA parameter "orte_base_help_aggregate" to 0 to see all help / error messages
[c03b01n03:3199761] 10 more processes have sent help message help-mpi-btl-openib.txt / no active ports found
           ************************************************************
           *        Program running with 60 parallel MPI-processes    *
           *              working on a common directory               *
           ************************************************************
------------------------------------------------------------------------------
                             ORCA STARTUP CALCULATIONS
                           -- RI-GTO INTEGRALS CHOSEN --
------------------------------------------------------------------------------
------------------------------------------------------------------------------
                   ___                                                        
                  /   \      - P O W E R E D   B Y -                         
                 /     \                                                     
                 |  |  |   _    _      __       _____    __    __             
                 |  |  |  | |  | |    /  \     |  _  \  |  |  /  |          
                  \  \/   | |  | |   /    \    | | | |  |  | /  /          
                 / \  \   | |__| |  /  /\  \   | |_| |  |  |/  /          
                |  |  |   |  __  | /  /__\  \  |    /   |      \           
                |  |  |   | |  | | |   __   |  |    \   |  |\   \          
                \     /   | |  | | |  |  |  |  | |\  \  |  | \   \       
                 \___/    |_|  |_| |__|  |__|  |_| \__\ |__|  \__/        
                                                                              
                      - O R C A' S   B I G   F R I E N D -                    
                                      &                                       
                       - I N T E G R A L  F E E D E R -                       
                                                                              
 v1 FN, 2020, v2 2021, v3 2022-2024                                           
------------------------------------------------------------------------------


----------------------
SHARK INTEGRAL PACKAGE
----------------------

Number of atoms                             ...     82
Number of basis functions                   ...   2072
Number of shells                            ...    744
Maximum angular momentum                    ...      3
Integral batch strategy                     ... SHARK/LIBINT Hybrid
RI-J (if used) integral strategy            ... SPLIT-RIJ (Revised 2003 algorithm where possible)
Printlevel                                  ...      1
Contraction scheme used                     ... SEGMENTED contraction
Prescreening option                         ... SCHWARTZ
   Thresh                                   ... 1.000e-10
   Tcut                                     ... 1.000e-11
   Tpresel                                  ... 1.000e-11 
Coulomb Range Separation                    ... NOT USED
Exchange Range Separation                   ... NOT USED
Multipole approximations                    ... NOT USED
Finite Nucleus Model                        ... NOT USED
CABS basis                                  ... NOT available
Auxiliary Coulomb fitting basis             ... AVAILABLE
   # of basis functions in Aux-J            ...  10268
   # of shells in Aux-J                     ...   2940
   Maximum angular momentum in Aux-J        ...      4
Auxiliary J/K fitting basis                 ... AVAILABLE
   # of basis functions in Aux-JK           ...  10268
   # of shells in Aux-JK                    ...   2940
   Maximum angular momentum in Aux-JK       ...      4
Auxiliary Correlation fitting basis         ... AVAILABLE
   # of basis functions in Aux-C            ...  10268
   # of shells in Aux-C                     ...   2940
   Maximum angular momentum in Aux-C        ...      4
Auxiliary 'external' fitting basis          ... NOT available

Checking pre-screening integrals            ... done (  0.0 sec) Dimension = 744
   => SHARK Basis and OBASIS are compatible. Storing Pre-screening
Shell pair information
Shell pair cut-off parameter TPreSel        ...   1.0e-11
Total number of shell pairs                 ...    277140
Shell pairs after pre-screening             ...    157766
Total number of primitive shell pairs       ...    823733
Primitive shell pairs kept                  ...    290050
          la=0 lb=0:  29969 shell pairs
          la=1 lb=0:  52344 shell pairs
          la=1 lb=1:  21318 shell pairs
          la=2 lb=0:  20725 shell pairs
          la=2 lb=1:  15676 shell pairs
          la=2 lb=2:   2807 shell pairs
          la=3 lb=0:   7177 shell pairs
          la=3 lb=1:   5395 shell pairs
          la=3 lb=2:   1969 shell pairs
          la=3 lb=3:    386 shell pairs

Checking whether 4 symmetric matrices of dimension 2072 fit in memory
:Max Core in MB      =   5000.00
 MB in use           =    194.55
 MB left             =   4805.45
 MB needed           =     65.54
 Data fit in memory  = YES
Calculating RI/J V-Matrix + Cholesky decomp.... done (  7.0 sec)
Calculating RI/JK V-Matrix + Cholesky decomp.... done (  4.0 sec)
Calculating RI/C V-Matrix + Cholesky decomp.... done (  4.0 sec)
Calculating Nuclear repulsion               ... done (  0.0 sec) ENN=   5897.921153681960 Eh

Diagonalization of the overlap matrix:
Smallest eigenvalue                        ... 5.500e-06
Time for diagonalization                   ...    4.459 sec
Threshold for overlap eigenvalues          ... 1.000e-07
Number of eigenvalues below threshold      ... 0
Time for construction of square roots      ...    0.397 sec
Total time needed                          ...    4.940 sec

-------------------
DFT GRID GENERATION
-------------------

General Integration Accuracy     IntAcc      ... 4.388
Radial Grid Type                 RadialGrid  ... OptM3 with GC (2021)
Angular Grid (max. ang.)         AngularGrid ... 4 (Lebedev-302)
Angular grid pruning method      GridPruning ... 4 (adaptive)
Weight generation scheme         WeightScheme... mBecke (2022)
Basis function cutoff            BFCut       ... 1.0000e-10
Integration weight cutoff        WCut        ... 1.0000e-14
Partially contracted basis set               ... off
Rotationally invariant grid construction     ... off
Angular grids for H and He will be reduced by one unit
Diffuse basis detected: some atoms will have their outermost
                        angular grid increased by 1.

Total number of grid points                  ...   376037
Total number of batches                      ...     5916
Average number of points per batch           ...       63
Average number of grid points per atom       ...     4586
Grids setup in   4.1 sec
Initializing property integral containers    ... done (  0.2 sec)

SHARK setup successfully completed in  41.5 seconds

Maximum memory used throughout the entire STARTUP-calculation: 266.7 MB
--------------------------------------------------------------------------
WARNING: There was an error initializing an OpenFabrics device.

  Local host:   c03b01n03
  Local device: mlx5_0
--------------------------------------------------------------------------
--------------------------------------------------------------------------
WARNING: There is at least one non-excluded one OpenFabrics device found,
but there are no active ports detected (or Open MPI was unable to use
them).  This is most certainly not what you wanted.  Check your
cables, subnet manager configuration, etc.  The openib BTL will be
ignored for this job.

  Local host: c03b01n03
--------------------------------------------------------------------------


           ************************************************************
           *        Program running with 60 parallel MPI-processes    *
           *              working on a common directory               *
           ************************************************************
-------------------------------------------------------------------------------
                                 ORCA GUESS
                   Start orbitals & Density for SCF / CASSCF
-------------------------------------------------------------------------------

------------
SCF SETTINGS
------------
Hamiltonian:
 Density Functional     Method          .... DFT(GTOs)
 Exchange Functional    Exchange        .... TPSS
 Correlation Functional Correlation     .... TPSS
 LDA part of GGA corr.  LDAOpt          .... PW91-LDA
 Gradients option       PostSCFGGA      .... off
   NL short-range parameter             ....  5.000000
 RI-approximation to the Coulomb term is turned on
   Number of AuxJ basis functions       .... 10268


General Settings:
 Integral files         IntName         .... nmr-conf-11
 Hartree-Fock type      HFTyp           .... RHF
 Total Charge           Charge          ....    0
 Multiplicity           Mult            ....    1
 Number of Electrons    NEL             ....  314
 Basis Dimension        Dim             .... 2072
 Nuclear Repulsion      ENuc            ....   5897.9211536820 Eh

Convergence Acceleration:
 AO-DIIS                CNVDIIS         .... on
   Start iteration      DIISMaxIt       ....    12
   Startup error        DIISStart       ....  0.200000
   # of expansion vecs  DIISMaxEq       ....     5
   Bias factor          DIISBfac        ....   1.050
   Max. coefficient     DIISMaxC        ....  10.000
 MO-DIIS                CNVKDIIS        .... off
 Trust-Rad. Augm. Hess. CNVTRAH         .... auto
   Auto Start mean grad. ratio tolernc. ....  1.125000
   Auto Start start iteration           ....    50
   Auto Start num. interpolation iter.  ....    10
   Max. Number of Micro iterations      ....    24
   Max. Number of Macro iterations      .... Maxiter - #DIIS iter
   Number of Davidson start vectors     ....     2
   Converg. threshold    (grad. norm)   ....   5.000e-05
   Grad. Scal. Fac. for Micro threshold ....   0.100
   Minimum threshold for Micro iter.    ....   1.000e-02
   NR start threshold (gradient norm)   ....   1.000e-04
   Initial trust radius                 ....   0.400
   Minimum AH scaling param. (alpha)    ....   1.000
   Maximum AH scaling param. (alpha)    .... 1000.000
   Quad. conv. algorithm                .... NR
   White noise on init. David. guess    .... on
   Maximum white noise                  ....   0.010
   Pseudo random numbers                .... off
   Inactive MOs                         .... canonical
   Orbital update algorithm             .... Taylor
   Preconditioner                       .... Diag
   Full preconditioner red. dimension   ....   250
 SOSCF                 CNVSOSCF           .... on
   Start iteration     SOSCFMaxIt         ....   150
   Startup grad/error  SOSCFStart         ....  0.003300
   Hessian update      SOSCFHessUp        .... L-BFGS
   Autom. constraints  SOSCFAutoConstrain .... off
 Level Shifting         CNVShift        .... on
   Level shift para.    LevelShift      ....    0.2500
   Turn off err/grad.   ShiftErr        ....    0.0010
 Zerner damping         CNVZerner       .... off
 Static damping         CNVDamp         .... on
   Fraction old density DampFac         ....    0.7000
   Max. Damping (<1)    DampMax         ....    0.9800
   Min. Damping (>=0)   DampMin         ....    0.0000
   Turn off err/grad.   DampErr         ....    0.1000

SCF Procedure:
 Maximum # iterations   MaxIter         ....   125
 SCF integral mode      SCFMode         .... Direct
   Integral package                     .... SHARK and LIBINT hybrid scheme
 Reset frequency        DirectResetFreq ....    20
 Integral Threshold     Thresh          ....  1.000e-10 Eh
 Primitive CutOff       TCut            ....  1.000e-11 Eh

Convergence Tolerance:
 Convergence Check Mode ConvCheckMode   .... Total+1el-Energy
 Convergence forced     ConvForced      .... 0
 Energy Change          TolE            ....  1.000e-06 Eh
 1-El. energy change                    ....  1.000e-03 Eh
 Orbital Gradient       TolG            ....  5.000e-05
 Orbital Rotation angle TolX            ....  5.000e-05
 DIIS Error             TolErr          ....  1.000e-06

------------------------------
INITIAL GUESS: MODEL POTENTIAL
------------------------------
Loading Hartree-Fock densities                     ... done
Calculating cut-offs                               ... done
Initializing the effective Hamiltonian             ... done
Setting up the integral package (SHARK)            ... done
Starting the Coulomb interaction                   ... [c03b01n03:3200201] 49 more processes have sent help message help-mpi-btl-openib.txt / error in device init
[c03b01n03:3200201] Set MCA parameter "orte_base_help_aggregate" to 0 to see all help / error messages
[c03b01n03:3200201] 9 more processes have sent help message help-mpi-btl-openib.txt / no active ports found
done (   3.4 sec)
Making the grid                                    ... done (   0.4 sec)
Mapping shells                                     ... done
Starting the XC term evaluation                    ... done (   0.8 sec)
  promolecular density results
     # of electrons  =    313.970352581
     EX              =   -260.376019151
     EC              =    -10.668904526
     EX+EC           =   -271.044923677
Transforming the Hamiltonian                       ... done (   0.3 sec)
Diagonalizing the Hamiltonian                      ... done (   0.6 sec)
Back transforming the eigenvectors                 ... done (   0.2 sec)
Now organizing SCF variables                       ... done
                      ------------------
                      INITIAL GUESS DONE (   6.6 sec)
                      ------------------
             **** ENERGY FILE WAS UPDATED (nmr-conf-11.en.tmp) ****
Finished Guess after  13.3 sec
Maximum memory used throughout the entire GUESS-calculation: 299.6 MB
--------------------------------------------------------------------------
WARNING: There was an error initializing an OpenFabrics device.

  Local host:   c03b01n03
  Local device: mlx5_0
--------------------------------------------------------------------------
--------------------------------------------------------------------------
WARNING: There is at least one non-excluded one OpenFabrics device found,
but there are no active ports detected (or Open MPI was unable to use
them).  This is most certainly not what you wanted.  Check your
cables, subnet manager configuration, etc.  The openib BTL will be
ignored for this job.

  Local host: c03b01n03
--------------------------------------------------------------------------


           ************************************************************
           *        Program running with 60 parallel MPI-processes    *
           *              working on a common directory               *
           ************************************************************

-------------------------------------------------------------------------------------------
                                      ORCA LEAN-SCF
                              memory conserving SCF solver
-------------------------------------------------------------------------------------------

--------------------
CPCM SOLVATION MODEL
--------------------
CPCM parameters:
  Epsilon                                         ...      33.4280
  Refrac                                          ...       1.3288
  Rsolv                                           ...       1.3000
  Surface type                                    ... GAUSSIAN VDW
  Discretization scheme                           ... Constant charge density
    Threshold for H atoms                         ...       5.0000 (charges/Ang^2)
    Threshold for non-H atoms                     ...       5.0000 (charges/Ang^2)
  Epsilon function type                           ...         CPCM
Solvent:                                          ... METHANOL
Radii:
  Scheme                                          ... Element-dependent radii
  Radius for C  used is    3.8550 Bohr (=   2.0400 Ang.)
  Radius for O  used is    3.4469 Bohr (=   1.8240 Ang.)
  Radius for H  used is    2.4944 Bohr (=   1.3200 Ang.)
Calculating surface                               ...        done! (  0.2s)
Cavity surface points                             ...         5809
Cavity Volume                                     ...    4464.0081
Cavity Surface-area                               ...    1926.6771
Calculating surface distance matrix               ...        done! (  0.2s)
Performing Cholesky decomposition & store         ...        done! (  0.6s)
Overall time for CPCM initialization              ...                 1.2s

[c03b01n03:3200617] 49 more processes have sent help message help-mpi-btl-openib.txt / error in device init
[c03b01n03:3200617] Set MCA parameter "orte_base_help_aggregate" to 0 to see all help / error messages
[c03b01n03:3200617] 9 more processes have sent help message help-mpi-btl-openib.txt / no active ports found
----------------------------------------D-I-I-S--------------------------------------------
Iteration    Energy (Eh)           Delta-E    RMSDP     MaxDP     DIISErr   Damp  Time(sec)
-------------------------------------------------------------------------------------------
               ***  Starting incremental Fock matrix formation  ***
    1    -2032.9771525945661779     0.00e+00  8.26e-03  2.75e-01  2.40e-01  0.700  17.8
    2    -2033.3976733967847395    -4.21e-01  6.81e-03  2.15e-01  8.56e-02  0.700   8.8
                               ***Turning on AO-DIIS***
    3    -2033.5526840464535780    -1.55e-01  3.00e-03  7.49e-02  2.35e-02  0.700   7.6
    4    -2033.6466382788921692    -9.40e-02  5.34e-03  1.03e-01  1.13e-02  0.000   6.7
    5    -2033.8557283279360490    -2.09e-01  1.46e-03  5.88e-02  5.13e-03  0.000   6.9
                              *** Initializing SOSCF ***
---------------------------------------S-O-S-C-F--------------------------------------
Iteration    Energy (Eh)           Delta-E    RMSDP     MaxDP     MaxGrad    Time(sec)
--------------------------------------------------------------------------------------
    6    -2033.8570948980677713    -1.37e-03  4.51e-04  1.19e-02  1.80e-03     8.7
               *** Restarting incremental Fock matrix formation ***
    7    -2033.8572092614695066    -1.14e-04  3.48e-04  8.32e-03  1.56e-04     9.2
    8    -2033.8571802995074904     2.90e-05  9.04e-05  2.71e-03  6.37e-04     7.9
    9    -2033.8572246830253789    -4.44e-05  7.59e-05  1.29e-03  1.17e-04     7.7
   10    -2033.8572240176836203     6.65e-07  3.26e-05  1.09e-03  1.36e-04     6.2
                 **** Energy Check signals convergence ****

               *****************************************************
               *                     SUCCESS                       *
               *           SCF CONVERGED AFTER  10 CYCLES          *
               *****************************************************

             **** ENERGY FILE WAS UPDATED (nmr-conf-11.en.tmp) ****

----------------
TOTAL SCF ENERGY
----------------

Total Energy       :      -2033.85722518709827 Eh          -55344.06874 eV

Components:
Nuclear Repulsion  :       5897.92115368196028 Eh          160490.59378 eV
Electronic Energy  :      -7931.73617214196111 Eh         -215833.51401 eV
One Electron Energy:     -14522.34572281057808 Eh         -395173.11733 eV
Two Electron Energy:       6590.60955066861698 Eh          179339.60332 eV
CPCM Dielectric    :         -0.04220672709703 Eh              -1.14850 eV

Virial components:
Potential Energy   :      -4061.58264647781380 Eh         -110521.28260 eV
Kinetic Energy     :       2027.72542129071576 Eh           55177.21387 eV
Virial Ratio       :          2.00302398136947

DFT components:
N(Alpha)           :      157.000789837956 electrons
N(Beta)            :      157.000789837956 electrons
N(Total)           :      314.001579675912 electrons
E(X)               :     -268.193673626476 Eh       
E(C)               :      -10.625925889468 Eh       
E(XC)              :     -278.819599515944 Eh       

CPCM Solvation Model Properties:
Surface-charge          :         -0.04245791491495
Corrected charge        :         -0.00000000000000
Outlying charge corr.   :          0.00007928698549 Eh               0.00216 eV
Free-energy (cav+disp)  :  This term is not implemented in the current solvation scheme

---------------
SCF CONVERGENCE
---------------

  Last Energy change         ...   -6.6534e-07  Tolerance :   1.0000e-06
  Last MAX-Density change    ...    1.0940e-03  Tolerance :   1.0000e-05
  Last RMS-Density change    ...    3.2596e-05  Tolerance :   1.0000e-06
  Last DIIS Error            ...    1.8002e-03  Tolerance :   1.0000e-06
  Last Orbital Gradient      ...    1.3613e-04  Tolerance :   5.0000e-05
  Last Orbital Rotation      ...    2.0671e-04  Tolerance :   5.0000e-05


----------------
ORBITAL ENERGIES
----------------

  NO   OCC          E(Eh)            E(eV) 
   0   2.0000     -18.915311      -514.7118 
   1   2.0000     -18.914605      -514.6926 
   2   2.0000     -18.913843      -514.6718 
   3   2.0000     -18.911072      -514.5964 
   4   2.0000     -18.909150      -514.5441 
   5   2.0000     -18.908671      -514.5311 
   6   2.0000     -18.907179      -514.4905 
   7   2.0000     -18.889053      -513.9973 
   8   2.0000     -18.879907      -513.7484 
   9   2.0000     -18.879693      -513.7426 
  10   2.0000     -18.868362      -513.4342 
  11   2.0000     -10.042695      -273.2756 
  12   2.0000     -10.041676      -273.2479 
  13   2.0000     -10.040872      -273.2260 
  14   2.0000     -10.040681      -273.2208 
  15   2.0000     -10.039968      -273.2014 
  16   2.0000     -10.039444      -273.1872 
  17   2.0000     -10.039258      -273.1821 
  18   2.0000     -10.038032      -273.1487 
  19   2.0000     -10.034238      -273.0455 
  20   2.0000     -10.031880      -272.9813 
  21   2.0000     -10.031334      -272.9665 
  22   2.0000     -10.031020      -272.9579 
  23   2.0000     -10.030871      -272.9539 
  24   2.0000     -10.028873      -272.8995 
  25   2.0000     -10.028529      -272.8901 
  26   2.0000     -10.020196      -272.6634 
  27   2.0000      -9.987002      -271.7601 
  28   2.0000      -9.983320      -271.6599 
  29   2.0000      -9.983172      -271.6559 
  30   2.0000      -9.982783      -271.6453 
  31   2.0000      -9.981132      -271.6004 
  32   2.0000      -9.980242      -271.5762 
  33   2.0000      -9.979756      -271.5630 
  34   2.0000      -9.978859      -271.5386 
  35   2.0000      -9.978266      -271.5224 
  36   2.0000      -9.977832      -271.5106 
  37   2.0000      -9.977092      -271.4905 
  38   2.0000      -9.976891      -271.4850 
  39   2.0000      -9.974357      -271.4160 
  40   2.0000      -9.974239      -271.4128 
  41   2.0000      -9.973427      -271.3908 
  42   2.0000      -1.016357       -27.6565 
  43   2.0000      -1.009736       -27.4763 
  44   2.0000      -1.009517       -27.4704 
  45   2.0000      -1.000712       -27.2308 
  46   2.0000      -0.990992       -26.9663 
  47   2.0000      -0.984161       -26.7804 
  48   2.0000      -0.983993       -26.7758 
  49   2.0000      -0.969142       -26.3717 
  50   2.0000      -0.961399       -26.1610 
  51   2.0000      -0.956170       -26.0187 
  52   2.0000      -0.948122       -25.7997 
  53   2.0000      -0.799850       -21.7650 
  54   2.0000      -0.794535       -21.6204 
  55   2.0000      -0.793052       -21.5800 
  56   2.0000      -0.758667       -20.6444 
  57   2.0000      -0.731151       -19.8956 
  58   2.0000      -0.716217       -19.4892 
  59   2.0000      -0.701734       -19.0951 
  60   2.0000      -0.699019       -19.0213 
  61   2.0000      -0.696461       -18.9517 
  62   2.0000      -0.695334       -18.9210 
  63   2.0000      -0.682378       -18.5685 
  64   2.0000      -0.668376       -18.1874 
  65   2.0000      -0.649703       -17.6793 
  66   2.0000      -0.646744       -17.5988 
  67   2.0000      -0.645252       -17.5582 
  68   2.0000      -0.643007       -17.4971 
  69   2.0000      -0.620009       -16.8713 
  70   2.0000      -0.614954       -16.7338 
  71   2.0000      -0.613095       -16.6832 
  72   2.0000      -0.577746       -15.7213 
  73   2.0000      -0.564617       -15.3640 
  74   2.0000      -0.557728       -15.1766 
  75   2.0000      -0.557140       -15.1606 
  76   2.0000      -0.545111       -14.8332 
  77   2.0000      -0.543269       -14.7831 
  78   2.0000      -0.539288       -14.6748 
  79   2.0000      -0.533402       -14.5146 
  80   2.0000      -0.514852       -14.0098 
  81   2.0000      -0.508419       -13.8348 
  82   2.0000      -0.504890       -13.7388 
  83   2.0000      -0.495552       -13.4847 
  84   2.0000      -0.482410       -13.1270 
  85   2.0000      -0.480705       -13.0806 
  86   2.0000      -0.473289       -12.8788 
  87   2.0000      -0.472648       -12.8614 
  88   2.0000      -0.458849       -12.4859 
  89   2.0000      -0.457683       -12.4542 
  90   2.0000      -0.453782       -12.3480 
  91   2.0000      -0.449501       -12.2316 
  92   2.0000      -0.448598       -12.2070 
  93   2.0000      -0.443918       -12.0796 
  94   2.0000      -0.440774       -11.9941 
  95   2.0000      -0.434130       -11.8133 
  96   2.0000      -0.430073       -11.7029 
  97   2.0000      -0.426519       -11.6062 
  98   2.0000      -0.425096       -11.5674 
  99   2.0000      -0.422659       -11.5011 
 100   2.0000      -0.418747       -11.3947 
 101   2.0000      -0.415314       -11.3013 
 102   2.0000      -0.407679       -11.0935 
 103   2.0000      -0.404671       -11.0117 
 104   2.0000      -0.400766       -10.9054 
 105   2.0000      -0.398392       -10.8408 
 106   2.0000      -0.395286       -10.7563 
 107   2.0000      -0.391141       -10.6435 
 108   2.0000      -0.386130       -10.5071 
 109   2.0000      -0.384269       -10.4565 
 110   2.0000      -0.381524       -10.3818 
 111   2.0000      -0.379011       -10.3134 
 112   2.0000      -0.377584       -10.2746 
 113   2.0000      -0.375564       -10.2196 
 114   2.0000      -0.372443       -10.1347 
 115   2.0000      -0.370718       -10.0877 
 116   2.0000      -0.366646        -9.9770 
 117   2.0000      -0.364526        -9.9193 
[...]
  X          -0.5274067   -0.6783291   -0.5115777
  Y           0.3230866    0.3967680   -0.8591799
  Z           0.7857844   -0.6184212    0.0099009

 --------------
 Nucleus  73H :
 --------------

Diamagnetic contribution to the shielding tensor (ppm) : 
           191.810        -67.439        -0.441
           156.256        -15.801        12.940
           -29.727         75.172       164.105

Paramagnetic contribution to the shielding tensor (ppm): 
          -165.057         64.249        -3.763
          -157.304         43.891       -13.090
            26.603        -73.646      -135.024

Total shielding tensor (ppm): 
            26.752         -3.189        -4.204
            -1.048         28.089        -0.150
            -3.124          1.526        29.081


 Diagonalized sT*s matrix:
 
 sDSO           189.018           -8.494          159.590  iso=     113.371
 sPSO          -165.363           36.236         -127.064  iso=     -85.397
        ---------------  ---------------  ---------------
 Total           23.654           27.742           32.526  iso=      27.974

 Orientation: 
  X          -0.8170909    0.0039721   -0.5764951
  Y          -0.2947798   -0.8622493    0.4118628
  Z          -0.4954465    0.5064685    0.7057070

 --------------
 Nucleus  74H :
 --------------

Diamagnetic contribution to the shielding tensor (ppm) : 
           204.996         -1.696       -18.197
           170.078         53.947       -17.700
            -3.558         31.114       253.179

Paramagnetic contribution to the shielding tensor (ppm): 
          -180.128          0.143        18.301
          -171.215        -20.408        14.181
             5.542        -33.432      -226.852

Total shielding tensor (ppm): 
            24.868         -1.553         0.104
            -1.137         33.539        -3.519
             1.984         -2.318        26.327


 Diagonalized sT*s matrix:
 
 sDSO           221.339          239.883           50.900  iso=     170.707
 sPSO          -197.019         -214.303          -16.065  iso=    -142.462
        ---------------  ---------------  ---------------
 Total           24.320           25.580           34.835  iso=      28.245

 Orientation: 
  X           0.8589967    0.4857214    0.1618624
  Y          -0.0399663    0.3788001   -0.9246151
  Z          -0.5104189    0.7877723    0.3448005

 --------------
 Nucleus  75H :
 --------------

Diamagnetic contribution to the shielding tensor (ppm) : 
            57.202        -20.385        53.126
            -6.734         21.830        49.346
            72.351       -141.886       -80.501

Paramagnetic contribution to the shielding tensor (ppm): 
           -15.021         19.039       -53.973
             3.890         -0.516       -53.070
           -73.769        139.335       100.115

Total shielding tensor (ppm): 
            42.180         -1.346        -0.847
            -2.844         21.314        -3.723
            -1.417         -2.552        19.614


 Diagonalized sT*s matrix:
 
 sDSO           -78.458           21.937           55.053  iso=      -0.490
 sPSO            95.488            1.728          -12.638  iso=      28.192
        ---------------  ---------------  ---------------
 Total           17.030           23.664           42.414  iso=      27.703

 Orientation: 
  X           0.0749842    0.0445358   -0.9961897
  Y           0.6270990    0.7746290    0.0818330
  Z           0.7753220   -0.6308458    0.0301566

 --------------
 Nucleus  76H :
 --------------

Diamagnetic contribution to the shielding tensor (ppm) : 
           -70.013         90.810        -4.335
          -103.055        118.333        10.307
          -123.840        175.479       -33.790

Paramagnetic contribution to the shielding tensor (ppm): 
           104.740        -97.693         3.798
            96.327        -91.485        -4.448
           121.706       -169.810        61.761

Total shielding tensor (ppm): 
            34.727         -6.882        -0.537
            -6.728         26.847         5.858
            -2.135          5.669        27.971


 Diagonalized sT*s matrix:
 
 sDSO            -0.830          -45.671           61.030  iso=       4.843
 sPSO            21.036           74.888          -20.908  iso=      25.005
        ---------------  ---------------  ---------------
 Total           20.206           29.217           40.122  iso=      29.848

 Orientation: 
  X           0.3288362   -0.5449965   -0.7712623
  Y           0.7875054   -0.2925194    0.5424645
  Z          -0.5212504   -0.7857552    0.3329967

 --------------
 Nucleus  77H :
 --------------

Diamagnetic contribution to the shielding tensor (ppm) : 
           -33.663        148.053        19.498
           -48.643        170.942        11.724
           -95.302        170.781        84.859

Paramagnetic contribution to the shielding tensor (ppm): 
            57.171       -144.114       -14.476
            50.645       -129.322       -11.308
           100.704       -170.970       -64.684

Total shielding tensor (ppm): 
            23.508          3.939         5.022
             2.002         41.620         0.416
             5.402         -0.190        20.175


 Diagonalized sT*s matrix:
 
 sDSO            83.651          -51.029          189.517  iso=      74.046
 sPSO           -67.387           77.937         -147.386  iso=     -45.612
        ---------------  ---------------  ---------------
 Total           16.264           26.908           42.131  iso=      28.434

 Orientation: 
  X          -0.5968214    0.7873456    0.1545673
  Y           0.0524164   -0.1539678    0.9866846
  Z           0.8006602    0.5969764    0.0506215

 --------------
 Nucleus  78H :
 --------------

Diamagnetic contribution to the shielding tensor (ppm) : 
          -108.608         41.774       -44.703
          -135.795         75.946       -39.632
          -116.949        147.711      -117.635

Paramagnetic contribution to the shielding tensor (ppm): 
           131.300        -34.085        40.885
           144.144        -47.567        40.888
           114.851       -146.108       144.397

Total shielding tensor (ppm): 
            22.692          7.689        -3.818
             8.348         28.379         1.256
            -2.097          1.603        26.762


 Diagonalized sT*s matrix:
 
 sDSO           -64.397          -52.039          -33.861  iso=     -50.099
 sPSO            80.446           79.738           67.947  iso=      76.043
        ---------------  ---------------  ---------------
 Total           16.049           27.699           34.086  iso=      25.944

 Orientation: 
  X          -0.7879958   -0.1721165   -0.5911333
  Y           0.5500321    0.2346034   -0.8015148
  Z          -0.2766358    0.9567325    0.0901968

 --------------
 Nucleus  79H :
 --------------

Diamagnetic contribution to the shielding tensor (ppm) : 
          -133.628         54.085       -29.866
          -182.577        104.616       -24.774
            43.463        -72.363      -103.194

Paramagnetic contribution to the shielding tensor (ppm): 
           161.508        -58.469        26.223
           181.761        -74.527        24.380
           -46.601         74.791       129.492

Total shielding tensor (ppm): 
            27.880         -4.384        -3.644
            -0.815         30.089        -0.394
            -3.138          2.428        26.298


 Diagonalized sT*s matrix:
 
 sDSO          -127.686          -16.965           12.446  iso=     -44.069
 sPSO           151.175           44.710           20.589  iso=      72.158
        ---------------  ---------------  ---------------
 Total           23.488           27.745           33.034  iso=      28.089

 Orientation: 
  X           0.6635691   -0.4632704    0.5874152
  Y           0.1386113   -0.6954639   -0.7050652
  Z           0.7351619    0.5492818   -0.3972738

 --------------
 Nucleus  80H :
 --------------

Diamagnetic contribution to the shielding tensor (ppm) : 
          -151.832         50.667       -12.180
          -175.584         85.607       -11.969
           -19.787         17.918      -117.892

Paramagnetic contribution to the shielding tensor (ppm): 
           177.844        -47.715        11.743
           179.496        -53.619        12.208
            18.187        -19.246       143.627

Total shielding tensor (ppm): 
            26.012          2.953        -0.436
             3.912         31.988         0.239
            -1.600         -1.328        25.735


 Diagonalized sT*s matrix:
 
 sDSO           -91.469          -85.397           -7.252  iso=     -61.372
 sPSO           115.597          111.349           40.906  iso=      89.284
        ---------------  ---------------  ---------------
 Total           24.128           25.952           33.654  iso=      27.912

 Orientation: 
  X           0.8371416   -0.3399769    0.4284969
  Y          -0.3529836    0.2626528    0.8980067
  Z           0.4178475    0.9030112   -0.0998713

 --------------
 Nucleus  81H :
 --------------

Diamagnetic contribution to the shielding tensor (ppm) : 
          -160.509        -39.848        -2.384
          -201.525          4.634       -16.125
            91.116        -93.805      -192.204

Paramagnetic contribution to the shielding tensor (ppm): 
           184.949         37.419         2.771
           200.371         26.732        11.465
           -89.528         90.986       221.405

Total shielding tensor (ppm): 
            24.440         -2.429         0.387
            -1.154         31.366        -4.660
             1.588         -2.819        29.201


 Diagonalized sT*s matrix:
 
 sDSO          -205.456         -169.216           26.592  iso=    -116.026
 sPSO           229.459          195.639            7.988  iso=     144.362
        ---------------  ---------------  ---------------
 Total           24.004           26.423           34.580  iso=      28.336

 Orientation: 
  X           0.9765871   -0.0963327    0.1923479
  Y           0.2118129    0.5868315   -0.7815140
  Z          -0.0375904    0.8039582    0.5934966

[c03b01n03:3202038] 50 more processes have sent help message help-mpi-btl-openib.txt / error in device init
[c03b01n03:3202038] Set MCA parameter "orte_base_help_aggregate" to 0 to see all help / error messages
[c03b01n03:3202038] 8 more processes have sent help message help-mpi-btl-openib.txt / no active ports found


--------------------------------
CHEMICAL SHIELDING SUMMARY (ppm)
--------------------------------


  Nucleus  Element    Isotropic     Anisotropy
  -------  -------  ------------   ------------
      0       C           28.880        119.435 
      1       C           44.715        103.052 
      2       C           25.307        129.006 
      3       C           77.993        143.102 
      4       C           42.614        197.039 
      5       C           74.465        135.276 
      6       C          141.800         22.485 
      7       C          134.007         19.705 
      8       C          134.936         18.547 
      9       C          141.548         25.797 
     10       C           44.776        187.736 
     11       C           70.575        152.664 
     12       C           29.790        122.261 
     13       C           32.731        127.044 
     14       C           69.131        142.307 
     15       C           59.172        148.536 
     16       C          113.207         57.549 
     17       C          114.104         56.286 
     23       C           95.219         21.241 
     24       C          103.963         36.725 
     25       C           44.568        169.956 
     26       C          111.152         56.551 
     28       C           74.433        171.011 
     29       C           32.134        116.968 
     30       C           32.306        124.442 
     31       C           69.830        143.074 
     32       C           64.214        163.024 
     33       C          127.051         71.782 
     34       C          126.395         77.611 
     35       C          125.898         72.063 
     41       C          127.115         74.413 
     42       H           26.118          6.941 
     43       H           26.167          8.332 
     44       H           29.198          6.098 
     45       H           29.539          4.105 
     46       H           30.083          8.129 
     47       H           30.198         11.507 
     48       H           29.217          7.719 
     49       H           29.421          6.817 
     50       H           25.835          8.613 
     51       H           25.074          3.775 
     52       H           25.264          5.859 
     53       H           27.625          6.998 
     54       H           27.481          5.127 
     55       H           27.208          4.197 
     56       H           28.181          6.230 
     57       H           25.841         12.969 
     58       H           26.091          3.374 
     59       H           26.933          7.364 
     60       H           27.278          5.768 
     61       H           27.638          6.636 
     62       H           29.199         19.406 
     63       H           25.447          8.511 
     64       H           24.942          2.742 
     65       H           25.152          5.861 
     66       H           27.772          9.657 
     67       H           28.453          5.506 
     68       H           28.194          8.932 
     69       H           28.032          6.552 
     70       H           27.906          8.790 
     71       H           27.567          9.255 
     72       H           27.736          7.072 
     73       H           27.974          6.828 
     74       H           28.245          9.885 
     75       H           27.703         22.067 
     76       H           29.848         15.410 
     77       H           28.434         20.546 
     78       H           25.944         12.212 
     79       H           28.089          7.418 
     80       H           27.912          8.614 
     81       H           28.336          9.366 


NMR shielding tensor and spin rotation calculation done in   2.9 sec 

Maximum memory used throughout the entire PROP-calculation: 375.7 MB
--------------------------------------------------------------------------
WARNING: There was an error initializing an OpenFabrics device.

  Local host:   c03b01n03
  Local device: mlx5_0
--------------------------------------------------------------------------
--------------------------------------------------------------------------
WARNING: There is at least one non-excluded one OpenFabrics device found,
but there are no active ports detected (or Open MPI was unable to use
them).  This is most certainly not what you wanted.  Check your
cables, subnet manager configuration, etc.  The openib BTL will be
ignored for this job.

  Local host: c03b01n03
--------------------------------------------------------------------------
[c03b01n03:3202480] 51 more processes have sent help message help-mpi-btl-openib.txt / error in device init
[c03b01n03:3202480] Set MCA parameter "orte_base_help_aggregate" to 0 to see all help / error messages
[c03b01n03:3202480] 7 more processes have sent help message help-mpi-btl-openib.txt / no active ports found

--------------------------------
SUGGESTED CITATIONS FOR THIS RUN
--------------------------------

Below you find a list of papers that are relevant to this ORCA run
We neither can nor want to force you to cite these papers, but we appreciate if you do
You receive ORCA, which is the product of decades of hard work by many enthusiastic individuals, for free
The only thing we kindly ask in return is that you cite our papers,
We deeply appreciate it, if you show your appreciation for ORCA by not just citing the generic ORCA reference.

Please note that relegating all ORCA citations to the supporting information does *not* help us.
SI sections are not indexed - citations you put there will not count into any citation statistics
But we need these citations in order to attract the funding resources that allow us to do what we are doing

Therefore, if you are a happy ORCA user, please consider citing a few of the papers listed below in the main body of your paper

In addition to the list printed below, the program has created the file nmr-conf-11.bibtex that contains the list in bibtex format
You can import this file easily into all common literature databanks and citation aid programs


List of essential papers. We consider these as the minimum necessary citations

  1. Neese, F.
     Software update: the ORCA program system, version 6.0
     WIRES Comput. Molec. Sci. 2025 15(1), e70019
     doi.org/10.1002/wcms.7019

List of papers to cite with high priority. The work reported in these papers was absolutely
necessary for this run to complete.
Our perspective: the developers of density functionals and basis sets usually get cited in chemistry papers
Good! But without the algorithms to do something with them, the functionals or basis sets would not do anything.
Hence, in our opinion, the algorithm design and method developments papers are equally worthy of getting cited

  1. Neese, F.
     An improvement of the resolution of the identity approximation for the formation of the Coulomb matrix
     J. Comp. Chem. 2003 24(14), 1740-1747
     doi.org/10.1002/jcc.10318
  2. Stoychev, G.L.; Auer, A.A.; Neese, F.
     Automatic Generation of Auxiliary Basis Sets
     J. Theo. Comp. Chem. 2017 13 , 554-562
     doi.org/10.1021/acs.jctc.6b01041
  3. Stoychev, G.L.; Auer, A.A.; Izsak, R.; Neese, F.
     Self-Consistent Field Calculation of Nuclear Magnetic Resonance Chemical Shielding Constants Using Gauge-Including Atomic Orbitals and Approximate Two-Electron Integrals
     J. Chem. Theory Comput. 2018 14(2), 619-637
     doi.org/10.1021/acs.jctc.7b01006
  4. Garcia-Rates, M.; Neese, F.
     Effect of the Solute Cavity on the Solvation Energy and its Derivatives within the Framework of the Gaussian Charge Scheme
     J. Comput. Chem. 2020 41 , 922-939
     doi.org/10.1002/jcc.26139
  5. Neese, F.
     The SHARK Integral Generation and Digestion System
     J. Comp. Chem. 2022 44(3), 381
     doi.org/10.1002/jcc.26942

List of suggested additional citations. These are papers that are important in the 'surrounding' of 
of this run, or papers that preceded the highly important papers. If you like your results we are grateful for a citation.

  1. Neese, F.
     The ORCA program system
     WIRES Comput. Molec. Sci. 2012 2(1), 73-78
     doi.org/10.1002/wcms.81
  2. Neese, F.
     Software update: the ORCA program system, version 4.0
     WIRES Comput. Molec. Sci. 2018 8(1), 1-6
     doi.org/10.1002/wcms.1327
  3. Neese, F.; Wennmohs, F.; Becker, U.; Riplinger, C.
     The ORCA quantum chemistry program package
     J. Chem. Phys. 2020 152(22), 224108
     doi.org/10.1063/5.0004608
  4. Neese, F.
     Software update: The ORCA program system—Version 5.0
     WIRES Comput. Molec. Sci. 2022 12(1), e1606
     doi.org/10.1002/wcms.1606

List of optional additional citations

  1. Neese, F.
     Approximate second-order SCF convergence for spin unrestricted wavefunctions
     Chem. Phys. Lett. 2000 325(1-3), 93-98
     doi.org/10.1016/s0009-2614(00)00662-x

Timings for individual modules:

Sum of individual times          ...      289.006 sec (=   4.817 min)
Startup calculation              ...       91.324 sec (=   1.522 min)  31.6 %
SCF iterations                   ...      119.075 sec (=   1.985 min)  41.2 %
Property integrals               ...       55.873 sec (=   0.931 min)  19.3 %
SCF Response                     ...       15.393 sec (=   0.257 min)   5.3 %
Property calculations            ...        7.341 sec (=   0.122 min)   2.5 %
                             ****ORCA TERMINATED NORMALLY****
TOTAL RUN TIME: 0 days 0 hours 5 minutes 10 seconds 131 msec
