
                                 *****************
                                 * O   R   C   A *
                                 *****************

                                            #,                                       
                                            ###                                      
                                            ####                                     
                                            #####                                    
                                            ######                                   
                                           ########,                                 
                                     ,,################,,,,,                         
                               ,,#################################,,                 
                          ,,##########################################,,             
                       ,#########################################, ''#####,          
                    ,#############################################,,   '####,        
                  ,##################################################,,,,####,       
                ,###########''''           ''''###############################       
              ,#####''   ,,,,##########,,,,          '''####'''          '####       
            ,##' ,,,,###########################,,,                        '##       
           ' ,,###''''                  '''############,,,                           
         ,,##''                                '''############,,,,        ,,,,,,###''
      ,#''                                            '''#######################'''  
     '                                                          ''''####''''         
             ,#######,   #######,   ,#######,      ##                                
            ,#'     '#,  ##    ##  ,#'     '#,    #''#        ,####,    ,#,          
            ##       ##  ##   ,#'  ##            #'  '#       #'       ,# #          
            ##       ##  #######   ##           ,######,      #####,      #          
            '#,     ,#'  ##    ##  '#,     ,#' ,#      #,     #,   #      #          
             '#######'   ##     ##  '#######'  #'      '#     '####' #    #          



                #########################################################
                #                        -***-                          #
                #          Department of theory and spectroscopy        #
                #                                                       #
                #                      Frank Neese                      #
                #                                                       #
                #     Directorship, Architecture, Infrastructure        #
                #                    SHARK, DRIVERS                     #
                #        Core code/Algorithms in most modules           #
                #                                                       #
                #        Max Planck Institute fuer Kohlenforschung      #
                #                Kaiser Wilhelm Platz 1                 #
                #                 D-45470 Muelheim/Ruhr                 #
                #                      Germany                          #
                #                                                       #
                #                  All rights reserved                  #
                #                        -***-                          #
                #########################################################


                         Program Version 6.1.0-f.0  -   RELEASE   -


 With contributions from (in alphabetic order):
[Max-Planck-Institut fuer Kohlenforschung]                               
  Daniel Aravena         : Magnetic Suceptibility                        
  Michael Atanasov       : Ab Initio Ligand Field Theory (pilot matlab implementation)
  Alexander A. Auer      : GIAO ZORA, VPT2 properties, NMR spectrum      
  Ute Becker             : All parallelization in ORCA, NUMFREQ, NUMCALC 
  Giovanni Bistoni       : ED, misc. LED, open-shell LED, HFLD           
  Dmytro Bykov           : pre 5.0 version of the SCF Hessian            
  Marcos Casanova-Páez   : Triplet and SCS-CIS(D). UHF-(DLPNO)-IP/EA/STEOM-CCSD. UHF-CVS-IP/STEOM-CCSD   
  Vijay G. Chilkuri      : MRCI spin determinant printing, contributions to CSF-ICE 
  Pauline Colinet        : FMM embedding                                 
  Dipayan Datta          : RHF DLPNO-CCSD density                        
  Achintya Kumar Dutta   : EOM-CC, STEOM-CC                              
  Nicolas Foglia         : Exact transition moments, OPA infrastructure, MCD improvements    
  Dmitry Ganyushin       : Spin-Orbit,Spin-Spin,Magnetic field MRCI      
  Miquel Garcia-Rates    : C-PCM and meta-GGA Hessian, CCSD/C-PCM, Gaussian charge scheme 
  Tiago L. C. Gouveia    : GS-ROHF, GS-ROCIS                             
  Yang Guo               : DLPNO-NEVPT2, F12-NEVPT2, CIM, IAO-localization        
  Andreas Hansen         : Spin unrestricted coupled pair/coupled cluster methods 
  Ingolf Harden          : AUTO-CI MPn and infrastructure                
  Benjamin Helmich-Paris : MC-RPA, TRAH-(SCF,CASSCF), AVAS, COSX integrals, SCF dyn. polar., MC-PDFT, srDFT 
  Lee Huntington         : MR-EOM, pCC                                   
  Robert Izsak           : Overlap fitted RIJCOSX, COSX-SCS-MP3, EOM     
  Riya Kayal             : Wick's Theorem for AUTO-CI, AUTO-CI UHF-CCSDT 
  Emily Kempfer          : AUTO-CI RHF CISDT and CCSDT, approximate NEVPT4
  Christian Kollmar      : KDIIS, OOCD, Brueckner-CCSD(T), CCSD density, CASPT2, CASPT2-K, improved NEVPT2 
  Axel Koslowski         : Symmetry handling                             
  Simone Kossmann        : meta-GGA functionals, TD-DFT gradient, OOMP2, (MP2 Hessian; deprecated post 5.0) 
  Lucas Lang             : DCDCAS, Hyperfine gauge corrections, ICE-SOC+SSC
  Marvin Lechner         : AUTO-CI (C++ implementation), FIC-MRCC        
  Spencer Leger          : CASSCF response                               
  Dagmar Lenk            : GEPOL surface, SMD, ORCA-2-JSON               
  Dimitrios Liakos       : Extrapolation schemes; Compound Job, Property file
  Dimitrios Manganas     : Further ROCIS development; embedding schemes. LFT, Crystal Embedding 
  Dimitrios Pantazis     : SARC Basis sets                               
  Anastasios Papadopoulos: AUTO-CI, single reference methods and gradients 
  Taras Petrenko         : pre 6.0 DFT Hessian and TD-DFT gradient,  ECA, NRVS 
  Petra Pikulova         : Analytic Raman intensities                    
  Peter Pinski           : DLPNO-MP2, DLPNO-MP2 Gradient                 
  Shashank Vittal Rao    : ES-AILFT, MagRelax                            
  Christoph Reimann      : Effective Core Potentials                     
  Marius Retegan         : Local ZFS, SOC                                
  Christoph Riplinger    : Optimizer, TS searches, QM/MM, DLPNO-CCSD(T), (RO)-DLPNO pert. Triples 
  Michael Roemelt        : Original ROCIS implementation, recursive CI coupling coefficients
  Masaaki Saitow         : Open-shell DLPNO-CCSD energy and density      
  Barbara Sandhoefer     : DKH picture change effects                    
  Yorick L. A. Schmerwitz: GMF and freeze-and-release deltaSCF, NEB S-IDPP initial path                    
  Kantharuban Sivalingam : CASSCF convergence/infrastructure, NEVPT2, NEVPT3, NEVPT4(SD), FIC-MRCI and CEPA variants
  Bernardo de Souza      : ESD, SOC TD-DFT                               
  Georgi L. Stoychev     : AutoAux, RI-MP2 NMR, DLPNO-MP2 response, X2C  
  Van Anh Tran           : RI-MP2 g-tensors                              
  Willem Van den Heuvel  : Paramagnetic NMR                              
  Zikuan Wang            : NOTCH, Electric field optimization            
  Frank Wennmohs         : Technical directorship and infrastructure     
  Hang Xu                : AUTO-CI-Response properties                   
                                                                         
[FACCTs GmbH]                                                            
  Markus Bursch, Nicolas Foglia, Miquel Garcia-Rates, Ingolf Harden, Hagen Neugebauer, Anastasios Papadopoulos, 
  Christoph Riplinger, Bernardo de Souza, Georgi L. Stoychev                                                    
                                                                 
  APM, various basis sets, CI-OPT, improved COSX, DLPNO-Multilevel,           
  DOCKER, DRACO, updates on ESD, Fragmentator, GOAT, IRC, LR-CPCM, L-BFGS, MBIS, meta-GGA TD-DFT gradient, ML-optimized integration grids, 
  MM, NACMEs, nearIR, NEB, NEB-TS, NL-DFT gradient (VV10), 2- and 3-layer-ONIOM, interface openCOSMO-RS, QMMM,   
  Crystal-QMMM, RESP, rigid body optimization, SF, symmetry and pop. for TD-DFT, various functionals, SOLVATOR                                   
                                                                         
[Other institutions]                                                     
  V. Asgeirsson          : NEB                                           
  Christoph Bannwarth    : sTDA-DFT, sTD-DFT, PBEh-3c, B97-3c, D3        
  Giovanni Bistoni       : ETS/NOCV, ADLD/ADEX, COVALED                  
  Martin Brehm           : Molecular dynamics                            
  Ronald Cardenas        : ETS/NOCV                                      
  Martina Colucci        : COVALED                                       
  Sebastian Ehlert       : rSCAN, r2SCAN, r2SCAN-3c, D4, dhf basis sets  
  Marvin Friede          : D4 for Fr, Ra, Ac-Lr                          
  Lars Goerigk           : TD-DFT with DH, B97 family of functionals     
  Stefan Grimme          : VdW corrections, initial TS optimization, DFT functionals, gCP, sTDA/sTD-DF 
  Waldemar Hujo          : DFT-NL                                        
  H. Jonsson             : NEB                                           
  Holger Kruse           : gCP                                           
  Marcel Mueller         : wB97X-3c, vDZP basis set                      
  Hagen Neugebauer       : wr2SCAN, Native XTB                           
  Gianluca Regni         : ADLD/ADEX                                     
  Tobias Risthaus        : pre 6.0 range-separated hybrid DFT and stability analysis
  Lukas Wittmann         : regularized MP2, r2SCAN double-hybrids, wr2SCAN        
                                                                         
We gratefully acknowledge several colleagues who have allowed us to      
interface, adapt or use parts of their codes:                            
  Ed Valeev, F. Pavosevic, A. Kumar             : LibInt (2-el integral package), F12 methods 
  Garnet Chan, S. Sharma, J. Yang, R. Olivares  : DMRG                   
  Ulf Ekstrom                                   : XCFun DFT Library      
  Mihaly Kallay                                 : mrcc  (arbitrary order and MRCC methods)
  Frank Weinhold                                : gennbo (NPA and NBO analysis)           
  Simon Mueller                                 : openCOSMO-RS                            
  Christopher J. Cramer and Donald G. Truhlar   : smd solvation model                     
  S Lehtola, MJT Oliveira, MAL Marques          : LibXC Library                           
  Liviu Ungur et al                             : ANISO software                          


 Your calculation uses the libint2 library for the computation of 2-el integrals
 For citations please refer to: http://libint.valeyev.net

 Your ORCA version has been built with support for libXC version: 7.0.0
 For citations please refer to: https://libxc.gitlab.io

 This ORCA versions uses:
   CBLAS   interface :  Fast vector & matrix operations
   LAPACKE interface :  Fast linear algebra routines
   SCALAPACK package :  Parallel linear algebra routines
   Shared memory     :  Shared parallel matrices
   BLAS/LAPACK       :  OpenBLAS 0.3.29  USE64BITINT DYNAMIC_ARCH NO_AFFINITY Cooperlake SINGLE_THREADED
        Core in use  :  Cooperlake
   Copyright (c) 2011-2014, The OpenBLAS Project


  ***********************************
  * Starting time: Tue Mar  3 21:05:09 2026
  * Host name:     c03b01n04
  * Process ID:    1567304
  * Working dir.:  /lustre1/jiangy/jiangy_liuxy/NMR/B9D7C2-SSSS-NMR/opt_conf
  ***********************************

NOTE: MaxCore=5000 MB was set to SCF,MP2,MDCI,CIPSI,MRCI,RASCI and CIS
      => If you want to overwrite this, your respective input block should be placed after the MaxCore statement


***************************************
The coordinates will be read from file: opt-conf-13.xyz
***************************************



Warning: The global flag for NMR shieldings has been found
         but shieldings for certain elements have also been explicitly requested in the EPRNMR block
         ==>> only the requested shieldings will be calculated

================================================================================

----- Orbital basis set information -----
Your calculation utilizes the basis: pcSseg-2
   F. Jensen, J. Chem. Theory Comput. 11, 132 (2015).

----- AuxJ basis set information -----
Your calculation utilizes the AutoAux generation procedure.
  G. L. Stoychev, A. A. Auer, F. Neese, J. Chem. Theory Comput. 13, 554 (2017)

----- AuxC basis set information -----
Your calculation utilizes the AutoAux generation procedure.
  G. L. Stoychev, A. A. Auer, F. Neese, J. Chem. Theory Comput. 13, 554 (2017)

----- AuxJK basis set information -----
Your calculation utilizes the AutoAux generation procedure.
  G. L. Stoychev, A. A. Auer, F. Neese, J. Chem. Theory Comput. 13, 554 (2017)

----- AuxX basis set information -----
Your calculation utilizes the AutoAux generation procedure.
  G. L. Stoychev, A. A. Auer, F. Neese, J. Chem. Theory Comput. 13, 554 (2017)

================================================================================
                                        WARNINGS
                       Please study these warnings very carefully!
================================================================================


================================================================================
                                       INPUT FILE
================================================================================
NAME = nmr-conf-13.inp
|  1> !TPSS PCSSEG-2 AUTOAUX NMR CPCM(Methanol)
|  2> 
|  3> %pal nprocs 60 end
|  4> %maxcore 5000
|  5> 
|  6> *XYZFILE 0 1 opt-conf-13.xyz
|  7> 
|  8> %EPRNMR
|  9>    NUCLEI = ALL C {SHIFT}
| 10>    NUCLEI = ALL H {SHIFT}
| 11>    TAU DOBSON
| 12> END
| 13> 
| 14> 
| 15>                          ****END OF INPUT****
================================================================================

                       ****************************
                       * Single Point Calculation *
                       ****************************

---------------------------------
CARTESIAN COORDINATES (ANGSTROEM)
---------------------------------
  C     28.051088  -27.996054    1.492403
  C     29.008879  -27.258329    0.779341
  C     28.995886  -27.277874   -0.617560
  C     28.032712  -28.035708   -1.273948
  C     27.060373  -28.724881   -0.569373
  C     27.071426  -28.702966    0.818975
  C     25.944787  -29.420797   -1.290079
  C     24.652524  -28.587766   -1.171331
  C     24.783149  -27.246597   -1.930566
  C     24.102802  -26.111928   -1.142002
  C     24.837022  -25.823693    0.139047
  C     26.060885  -25.157840    0.096124
  C     26.769294  -24.896432    1.253184
  C     26.261293  -25.330754    2.491220
  C     25.039976  -25.978287    2.532572
  C     24.332791  -26.219805    1.365108
  C     23.429473  -29.436002   -1.553397
  C     24.256718  -27.251257   -3.369583
  O     29.934613  -26.516657   -1.259300
  O     28.208739  -27.961502    2.849369
  O     29.852060  -26.492342    1.548843
  O     26.949073  -25.107136    3.638259
  O     27.955922  -24.208563    1.330335
  C     31.259736  -26.575204    1.359067
  C     31.760090  -28.002597    1.700596
  C     31.428956  -28.937138    0.552406
  C     31.826382  -25.536007    2.335325
  O     31.247178  -24.275961    2.127833
  C     30.485520  -29.946938    0.703975
  C     30.112369  -30.723747   -0.376084
  C     30.702678  -30.504353   -1.630728
  C     31.683051  -29.536357   -1.762141
  C     32.042507  -28.755822   -0.677044
  C     27.257275  -28.614650    3.653535
  C     30.023147  -26.603717   -2.662392
  C     28.487534  -23.659833    0.146540
  O     31.236445  -28.411239    2.934012
  O     23.588743  -30.208756   -2.713577
  O     24.955166  -28.218824   -4.137948
  O     29.177331  -31.733501   -0.352664
  O     30.320404  -31.240002   -2.709327
  C     28.541930  -32.013878    0.868763
  H     28.024203  -28.084362   -2.350664
  H     26.309860  -29.241238    1.360334
  H     25.763933  -30.402640   -0.848644
  H     26.199451  -29.558508   -2.340111
  H     24.533348  -28.330384   -0.114467
  H     25.850102  -27.013018   -1.985637
  H     24.089295  -25.209529   -1.758457
  H     23.069000  -26.386975   -0.925809
  H     26.445546  -24.839206   -0.860060
  H     24.647064  -26.274866    3.492658
  H     23.374037  -26.714432    1.420546
  H     23.224253  -30.149615   -0.748338
  H     22.546274  -28.781819   -1.644750
  H     24.417491  -26.253677   -3.800886
  H     23.178082  -27.454524   -3.389012
  H     27.798006  -24.707938    3.405023
  H     31.522936  -26.313272    0.329329
  H     32.849719  -27.962363    1.824807
  H     31.640413  -25.883892    3.361473
  H     32.901903  -25.425271    2.185235
  H     30.294592  -24.424954    2.046118
  H     30.055103  -30.109342    1.678540
  H     32.153886  -29.406316   -2.723890
  H     32.803635  -27.999423   -0.793851
  H     27.545597  -28.396588    4.680084
  H     26.251477  -28.229100    3.469667
  H     27.272342  -29.698523    3.493747
  H     30.868913  -25.976055   -2.938880
  H     30.210172  -27.631359   -2.984575
  H     29.117930  -26.222487   -3.146320
  H     29.356745  -23.078658    0.451164
  H     28.803795  -24.442853   -0.546717
  H     27.763825  -23.000577   -0.342795
  H     30.310764  -28.114907    2.977548
  H     24.117122  -29.690590   -3.341368
  H     24.675818  -28.154391   -5.056873
  H     29.646119  -31.866136   -2.412055
  H     29.261248  -32.333236    1.629255
  H     27.986555  -31.142972    1.229161
  H     27.849332  -32.828196    0.660602

----------------------------
CARTESIAN COORDINATES (A.U.)
----------------------------
  NO LB      ZA    FRAG     MASS         X           Y           Z
   0 C     6.0000    0    12.011   53.008873  -52.904876    2.820232
   1 C     6.0000    0    12.011   54.818837  -51.510777    1.472741
   2 C     6.0000    0    12.011   54.794283  -51.547711   -1.167019
   3 C     6.0000    0    12.011   52.974149  -52.979809   -2.407413
   4 C     6.0000    0    12.011   51.136694  -54.282158   -1.075959
   5 C     6.0000    0    12.011   51.157580  -54.240745    1.547639
   6 C     6.0000    0    12.011   49.028542  -55.597248   -2.437896
   7 C     6.0000    0    12.011   46.586518  -54.023048   -2.213494
   8 C     6.0000    0    12.011   46.833365  -51.488607   -3.648241
   9 C     6.0000    0    12.011   45.547695  -49.344393   -2.158070
  10 C     6.0000    0    12.011   46.935169  -48.799708    0.262761
  11 C     6.0000    0    12.011   49.247936  -47.541428    0.181649
  12 C     6.0000    0    12.011   50.586635  -47.047439    2.368174
  13 C     6.0000    0    12.011   49.626652  -47.868188    4.707724
  14 C     6.0000    0    12.011   47.318696  -49.091848    4.785868
  15 C     6.0000    0    12.011   45.982312  -49.548250    2.579680
  16 C     6.0000    0    12.011   44.275287  -55.625982   -2.935496
  17 C     6.0000    0    12.011   45.838555  -51.497413   -6.367588
  18 O     8.0000    0    15.999   56.568221  -50.109220   -2.379731
  19 O     8.0000    0    15.999   53.306792  -52.839581    5.384527
  20 O     8.0000    0    15.999   56.412217  -50.063271    2.926888
  21 O     8.0000    0    15.999   50.926367  -47.445610    6.875313
  22 O     8.0000    0    15.999   52.829036  -45.747555    2.513969
  23 C     6.0000    0    12.011   59.072339  -50.219858    2.568264
  24 C     6.0000    0    12.011   60.017873  -52.917239    3.213662
  25 C     6.0000    0    12.011   59.392119  -54.683266    1.043895
  26 C     6.0000    0    12.011   60.143146  -48.256060    4.413124
  27 O     8.0000    0    15.999   59.048608  -45.874918    4.021021
  28 C     6.0000    0    12.011   57.609283  -56.591511    1.330320
  29 C     6.0000    0    12.011   56.904130  -58.059468   -0.710696
  30 C     6.0000    0    12.011   58.019652  -57.644872   -3.081629
  31 C     6.0000    0    12.011   59.872289  -55.815625   -3.329965
  32 C     6.0000    0    12.011   60.551562  -54.340628   -1.279427
  33 C     6.0000    0    12.011   51.508784  -54.073852    6.904181
  34 C     6.0000    0    12.011   56.735526  -50.273740   -5.031191
  35 C     6.0000    0    12.011   53.833638  -44.710605    0.276920
  36 O     8.0000    0    15.999   59.028327  -53.689460    5.544480
  37 O     8.0000    0    15.999   44.576264  -57.086275   -5.127917
  38 O     8.0000    0    15.999   47.158429  -53.325848   -7.819589
  39 O     8.0000    0    15.999   55.137165  -59.967626   -0.666439
  40 O     8.0000    0    15.999   57.297259  -59.035049   -5.119886
  41 C     6.0000    0    12.011   53.936431  -60.497461    1.641725
  42 H     1.0000    0     1.008   52.958069  -53.071754   -4.442111
  43 H     1.0000    0     1.008   49.718430  -55.257931    2.570659
  44 H     1.0000    0     1.008   48.686778  -57.452664   -1.603705
  45 H     1.0000    0     1.008   49.509788  -55.857485   -4.422168
  46 H     1.0000    0     1.008   46.361308  -53.536667   -0.216312
  47 H     1.0000    0     1.008   48.849614  -51.047207   -3.752311
  48 H     1.0000    0     1.008   45.522171  -47.639106   -3.323002
  49 H     1.0000    0     1.008   43.594092  -49.864156   -1.749526
  50 H     1.0000    0     1.008   49.974839  -46.939297   -1.625277
  51 H     1.0000    0     1.008   46.576201  -49.652302    6.600168
  52 H     1.0000    0     1.008   44.170528  -50.482960    2.684443
  53 H     1.0000    0     1.008   43.887477  -56.974516   -1.414153
  54 H     1.0000    0     1.008   42.606284  -54.389755   -3.108127
  55 H     1.0000    0     1.008   46.142371  -49.612260   -7.182634
  56 H     1.0000    0     1.008   43.800227  -51.881532   -6.404305
  57 H     1.0000    0     1.008   52.530619  -46.691235    6.434560
  58 H     1.0000    0     1.008   59.569715  -49.724877    0.622342
  59 H     1.0000    0     1.008   62.076973  -52.841208    3.448385
  60 H     1.0000    0     1.008   59.791716  -48.913466    6.352262
  61 H     1.0000    0     1.008   62.175586  -48.046799    4.129496
  62 H     1.0000    0     1.008   57.248482  -46.156474    3.866603
  63 H     1.0000    0     1.008   56.795914  -56.898411    3.171982
  64 H     1.0000    0     1.008   60.762039  -55.569884   -5.147407
  65 H     1.0000    0     1.008   61.989886  -52.911240   -1.500160
  66 H     1.0000    0     1.008   52.053635  -53.661774    8.844078
  67 H     1.0000    0     1.008   49.608102  -53.345267    6.556720
  68 H     1.0000    0     1.008   51.537257  -56.122075    6.602225
  69 H     1.0000    0     1.008   58.333791  -49.087630   -5.553679
  70 H     1.0000    0     1.008   57.088951  -52.215700   -5.640029
  71 H     1.0000    0     1.008   55.024913  -49.553318   -5.945683
  72 H     1.0000    0     1.008   55.476209  -43.612344    0.852577
  73 H     1.0000    0     1.008   54.431285  -46.190298   -1.033146
  74 H     1.0000    0     1.008   52.466025  -43.464792   -0.647789
  75 H     1.0000    0     1.008   57.279044  -53.129475    5.626751
  76 H     1.0000    0     1.008   45.574756  -56.107085   -6.314270
  77 H     1.0000    0     1.008   46.630539  -53.204089   -9.556106
  78 H     1.0000    0     1.008   56.023046  -60.218271   -4.558123
  79 H     1.0000    0     1.008   55.295745  -61.100961    3.078846
  80 H     1.0000    0     1.008   52.886924  -58.851688    2.322778
  81 H     1.0000    0     1.008   52.627611  -62.036300    1.248357

--------------------------------
INTERNAL COORDINATES (ANGSTROEM)
--------------------------------
 C      0   0   0     0.000000000000     0.00000000     0.00000000
 C      1   0   0     1.403588501019     0.00000000     0.00000000
 C      2   1   0     1.397097734650   119.62072768     0.00000000
 C      3   2   1     1.390273595597   119.08662686   359.75212117
 C      4   3   2     1.384496316417   121.17292197     2.54149144
 C      1   2   3     1.383100169709   120.30622550   357.83155691
 C      5   4   3     1.499416188591   120.59376576   173.61026561
 C      7   5   4     1.542072056997   109.61828668   256.59753031
 C      8   7   5     1.546684737436   111.09088813    66.51961913
 C      9   8   7     1.540188317781   110.49864001   218.75114762
 C     10   9   8     1.504408197509   111.19486124    67.28351587
 C     11  10   9     1.393931592405   119.59068316    73.50341954
 C     12  11  10     1.381652267643   120.98139490   180.99334966
 C     13  12  11     1.406923879351   119.56307687     1.22694924
 C     14  13  12     1.382976877926   119.32199383   358.09638656
 C     11  10   9     1.383609985099   121.45695646   254.30961060
 C      8   7   5     1.536662933288   110.46539420   195.48054855
 C      9   8   7     1.532292372416   115.42602152    94.04519450
 O      3   2   1     1.368389820283   117.04858382   178.59586394
 O      1   2   3     1.366530448938   114.35930828   176.47416324
 O      2   1   3     1.374707871759   115.27962533   176.09691175
 O     14  13  12     1.356003086682   120.68430058   178.83570915
 O     13  12  11     1.373754378630   125.77844607   182.46586565
 C     21   2   1     1.422825727573   119.98090840   129.56406924
 C     24  21   2     1.550627514966   110.08876011   296.52931079
 C     25  24  21     1.517023268509   109.26515276    77.46261058
 C     24  21   2     1.534307299042   103.94985849   177.16348788
 O     27  24  21     1.402228904155   111.21855543   305.74455460
 C     26  25  24     1.390230478228   120.86862471   247.93549594
 C     29  26  25     1.381738548168   120.42436522   174.78202086
 C     30  29  26     1.403826930634   119.81347675     0.86970486
 C     31  30  29     1.383985896166   119.47475382     1.92017430
 C     32  31  30     1.384153271472   120.26056903   357.54326785
 C     20   1   2     1.406617033690   118.54990770   176.79974969
 C     19   3   2     1.408575697631   118.41694430   174.60632732
 C     23  13  12     1.408931381542   118.27778593     3.04145314
 O     25  24  21     1.400895076167   109.98802269   311.74705379
 O     17   8   7     1.403043754612   114.78850789   315.14198328
 O     18   9   8     1.419295257066   109.96351333   300.46736712
 O     30  29  26     1.376388752391   125.63388971   181.09869968
 O     31  30  29     1.360400574450   120.39282181   181.62531748
 C     40  30  29     1.405073364480   117.93014760   359.76010462
 H      4   3   2     1.077848153568   120.11310398   181.68304130
 H      6   1   2     1.078326581519   120.72593117   182.35148415
 H      7   5   4     1.091599549122   110.26422600   137.31582966
 H      7   5   4     1.089212890030   110.37070619    17.63829477
 H      8   7   5     1.094261571780   107.01979540   310.97744419
 H      9   8   7     1.093609232600   106.99697296   335.39941954
 H     10   9   8     1.092942372740   108.96249576   187.63937584
 H     10   9   8     1.091392329964   109.52263177   305.51011390
 H     12  11  10     1.078785933547   118.77994609     1.54794054
 H     15  14  13     1.078936434760   118.48370391   182.10793082
 H     16  11  10     1.080249829830   120.00041053   357.63213869
 H     17   8   7     1.095207982656   109.02884441    73.44579373
 H     17   8   7     1.102878312906   109.30204569   190.44842039
 H     18   9   8     1.098651742307   108.39955835   180.74135390
 H     18   9   8     1.097794250058   110.77793559    62.70962092
 H     22  14  13     0.966667741160   108.02551699   355.10847876
 H     24  21   2     1.094642871229   110.45177537    58.80482687
 H     25  24  21     1.097423270094   108.15374527   195.94520183
 H     27  24  21     1.099357734004   108.48820859    67.65851791
 H     27  24  21     1.091574518133   110.18837658   187.02819095
 H     28  27  24     0.967623806396   106.30625970    45.84813666
 H     29  26  25     1.077688050885   118.62560801   354.72469959
 H     32  31  30     1.078683395443   118.56631837   177.65059342
 H     33  32  31     1.079398020500   119.56764041   180.42747327
 H     34  20   1     1.088340303572   105.48643991   183.80735862
 H     34  20   1     1.092742159979   111.25823987   302.31626465
 H     34  20   1     1.095691275798   111.50955930    65.14709952
 H     35  19   3     1.088909920172   105.43332854   183.81212414
 H     35  19   3     1.093081237013   111.25141205   302.45392387
 H     35  19   3     1.094961699130   111.51577872    65.39175624
 H     36  23  13     1.089076750363   105.90025505   174.13000447
 H     36  23  13     1.092587005265   111.29817239   292.69141607
 H     36  23  13     1.094450646755   111.14685422    55.46935845
 H     37  25  24     0.972930085153   107.82994477    40.31152682
 H     38  17   8     0.970464480934   107.61690191   323.34024284
 H     39  18   9     0.962605995837   109.16952673   185.36968061
 H     41  31  30     0.966992209212   107.59877808   359.19933012
 H     42  40  30     1.094420617181   111.41138179   298.42976772
 H     42  40  30     1.093985577973   110.92200735    60.94346172
 H     42  40  30     1.089099073737   105.70193051   179.65633849

---------------------------
INTERNAL COORDINATES (A.U.)
---------------------------
 C      0   0   0     0.000000000000     0.00000000     0.00000000
 C      1   0   0     2.652397871646     0.00000000     0.00000000
 C      2   1   0     2.640132100810   119.62072768     0.00000000
 C      3   2   1     2.627236346901   119.08662686   359.75212117
 C      4   3   2     2.616318871451   121.17292197     2.54149144
 C      1   2   3     2.613680536530   120.30622550   357.83155691
 C      5   4   3     2.833485957206   120.59376576   173.61026561
 C      7   5   4     2.914093866497   109.61828668   256.59753031
 C      8   7   5     2.922810569270   111.09088813    66.51961913
 C      9   8   7     2.910534115271   110.49864001   218.75114762
 C     10   9   8     2.842919486919   111.19486124    67.28351587
 C     11  10   9     2.634148959066   119.59068316    73.50341954
 C     12  11  10     2.610944398157   120.98139490   180.99334966
 C     13  12  11     2.658700823247   119.56307687     1.22694924
 C     14  13  12     2.613447548825   119.32199383   358.09638656
 C     11  10   9     2.614643947995   121.45695646   254.30961060
 C      8   7   5     2.903872104063   110.46539420   195.48054855
 C      9   8   7     2.895612940963   115.42602152    94.04519450
 O      3   2   1     2.585882004781   117.04858382   178.59586394
 O      1   2   3     2.582368302157   114.35930828   176.47416324
 O      2   1   3     2.597821391771   115.27962533   176.09691175
 O     14  13  12     2.562474470581   120.68430058   178.83570915
 O     13  12  11     2.596019550886   125.77844607   182.46586565
 C     21   2   1     2.688750961410   119.98090840   129.56406924
 C     24  21   2     2.930261339008   110.08876011   296.52931079
 C     25  24  21     2.866758516269   109.26515276    77.46261058
 C     24  21   2     2.899420600465   103.94985849   177.16348788
 O     27  24  21     2.649828605921   111.21855543   305.74455460
 C     26  25  24     2.627154866880   120.86862471   247.93549594
 C     29  26  25     2.611107444719   120.42436522   174.78202086
 C     30  29  26     2.652848438322   119.81347675     0.86970486
 C     31  30  29     2.615354316964   119.47475382     1.92017430
 C     32  31  30     2.615670610454   120.26056903   357.54326785
 C     20   1   2     2.658120968982   118.54990770   176.79974969
 C     19   3   2     2.661822307420   118.41694430   174.60632732
 C     23  13  12     2.662494452602   118.27778593     3.04145314
 O     25  24  21     2.647308036314   109.98802269   311.74705379
 O     17   8   7     2.651368450126   114.78850789   315.14198328
 O     18   9   8     2.682079339028   109.96351333   300.46736712
 O     30  29  26     2.600997795828   125.63388971   181.09869968
 O     31  30  29     2.570784518139   120.39282181   181.62531748
 C     40  30  29     2.655203856935   117.93014760   359.76010462
 H      4   3   2     2.036837824197   120.11310398   181.68304130
 H      6   1   2     2.037741921998   120.72593117   182.35148415
 H      7   5   4     2.062824195752   110.26422600   137.31582966
 H      7   5   4     2.058314063694   110.37070619    17.63829477
 H      8   7   5     2.067854689538   107.01979540   310.97744419
 H      9   8   7     2.066621947142   106.99697296   335.39941954
 H     10   9   8     2.065361764637   108.96249576   187.63937584
 H     10   9   8     2.062432608294   109.52263177   305.51011390
 H     12  11  10     2.038609971531   118.77994609     1.54794054
 H     15  14  13     2.038894377607   118.48370391   182.10793082
 H     16  11  10     2.041376334594   120.00041053   357.63213869
 H     17   8   7     2.069643146904   109.02884441    73.44579373
 H     17   8   7     2.084137970433   109.30204569   190.44842039
 H     18   9   8     2.076150909516   108.39955835   180.74135390
 H     18   9   8     2.074530484002   110.77793559    62.70962092
 H     22  14  13     1.826737293288   108.02551699   355.10847876
 H     24  21   2     2.068575241072   110.45177537    58.80482687
 H     25  24  21     2.073829433469   108.15374527   195.94520183
 H     27  24  21     2.077485040475   108.48820859    67.65851791
 H     27  24  21     2.062776894038   110.18837658   187.02819095
 H     28  27  24     1.828543994750   106.30625970    45.84813666
 H     29  26  25     2.036535273972   118.62560801   354.72469959
 H     32  31  30     2.038416202596   118.56631837   177.65059342
 H     33  32  31     2.039766648242   119.56764041   180.42747327
 H     34  20   1     2.056665114260   105.48643991   183.80735862
 H     34  20   1     2.064983417349   111.25823987   302.31626465
 H     34  20   1     2.070556438585   111.50955930    65.14709952
 H     35  19   3     2.057741533635   105.43332854   183.81212414
 H     35  19   3     2.065624180083   111.25141205   302.45392387
 H     35  19   3     2.069177738489   111.51577872    65.39175624
 H     36  23  13     2.058056797007   105.90025505   174.13000447
 H     36  23  13     2.064690217432   111.29817239   292.69141607
 H     36  23  13     2.068211989460   111.14685422    55.46935845
 H     37  25  24     1.838571408391   107.82994477    40.31152682
 H     38  17   8     1.833912091662   107.61690191   323.34024284
 H     39  18   9     1.819061707002   109.16952673   185.36968061
 H     41  31  30     1.827350449045   107.59877808   359.19933012
 H     42  40  30     2.068155241790   111.41138179   298.42976772
 H     42  40  30     2.067333136829   110.92200735    60.94346172
 H     42  40  30     2.058098982070   105.70193051   179.65633849

---------------------
BASIS SET INFORMATION
---------------------
There are 3 groups of distinct atoms

 Group   1 Type C   : 11s7p2d1f contracted to 4s5p2d1f pattern {7211/31111/11/1}
 Group   2 Type O   : 11s7p2d1f contracted to 4s5p2d1f pattern {7211/31111/11/1}
 Group   3 Type H   : 6s3p1d contracted to 3s2p1d pattern {411/21/1}

Atom   0C    basis set group =>   1
Atom   1C    basis set group =>   1
Atom   2C    basis set group =>   1
Atom   3C    basis set group =>   1
Atom   4C    basis set group =>   1
Atom   5C    basis set group =>   1
Atom   6C    basis set group =>   1
Atom   7C    basis set group =>   1
Atom   8C    basis set group =>   1
Atom   9C    basis set group =>   1
Atom  10C    basis set group =>   1
Atom  11C    basis set group =>   1
Atom  12C    basis set group =>   1
Atom  13C    basis set group =>   1
Atom  14C    basis set group =>   1
Atom  15C    basis set group =>   1
Atom  16C    basis set group =>   1
Atom  17C    basis set group =>   1
Atom  18O    basis set group =>   2
Atom  19O    basis set group =>   2
Atom  20O    basis set group =>   2
Atom  21O    basis set group =>   2
Atom  22O    basis set group =>   2
Atom  23C    basis set group =>   1
Atom  24C    basis set group =>   1
Atom  25C    basis set group =>   1
Atom  26C    basis set group =>   1
Atom  27O    basis set group =>   2
Atom  28C    basis set group =>   1
Atom  29C    basis set group =>   1
Atom  30C    basis set group =>   1
Atom  31C    basis set group =>   1
Atom  32C    basis set group =>   1
Atom  33C    basis set group =>   1
Atom  34C    basis set group =>   1
Atom  35C    basis set group =>   1
Atom  36O    basis set group =>   2
Atom  37O    basis set group =>   2
Atom  38O    basis set group =>   2
Atom  39O    basis set group =>   2
Atom  40O    basis set group =>   2
Atom  41C    basis set group =>   1
Atom  42H    basis set group =>   3
Atom  43H    basis set group =>   3
Atom  44H    basis set group =>   3
Atom  45H    basis set group =>   3
Atom  46H    basis set group =>   3
Atom  47H    basis set group =>   3
Atom  48H    basis set group =>   3
Atom  49H    basis set group =>   3
Atom  50H    basis set group =>   3
Atom  51H    basis set group =>   3
Atom  52H    basis set group =>   3
Atom  53H    basis set group =>   3
Atom  54H    basis set group =>   3
Atom  55H    basis set group =>   3
Atom  56H    basis set group =>   3
Atom  57H    basis set group =>   3
Atom  58H    basis set group =>   3
Atom  59H    basis set group =>   3
Atom  60H    basis set group =>   3
Atom  61H    basis set group =>   3
Atom  62H    basis set group =>   3
Atom  63H    basis set group =>   3
Atom  64H    basis set group =>   3
Atom  65H    basis set group =>   3
Atom  66H    basis set group =>   3
Atom  67H    basis set group =>   3
Atom  68H    basis set group =>   3
Atom  69H    basis set group =>   3
Atom  70H    basis set group =>   3
Atom  71H    basis set group =>   3
Atom  72H    basis set group =>   3
Atom  73H    basis set group =>   3
Atom  74H    basis set group =>   3
Atom  75H    basis set group =>   3
Atom  76H    basis set group =>   3
Atom  77H    basis set group =>   3
Atom  78H    basis set group =>   3
Atom  79H    basis set group =>   3
Atom  80H    basis set group =>   3
Atom  81H    basis set group =>   3
---------------------------------
AUXILIARY/J BASIS SET INFORMATION
---------------------------------
There are 3 groups of distinct atoms

 Group   1 Type C   : 15s13p12d5f5g contracted to 15s13p12d5f5g pattern {111111111111111/1111111111111/111111111111/11111/11111}
 Group   2 Type O   : 15s13p12d5f5g contracted to 15s13p12d5f5g pattern {111111111111111/1111111111111/111111111111/11111/11111}
 Group   3 Type H   : 12s4p3d2f contracted to 12s4p3d2f pattern {111111111111/1111/111/11}

Atom   0C    basis set group =>   1
Atom   1C    basis set group =>   1
Atom   2C    basis set group =>   1
Atom   3C    basis set group =>   1
Atom   4C    basis set group =>   1
Atom   5C    basis set group =>   1
Atom   6C    basis set group =>   1
Atom   7C    basis set group =>   1
Atom   8C    basis set group =>   1
Atom   9C    basis set group =>   1
Atom  10C    basis set group =>   1
Atom  11C    basis set group =>   1
Atom  12C    basis set group =>   1
Atom  13C    basis set group =>   1
Atom  14C    basis set group =>   1
Atom  15C    basis set group =>   1
Atom  16C    basis set group =>   1
Atom  17C    basis set group =>   1
Atom  18O    basis set group =>   2
Atom  19O    basis set group =>   2
Atom  20O    basis set group =>   2
Atom  21O    basis set group =>   2
Atom  22O    basis set group =>   2
Atom  23C    basis set group =>   1
Atom  24C    basis set group =>   1
Atom  25C    basis set group =>   1
Atom  26C    basis set group =>   1
Atom  27O    basis set group =>   2
Atom  28C    basis set group =>   1
Atom  29C    basis set group =>   1
Atom  30C    basis set group =>   1
Atom  31C    basis set group =>   1
Atom  32C    basis set group =>   1
Atom  33C    basis set group =>   1
Atom  34C    basis set group =>   1
Atom  35C    basis set group =>   1
Atom  36O    basis set group =>   2
Atom  37O    basis set group =>   2
Atom  38O    basis set group =>   2
Atom  39O    basis set group =>   2
Atom  40O    basis set group =>   2
Atom  41C    basis set group =>   1
Atom  42H    basis set group =>   3
Atom  43H    basis set group =>   3
Atom  44H    basis set group =>   3
Atom  45H    basis set group =>   3
Atom  46H    basis set group =>   3
Atom  47H    basis set group =>   3
Atom  48H    basis set group =>   3
Atom  49H    basis set group =>   3
Atom  50H    basis set group =>   3
Atom  51H    basis set group =>   3
Atom  52H    basis set group =>   3
Atom  53H    basis set group =>   3
Atom  54H    basis set group =>   3
Atom  55H    basis set group =>   3
Atom  56H    basis set group =>   3
Atom  57H    basis set group =>   3
Atom  58H    basis set group =>   3
Atom  59H    basis set group =>   3
Atom  60H    basis set group =>   3
Atom  61H    basis set group =>   3
Atom  62H    basis set group =>   3
Atom  63H    basis set group =>   3
Atom  64H    basis set group =>   3
Atom  65H    basis set group =>   3
Atom  66H    basis set group =>   3
Atom  67H    basis set group =>   3
Atom  68H    basis set group =>   3
Atom  69H    basis set group =>   3
Atom  70H    basis set group =>   3
Atom  71H    basis set group =>   3
Atom  72H    basis set group =>   3
Atom  73H    basis set group =>   3
Atom  74H    basis set group =>   3
Atom  75H    basis set group =>   3
Atom  76H    basis set group =>   3
Atom  77H    basis set group =>   3
Atom  78H    basis set group =>   3
Atom  79H    basis set group =>   3
Atom  80H    basis set group =>   3
Atom  81H    basis set group =>   3
---------------------------------
AUXILIARY/C BASIS SET INFORMATION
---------------------------------
There are 3 groups of distinct atoms

 Group   1 Type C   : 15s13p12d5f5g contracted to 15s13p12d5f5g pattern {111111111111111/1111111111111/111111111111/11111/11111}
 Group   2 Type O   : 15s13p12d5f5g contracted to 15s13p12d5f5g pattern {111111111111111/1111111111111/111111111111/11111/11111}
 Group   3 Type H   : 12s4p3d2f contracted to 12s4p3d2f pattern {111111111111/1111/111/11}

Atom   0C    basis set group =>   1
Atom   1C    basis set group =>   1
Atom   2C    basis set group =>   1
Atom   3C    basis set group =>   1
Atom   4C    basis set group =>   1
Atom   5C    basis set group =>   1
Atom   6C    basis set group =>   1
Atom   7C    basis set group =>   1
Atom   8C    basis set group =>   1
Atom   9C    basis set group =>   1
Atom  10C    basis set group =>   1
Atom  11C    basis set group =>   1
Atom  12C    basis set group =>   1
Atom  13C    basis set group =>   1
Atom  14C    basis set group =>   1
Atom  15C    basis set group =>   1
Atom  16C    basis set group =>   1
Atom  17C    basis set group =>   1
Atom  18O    basis set group =>   2
Atom  19O    basis set group =>   2
Atom  20O    basis set group =>   2
Atom  21O    basis set group =>   2
Atom  22O    basis set group =>   2
Atom  23C    basis set group =>   1
Atom  24C    basis set group =>   1
Atom  25C    basis set group =>   1
Atom  26C    basis set group =>   1
Atom  27O    basis set group =>   2
Atom  28C    basis set group =>   1
Atom  29C    basis set group =>   1
Atom  30C    basis set group =>   1
Atom  31C    basis set group =>   1
Atom  32C    basis set group =>   1
Atom  33C    basis set group =>   1
Atom  34C    basis set group =>   1
Atom  35C    basis set group =>   1
Atom  36O    basis set group =>   2
Atom  37O    basis set group =>   2
Atom  38O    basis set group =>   2
Atom  39O    basis set group =>   2
Atom  40O    basis set group =>   2
Atom  41C    basis set group =>   1
Atom  42H    basis set group =>   3
Atom  43H    basis set group =>   3
Atom  44H    basis set group =>   3
Atom  45H    basis set group =>   3
Atom  46H    basis set group =>   3
Atom  47H    basis set group =>   3
Atom  48H    basis set group =>   3
Atom  49H    basis set group =>   3
Atom  50H    basis set group =>   3
Atom  51H    basis set group =>   3
Atom  52H    basis set group =>   3
Atom  53H    basis set group =>   3
Atom  54H    basis set group =>   3
Atom  55H    basis set group =>   3
Atom  56H    basis set group =>   3
Atom  57H    basis set group =>   3
Atom  58H    basis set group =>   3
Atom  59H    basis set group =>   3
Atom  60H    basis set group =>   3
Atom  61H    basis set group =>   3
Atom  62H    basis set group =>   3
Atom  63H    basis set group =>   3
Atom  64H    basis set group =>   3
Atom  65H    basis set group =>   3
Atom  66H    basis set group =>   3
Atom  67H    basis set group =>   3
Atom  68H    basis set group =>   3
Atom  69H    basis set group =>   3
Atom  70H    basis set group =>   3
Atom  71H    basis set group =>   3
Atom  72H    basis set group =>   3
Atom  73H    basis set group =>   3
Atom  74H    basis set group =>   3
Atom  75H    basis set group =>   3
Atom  76H    basis set group =>   3
Atom  77H    basis set group =>   3
Atom  78H    basis set group =>   3
Atom  79H    basis set group =>   3
Atom  80H    basis set group =>   3
Atom  81H    basis set group =>   3
----------------------------------
AUXILIARY/JK BASIS SET INFORMATION
----------------------------------
There are 3 groups of distinct atoms

 Group   1 Type C   : 15s13p12d5f5g contracted to 15s13p12d5f5g pattern {111111111111111/1111111111111/111111111111/11111/11111}
 Group   2 Type O   : 15s13p12d5f5g contracted to 15s13p12d5f5g pattern {111111111111111/1111111111111/111111111111/11111/11111}
 Group   3 Type H   : 12s4p3d2f contracted to 12s4p3d2f pattern {111111111111/1111/111/11}

Atom   0C    basis set group =>   1
Atom   1C    basis set group =>   1
Atom   2C    basis set group =>   1
Atom   3C    basis set group =>   1
Atom   4C    basis set group =>   1
Atom   5C    basis set group =>   1
Atom   6C    basis set group =>   1
Atom   7C    basis set group =>   1
Atom   8C    basis set group =>   1
Atom   9C    basis set group =>   1
Atom  10C    basis set group =>   1
Atom  11C    basis set group =>   1
Atom  12C    basis set group =>   1
Atom  13C    basis set group =>   1
Atom  14C    basis set group =>   1
Atom  15C    basis set group =>   1
Atom  16C    basis set group =>   1
Atom  17C    basis set group =>   1
Atom  18O    basis set group =>   2
Atom  19O    basis set group =>   2
Atom  20O    basis set group =>   2
Atom  21O    basis set group =>   2
Atom  22O    basis set group =>   2
Atom  23C    basis set group =>   1
Atom  24C    basis set group =>   1
Atom  25C    basis set group =>   1
Atom  26C    basis set group =>   1
Atom  27O    basis set group =>   2
Atom  28C    basis set group =>   1
Atom  29C    basis set group =>   1
Atom  30C    basis set group =>   1
Atom  31C    basis set group =>   1
Atom  32C    basis set group =>   1
Atom  33C    basis set group =>   1
Atom  34C    basis set group =>   1
Atom  35C    basis set group =>   1
Atom  36O    basis set group =>   2
Atom  37O    basis set group =>   2
Atom  38O    basis set group =>   2
Atom  39O    basis set group =>   2
Atom  40O    basis set group =>   2
Atom  41C    basis set group =>   1
Atom  42H    basis set group =>   3
Atom  43H    basis set group =>   3
Atom  44H    basis set group =>   3
Atom  45H    basis set group =>   3
Atom  46H    basis set group =>   3
Atom  47H    basis set group =>   3
Atom  48H    basis set group =>   3
Atom  49H    basis set group =>   3
Atom  50H    basis set group =>   3
Atom  51H    basis set group =>   3
Atom  52H    basis set group =>   3
Atom  53H    basis set group =>   3
Atom  54H    basis set group =>   3
Atom  55H    basis set group =>   3
Atom  56H    basis set group =>   3
Atom  57H    basis set group =>   3
Atom  58H    basis set group =>   3
Atom  59H    basis set group =>   3
Atom  60H    basis set group =>   3
Atom  61H    basis set group =>   3
Atom  62H    basis set group =>   3
Atom  63H    basis set group =>   3
Atom  64H    basis set group =>   3
Atom  65H    basis set group =>   3
Atom  66H    basis set group =>   3
Atom  67H    basis set group =>   3
Atom  68H    basis set group =>   3
Atom  69H    basis set group =>   3
Atom  70H    basis set group =>   3
Atom  71H    basis set group =>   3
Atom  72H    basis set group =>   3
Atom  73H    basis set group =>   3
Atom  74H    basis set group =>   3
Atom  75H    basis set group =>   3
Atom  76H    basis set group =>   3
Atom  77H    basis set group =>   3
Atom  78H    basis set group =>   3
Atom  79H    basis set group =>   3
Atom  80H    basis set group =>   3
Atom  81H    basis set group =>   3
---------------------------------
AUXILIARY/X BASIS SET INFORMATION
---------------------------------
There are 3 groups of distinct atoms

 Group   1 Type C   : 15s13p12d5f5g contracted to 15s13p12d5f5g pattern {111111111111111/1111111111111/111111111111/11111/11111}
 Group   2 Type O   : 15s13p12d5f5g contracted to 15s13p12d5f5g pattern {111111111111111/1111111111111/111111111111/11111/11111}
 Group   3 Type H   : 12s4p3d2f contracted to 12s4p3d2f pattern {111111111111/1111/111/11}

Atom   0C    basis set group =>   1
Atom   1C    basis set group =>   1
Atom   2C    basis set group =>   1
Atom   3C    basis set group =>   1
Atom   4C    basis set group =>   1
Atom   5C    basis set group =>   1
Atom   6C    basis set group =>   1
Atom   7C    basis set group =>   1
Atom   8C    basis set group =>   1
Atom   9C    basis set group =>   1
Atom  10C    basis set group =>   1
Atom  11C    basis set group =>   1
Atom  12C    basis set group =>   1
Atom  13C    basis set group =>   1
Atom  14C    basis set group =>   1
Atom  15C    basis set group =>   1
Atom  16C    basis set group =>   1
Atom  17C    basis set group =>   1
Atom  18O    basis set group =>   2
Atom  19O    basis set group =>   2
Atom  20O    basis set group =>   2
Atom  21O    basis set group =>   2
Atom  22O    basis set group =>   2
Atom  23C    basis set group =>   1
Atom  24C    basis set group =>   1
Atom  25C    basis set group =>   1
Atom  26C    basis set group =>   1
Atom  27O    basis set group =>   2
Atom  28C    basis set group =>   1
Atom  29C    basis set group =>   1
Atom  30C    basis set group =>   1
Atom  31C    basis set group =>   1
Atom  32C    basis set group =>   1
Atom  33C    basis set group =>   1
Atom  34C    basis set group =>   1
Atom  35C    basis set group =>   1
Atom  36O    basis set group =>   2
Atom  37O    basis set group =>   2
Atom  38O    basis set group =>   2
Atom  39O    basis set group =>   2
Atom  40O    basis set group =>   2
Atom  41C    basis set group =>   1
Atom  42H    basis set group =>   3
Atom  43H    basis set group =>   3
Atom  44H    basis set group =>   3
Atom  45H    basis set group =>   3
Atom  46H    basis set group =>   3
Atom  47H    basis set group =>   3
Atom  48H    basis set group =>   3
Atom  49H    basis set group =>   3
Atom  50H    basis set group =>   3
Atom  51H    basis set group =>   3
Atom  52H    basis set group =>   3
Atom  53H    basis set group =>   3
Atom  54H    basis set group =>   3
Atom  55H    basis set group =>   3
Atom  56H    basis set group =>   3
Atom  57H    basis set group =>   3
Atom  58H    basis set group =>   3
Atom  59H    basis set group =>   3
Atom  60H    basis set group =>   3
Atom  61H    basis set group =>   3
Atom  62H    basis set group =>   3
Atom  63H    basis set group =>   3
Atom  64H    basis set group =>   3
Atom  65H    basis set group =>   3
Atom  66H    basis set group =>   3
Atom  67H    basis set group =>   3
Atom  68H    basis set group =>   3
Atom  69H    basis set group =>   3
Atom  70H    basis set group =>   3
Atom  71H    basis set group =>   3
Atom  72H    basis set group =>   3
Atom  73H    basis set group =>   3
Atom  74H    basis set group =>   3
Atom  75H    basis set group =>   3
Atom  76H    basis set group =>   3
Atom  77H    basis set group =>   3
Atom  78H    basis set group =>   3
Atom  79H    basis set group =>   3
Atom  80H    basis set group =>   3
Atom  81H    basis set group =>   3
--------------------------------------------------------------------------
WARNING: There was an error initializing an OpenFabrics device.

  Local host:   c03b01n04
  Local device: mlx5_0
--------------------------------------------------------------------------
--------------------------------------------------------------------------
WARNING: There is at least one non-excluded one OpenFabrics device found,
but there are no active ports detected (or Open MPI was unable to use
them).  This is most certainly not what you wanted.  Check your
cables, subnet manager configuration, etc.  The openib BTL will be
ignored for this job.

  Local host: c03b01n04
--------------------------------------------------------------------------


           ************************************************************
           *        Program running with 60 parallel MPI-processes    *
           *              working on a common directory               *
           ************************************************************
[c03b01n04:1567314] 47 more processes have sent help message help-mpi-btl-openib.txt / error in device init
[c03b01n04:1567314] Set MCA parameter "orte_base_help_aggregate" to 0 to see all help / error messages
[c03b01n04:1567314] 11 more processes have sent help message help-mpi-btl-openib.txt / no active ports found
------------------------------------------------------------------------------
                             ORCA STARTUP CALCULATIONS
                           -- RI-GTO INTEGRALS CHOSEN --
------------------------------------------------------------------------------
------------------------------------------------------------------------------
                   ___                                                        
                  /   \      - P O W E R E D   B Y -                         
                 /     \                                                     
                 |  |  |   _    _      __       _____    __    __             
                 |  |  |  | |  | |    /  \     |  _  \  |  |  /  |          
                  \  \/   | |  | |   /    \    | | | |  |  | /  /          
                 / \  \   | |__| |  /  /\  \   | |_| |  |  |/  /          
                |  |  |   |  __  | /  /__\  \  |    /   |      \           
                |  |  |   | |  | | |   __   |  |    \   |  |\   \          
                \     /   | |  | | |  |  |  |  | |\  \  |  | \   \       
                 \___/    |_|  |_| |__|  |__|  |_| \__\ |__|  \__/        
                                                                              
                      - O R C A' S   B I G   F R I E N D -                    
                                      &                                       
                       - I N T E G R A L  F E E D E R -                       
                                                                              
 v1 FN, 2020, v2 2021, v3 2022-2024                                           
------------------------------------------------------------------------------


----------------------
SHARK INTEGRAL PACKAGE
----------------------

Number of atoms                             ...     82
Number of basis functions                   ...   2072
Number of shells                            ...    744
Maximum angular momentum                    ...      3
Integral batch strategy                     ... SHARK/LIBINT Hybrid
RI-J (if used) integral strategy            ... SPLIT-RIJ (Revised 2003 algorithm where possible)
Printlevel                                  ...      1
Contraction scheme used                     ... SEGMENTED contraction
Prescreening option                         ... SCHWARTZ
   Thresh                                   ... 1.000e-10
   Tcut                                     ... 1.000e-11
   Tpresel                                  ... 1.000e-11 
Coulomb Range Separation                    ... NOT USED
Exchange Range Separation                   ... NOT USED
Multipole approximations                    ... NOT USED
Finite Nucleus Model                        ... NOT USED
CABS basis                                  ... NOT available
Auxiliary Coulomb fitting basis             ... AVAILABLE
   # of basis functions in Aux-J            ...  10268
   # of shells in Aux-J                     ...   2940
   Maximum angular momentum in Aux-J        ...      4
Auxiliary J/K fitting basis                 ... AVAILABLE
   # of basis functions in Aux-JK           ...  10268
   # of shells in Aux-JK                    ...   2940
   Maximum angular momentum in Aux-JK       ...      4
Auxiliary Correlation fitting basis         ... AVAILABLE
   # of basis functions in Aux-C            ...  10268
   # of shells in Aux-C                     ...   2940
   Maximum angular momentum in Aux-C        ...      4
Auxiliary 'external' fitting basis          ... NOT available

Checking pre-screening integrals            ... done (  0.0 sec) Dimension = 744
   => SHARK Basis and OBASIS are compatible. Storing Pre-screening
Shell pair information
Shell pair cut-off parameter TPreSel        ...   1.0e-11
Total number of shell pairs                 ...    277140
Shell pairs after pre-screening             ...    158236
Total number of primitive shell pairs       ...    823733
Primitive shell pairs kept                  ...    290834
          la=0 lb=0:  30060 shell pairs
          la=1 lb=0:  52479 shell pairs
          la=1 lb=1:  21395 shell pairs
          la=2 lb=0:  20764 shell pairs
          la=2 lb=1:  15748 shell pairs
          la=2 lb=2:   2812 shell pairs
          la=3 lb=0:   7213 shell pairs
          la=3 lb=1:   5410 shell pairs
          la=3 lb=2:   1965 shell pairs
          la=3 lb=3:    390 shell pairs

Checking whether 4 symmetric matrices of dimension 2072 fit in memory
:Max Core in MB      =   5000.00
 MB in use           =    195.07
 MB left             =   4804.93
 MB needed           =     65.54
 Data fit in memory  = YES
Calculating RI/J V-Matrix + Cholesky decomp.... done (  6.6 sec)
Calculating RI/JK V-Matrix + Cholesky decomp.... done (  3.9 sec)
Calculating RI/C V-Matrix + Cholesky decomp.... done (  3.9 sec)
Calculating Nuclear repulsion               ... done (  0.0 sec) ENN=   5920.884324461932 Eh

Diagonalization of the overlap matrix:
Smallest eigenvalue                        ... 5.313e-06
Time for diagonalization                   ...    4.928 sec
Threshold for overlap eigenvalues          ... 1.000e-07
Number of eigenvalues below threshold      ... 0
Time for construction of square roots      ...    0.397 sec
Total time needed                          ...    5.404 sec

-------------------
DFT GRID GENERATION
-------------------

General Integration Accuracy     IntAcc      ... 4.388
Radial Grid Type                 RadialGrid  ... OptM3 with GC (2021)
Angular Grid (max. ang.)         AngularGrid ... 4 (Lebedev-302)
Angular grid pruning method      GridPruning ... 4 (adaptive)
Weight generation scheme         WeightScheme... mBecke (2022)
Basis function cutoff            BFCut       ... 1.0000e-10
Integration weight cutoff        WCut        ... 1.0000e-14
Partially contracted basis set               ... off
Rotationally invariant grid construction     ... off
Angular grids for H and He will be reduced by one unit
Diffuse basis detected: some atoms will have their outermost
                        angular grid increased by 1.

Total number of grid points                  ...   375905
Total number of batches                      ...     5919
Average number of points per batch           ...       63
Average number of grid points per atom       ...     4584
Grids setup in   4.1 sec
Initializing property integral containers    ... done (  0.4 sec)

SHARK setup successfully completed in  41.7 seconds

Maximum memory used throughout the entire STARTUP-calculation: 267.3 MB
--------------------------------------------------------------------------
WARNING: There was an error initializing an OpenFabrics device.

  Local host:   c03b01n04
  Local device: mlx5_0
--------------------------------------------------------------------------
--------------------------------------------------------------------------
WARNING: There is at least one non-excluded one OpenFabrics device found,
but there are no active ports detected (or Open MPI was unable to use
them).  This is most certainly not what you wanted.  Check your
cables, subnet manager configuration, etc.  The openib BTL will be
ignored for this job.

  Local host: c03b01n04
--------------------------------------------------------------------------


           ************************************************************
           *        Program running with 60 parallel MPI-processes    *
           *              working on a common directory               *
           ************************************************************
-------------------------------------------------------------------------------
                                 ORCA GUESS
                   Start orbitals & Density for SCF / CASSCF
-------------------------------------------------------------------------------

------------
SCF SETTINGS
------------
Hamiltonian:
 Density Functional     Method          .... DFT(GTOs)
 Exchange Functional    Exchange        .... TPSS
 Correlation Functional Correlation     .... TPSS
 LDA part of GGA corr.  LDAOpt          .... PW91-LDA
 Gradients option       PostSCFGGA      .... off
   NL short-range parameter             ....  5.000000
 RI-approximation to the Coulomb term is turned on
   Number of AuxJ basis functions       .... 10268


General Settings:
 Integral files         IntName         .... nmr-conf-13
 Hartree-Fock type      HFTyp           .... RHF
 Total Charge           Charge          ....    0
 Multiplicity           Mult            ....    1
 Number of Electrons    NEL             ....  314
 Basis Dimension        Dim             .... 2072
 Nuclear Repulsion      ENuc            ....   5920.8843244619 Eh

Convergence Acceleration:
 AO-DIIS                CNVDIIS         .... on
   Start iteration      DIISMaxIt       ....    12
   Startup error        DIISStart       ....  0.200000
   # of expansion vecs  DIISMaxEq       ....     5
   Bias factor          DIISBfac        ....   1.050
   Max. coefficient     DIISMaxC        ....  10.000
 MO-DIIS                CNVKDIIS        .... off
 Trust-Rad. Augm. Hess. CNVTRAH         .... auto
   Auto Start mean grad. ratio tolernc. ....  1.125000
   Auto Start start iteration           ....    50
   Auto Start num. interpolation iter.  ....    10
   Max. Number of Micro iterations      ....    24
   Max. Number of Macro iterations      .... Maxiter - #DIIS iter
   Number of Davidson start vectors     ....     2
   Converg. threshold    (grad. norm)   ....   5.000e-05
   Grad. Scal. Fac. for Micro threshold ....   0.100
   Minimum threshold for Micro iter.    ....   1.000e-02
   NR start threshold (gradient norm)   ....   1.000e-04
   Initial trust radius                 ....   0.400
   Minimum AH scaling param. (alpha)    ....   1.000
   Maximum AH scaling param. (alpha)    .... 1000.000
   Quad. conv. algorithm                .... NR
   White noise on init. David. guess    .... on
   Maximum white noise                  ....   0.010
   Pseudo random numbers                .... off
   Inactive MOs                         .... canonical
   Orbital update algorithm             .... Taylor
   Preconditioner                       .... Diag
   Full preconditioner red. dimension   ....   250
 SOSCF                 CNVSOSCF           .... on
   Start iteration     SOSCFMaxIt         ....   150
   Startup grad/error  SOSCFStart         ....  0.003300
   Hessian update      SOSCFHessUp        .... L-BFGS
   Autom. constraints  SOSCFAutoConstrain .... off
 Level Shifting         CNVShift        .... on
   Level shift para.    LevelShift      ....    0.2500
   Turn off err/grad.   ShiftErr        ....    0.0010
 Zerner damping         CNVZerner       .... off
 Static damping         CNVDamp         .... on
   Fraction old density DampFac         ....    0.7000
   Max. Damping (<1)    DampMax         ....    0.9800
   Min. Damping (>=0)   DampMin         ....    0.0000
   Turn off err/grad.   DampErr         ....    0.1000

SCF Procedure:
 Maximum # iterations   MaxIter         ....   125
 SCF integral mode      SCFMode         .... Direct
   Integral package                     .... SHARK and LIBINT hybrid scheme
 Reset frequency        DirectResetFreq ....    20
 Integral Threshold     Thresh          ....  1.000e-10 Eh
 Primitive CutOff       TCut            ....  1.000e-11 Eh

Convergence Tolerance:
 Convergence Check Mode ConvCheckMode   .... Total+1el-Energy
 Convergence forced     ConvForced      .... 0
 Energy Change          TolE            ....  1.000e-06 Eh
 1-El. energy change                    ....  1.000e-03 Eh
 Orbital Gradient       TolG            ....  5.000e-05
 Orbital Rotation angle TolX            ....  5.000e-05
 DIIS Error             TolErr          ....  1.000e-06

------------------------------
INITIAL GUESS: MODEL POTENTIAL
------------------------------
Loading Hartree-Fock densities                     ... done
Calculating cut-offs                               ... done
Initializing the effective Hamiltonian             ... done
Setting up the integral package (SHARK)            ... done
Starting the Coulomb interaction                   ... [c03b01n04:1567760] 51 more processes have sent help message help-mpi-btl-openib.txt / error in device init
[c03b01n04:1567760] Set MCA parameter "orte_base_help_aggregate" to 0 to see all help / error messages
[c03b01n04:1567760] 7 more processes have sent help message help-mpi-btl-openib.txt / no active ports found
done (   3.0 sec)
Making the grid                                    ... done (   0.5 sec)
Mapping shells                                     ... done
Starting the XC term evaluation                    ... done (   0.5 sec)
  promolecular density results
     # of electrons  =    313.977703241
     EX              =   -260.378827682
     EC              =    -10.671405251
     EX+EC           =   -271.050232933
Transforming the Hamiltonian                       ... done (   0.4 sec)
Diagonalizing the Hamiltonian                      ... done (   0.6 sec)
Back transforming the eigenvectors                 ... done (   0.2 sec)
Now organizing SCF variables                       ... done
                      ------------------
                      INITIAL GUESS DONE (   6.0 sec)
                      ------------------
             **** ENERGY FILE WAS UPDATED (nmr-conf-13.en.tmp) ****
Finished Guess after  12.8 sec
Maximum memory used throughout the entire GUESS-calculation: 300.1 MB
--------------------------------------------------------------------------
WARNING: There was an error initializing an OpenFabrics device.

  Local host:   c03b01n04
  Local device: mlx5_0
--------------------------------------------------------------------------
--------------------------------------------------------------------------
WARNING: There is at least one non-excluded one OpenFabrics device found,
but there are no active ports detected (or Open MPI was unable to use
them).  This is most certainly not what you wanted.  Check your
cables, subnet manager configuration, etc.  The openib BTL will be
ignored for this job.

  Local host: c03b01n04
--------------------------------------------------------------------------


           ************************************************************
           *        Program running with 60 parallel MPI-processes    *
           *              working on a common directory               *
           ************************************************************

-------------------------------------------------------------------------------------------
                                      ORCA LEAN-SCF
                              memory conserving SCF solver
-------------------------------------------------------------------------------------------

--------------------
CPCM SOLVATION MODEL
--------------------
CPCM parameters:
  Epsilon                                         ...      33.4280
  Refrac                                          ...       1.3288
  Rsolv                                           ...       1.3000
  Surface type                                    ... GAUSSIAN VDW
  Discretization scheme                           ... Constant charge density
    Threshold for H atoms                         ...       5.0000 (charges/Ang^2)
    Threshold for non-H atoms                     ...       5.0000 (charges/Ang^2)
  Epsilon function type                           ...         CPCM
Solvent:                                          ... METHANOL
Radii:
  Scheme                                          ... Element-dependent radii
  Radius for C  used is    3.8550 Bohr (=   2.0400 Ang.)
  Radius for O  used is    3.4469 Bohr (=   1.8240 Ang.)
  Radius for H  used is    2.4944 Bohr (=   1.3200 Ang.)
Calculating surface                               ...        done! (  0.2s)
Cavity surface points                             ...         5744
Cavity Volume                                     ...    4505.3010
Cavity Surface-area                               ...    1924.8231
Calculating surface distance matrix               ...        done! (  0.2s)
Performing Cholesky decomposition & store         ...        [c03b01n04:1568202] 51 more processes have sent help message help-mpi-btl-openib.txt / error in device init
[c03b01n04:1568202] Set MCA parameter "orte_base_help_aggregate" to 0 to see all help / error messages
[c03b01n04:1568202] 7 more processes have sent help message help-mpi-btl-openib.txt / no active ports found
done! (  0.6s)
Overall time for CPCM initialization              ...                 1.2s

----------------------------------------D-I-I-S--------------------------------------------
Iteration    Energy (Eh)           Delta-E    RMSDP     MaxDP     DIISErr   Damp  Time(sec)
-------------------------------------------------------------------------------------------
               ***  Starting incremental Fock matrix formation  ***
    1    -2032.9803316290890507     0.00e+00  8.48e-03  3.01e-01  2.42e-01  0.700  17.8
    2    -2033.3996849271688916    -4.19e-01  7.09e-03  2.44e-01  8.38e-02  0.700   8.3
                               ***Turning on AO-DIIS***
    3    -2033.5540200107598139    -1.54e-01  3.08e-03  8.52e-02  2.33e-02  0.700   8.5
    4    -2033.6476795551934629    -9.37e-02  5.43e-03  1.15e-01  1.16e-02  0.000   7.2
    5    -2033.8561630991389393    -2.08e-01  1.54e-03  5.73e-02  5.08e-03  0.000   7.5
                              *** Initializing SOSCF ***
---------------------------------------S-O-S-C-F--------------------------------------
Iteration    Energy (Eh)           Delta-E    RMSDP     MaxDP     MaxGrad    Time(sec)
--------------------------------------------------------------------------------------
    6    -2033.8575239392930598    -1.36e-03  4.82e-04  1.52e-02  1.82e-03    10.6
               *** Restarting incremental Fock matrix formation ***
    7    -2033.8576388866522393    -1.15e-04  3.76e-04  1.11e-02  1.62e-04     8.3
    8    -2033.8576099919282569     2.89e-05  8.87e-05  1.99e-03  7.24e-04     7.2
    9    -2033.8576542941646039    -4.43e-05  6.63e-05  1.40e-03  1.26e-04     7.3
   10    -2033.8576537776116311     5.17e-07  2.95e-05  1.02e-03  1.54e-04     7.4
                 **** Energy Check signals convergence ****

               *****************************************************
               *                     SUCCESS                       *
               *           SCF CONVERGED AFTER  10 CYCLES          *
               *****************************************************

             **** ENERGY FILE WAS UPDATED (nmr-conf-13.en.tmp) ****

----------------
TOTAL SCF ENERGY
----------------

Total Energy       :      -2033.85765505468135 Eh          -55344.08043 eV

Components:
Nuclear Repulsion  :       5920.88432446193201 Eh          161115.45342 eV
Electronic Energy  :      -7954.70069071257240 Eh         -216458.41033 eV
One Electron Energy:     -14569.60472156260039 Eh         -396459.10006 eV
Two Electron Energy:       6614.90403085002799 Eh          180000.68974 eV
CPCM Dielectric    :         -0.04128880404111 Eh              -1.12353 eV

Virial components:
Potential Energy   :      -4061.58723640190874 Eh         -110521.40750 eV
Kinetic Energy     :       2027.72958134722717 Eh           55177.32707 eV
Virial Ratio       :          2.00302213557657

DFT components:
N(Alpha)           :      157.000960030668 electrons
N(Beta)            :      157.000960030668 electrons
N(Total)           :      314.001920061336 electrons
E(X)               :     -268.194800633765 Eh       
E(C)               :      -10.627262374848 Eh       
E(XC)              :     -278.822063008613 Eh       

CPCM Solvation Model Properties:
Surface-charge          :         -0.04234730919828
Corrected charge        :          0.00000000000000
Outlying charge corr.   :          0.00007903990445 Eh               0.00215 eV
Free-energy (cav+disp)  :  This term is not implemented in the current solvation scheme

---------------
SCF CONVERGENCE
---------------

  Last Energy change         ...   -5.1655e-07  Tolerance :   1.0000e-06
  Last MAX-Density change    ...    1.0168e-03  Tolerance :   1.0000e-05
  Last RMS-Density change    ...    2.9460e-05  Tolerance :   1.0000e-06
  Last DIIS Error            ...    1.8197e-03  Tolerance :   1.0000e-06
  Last Orbital Gradient      ...    1.5441e-04  Tolerance :   5.0000e-05
  Last Orbital Rotation      ...    2.3217e-04  Tolerance :   5.0000e-05


----------------
ORBITAL ENERGIES
----------------

  NO   OCC          E(Eh)            E(eV) 
   0   2.0000     -18.915473      -514.7162 
   1   2.0000     -18.914298      -514.6842 
   2   2.0000     -18.913729      -514.6687 
   3   2.0000     -18.910571      -514.5828 
   4   2.0000     -18.908900      -514.5373 
   5   2.0000     -18.908200      -514.5183 
   6   2.0000     -18.907296      -514.4937 
   7   2.0000     -18.892439      -514.0894 
   8   2.0000     -18.879542      -513.7384 
   9   2.0000     -18.879193      -513.7290 
  10   2.0000     -18.865007      -513.3429 
  11   2.0000     -10.041968      -273.2558 
  12   2.0000     -10.041413      -273.2408 
  13   2.0000     -10.040973      -273.2288 
  14   2.0000     -10.040522      -273.2165 
  15   2.0000     -10.039709      -273.1944 
  16   2.0000     -10.039104      -273.1779 
  17   2.0000     -10.039014      -273.1755 
  18   2.0000     -10.038332      -273.1569 
  19   2.0000     -10.033677      -273.0302 
  20   2.0000     -10.031624      -272.9744 
  21   2.0000     -10.030863      -272.9537 
  22   2.0000     -10.030720      -272.9498 
  23   2.0000     -10.030690      -272.9490 
  24   2.0000     -10.030266      -272.9374 
  25   2.0000     -10.028634      -272.8930 
  26   2.0000     -10.021046      -272.6865 
  27   2.0000      -9.985062      -271.7073 
  28   2.0000      -9.984180      -271.6834 
  29   2.0000      -9.982524      -271.6383 
  30   2.0000      -9.982348      -271.6335 
  31   2.0000      -9.981967      -271.6231 
  32   2.0000      -9.981914      -271.6217 
  33   2.0000      -9.980055      -271.5711 
  34   2.0000      -9.979500      -271.5560 
  35   2.0000      -9.979425      -271.5540 
  36   2.0000      -9.977804      -271.5098 
  37   2.0000      -9.977682      -271.5065 
  38   2.0000      -9.976789      -271.4822 
  39   2.0000      -9.974827      -271.4289 
  40   2.0000      -9.973063      -271.3808 
  41   2.0000      -9.972660      -271.3699 
  42   2.0000      -1.015819       -27.6418 
  43   2.0000      -1.009957       -27.4823 
  44   2.0000      -1.009840       -27.4791 
  45   2.0000      -0.999951       -27.2101 
  46   2.0000      -0.990369       -26.9493 
  47   2.0000      -0.984474       -26.7889 
  48   2.0000      -0.984165       -26.7805 
  49   2.0000      -0.969875       -26.3916 
  50   2.0000      -0.960927       -26.1481 
  51   2.0000      -0.955520       -26.0010 
  52   2.0000      -0.945918       -25.7397 
  53   2.0000      -0.799447       -21.7541 
  54   2.0000      -0.794321       -21.6146 
  55   2.0000      -0.792829       -21.5740 
  56   2.0000      -0.759973       -20.6799 
  57   2.0000      -0.731970       -19.9179 
  58   2.0000      -0.716049       -19.4847 
  59   2.0000      -0.701415       -19.0865 
  60   2.0000      -0.698893       -19.0178 
  61   2.0000      -0.696393       -18.9498 
  62   2.0000      -0.695115       -18.9150 
  63   2.0000      -0.683904       -18.6100 
  64   2.0000      -0.669670       -18.2226 
  65   2.0000      -0.649003       -17.6603 
  66   2.0000      -0.646550       -17.5935 
  67   2.0000      -0.646302       -17.5868 
  68   2.0000      -0.638251       -17.3677 
  69   2.0000      -0.617110       -16.7924 
  70   2.0000      -0.616576       -16.7779 
  71   2.0000      -0.613463       -16.6932 
  72   2.0000      -0.577853       -15.7242 
  73   2.0000      -0.564078       -15.3493 
  74   2.0000      -0.557418       -15.1681 
  75   2.0000      -0.557335       -15.1659 
  76   2.0000      -0.544428       -14.8146 
  77   2.0000      -0.542389       -14.7591 
  78   2.0000      -0.538807       -14.6617 
  79   2.0000      -0.532638       -14.4938 
  80   2.0000      -0.510402       -13.8887 
  81   2.0000      -0.508187       -13.8285 
  82   2.0000      -0.502709       -13.6794 
  83   2.0000      -0.494989       -13.4693 
  84   2.0000      -0.482411       -13.1271 
  85   2.0000      -0.481295       -13.0967 
  86   2.0000      -0.478470       -13.0198 
  87   2.0000      -0.472080       -12.8460 
  88   2.0000      -0.470840       -12.8122 
  89   2.0000      -0.458172       -12.4675 
  90   2.0000      -0.456935       -12.4338 
  91   2.0000      -0.449175       -12.2227 
  92   2.0000      -0.445886       -12.1332 
  93   2.0000      -0.443589       -12.0707 
  94   2.0000      -0.441954       -12.0262 
  95   2.0000      -0.433748       -11.8029 
  96   2.0000      -0.427516       -11.6333 
  97   2.0000      -0.426426       -11.6036 
  98   2.0000      -0.423502       -11.5241 
  99   2.0000      -0.422648       -11.5008 
 100   2.0000      -0.418087       -11.3767 
 101   2.0000      -0.416099       -11.3226 
 102   2.0000      -0.405828       -11.0431 
 103   2.0000      -0.400957       -10.9106 
 104   2.0000      -0.399408       -10.8685 
 105   2.0000      -0.398630       -10.8473 
 106   2.0000      -0.394062       -10.7230 
 107   2.0000      -0.392496       -10.6804 
 108   2.0000      -0.385958       -10.5025 
 109   2.0000      -0.385481       -10.4895 
 110   2.0000      -0.383199       -10.4274 
 111   2.0000      -0.377827       -10.2812 
 112   2.0000      -0.376145       -10.2354 
 113   2.0000      -0.374666       -10.1952 
 114   2.0000      -0.371648       -10.1130 
 115   2.0000      -0.370735       -10.0882 
 116   2.0000      -0.369106       -10.0439 
 117   2.0000      -0.366278        -9.9669 
[...]
  X          -0.4606141   -0.6745798   -0.5768680
  Y           0.5761822    0.2671241   -0.7724369
  Z           0.6751657   -0.6881764    0.2656397

 --------------
 Nucleus  73H :
 --------------

Diamagnetic contribution to the shielding tensor (ppm) : 
           182.880        -75.365        18.941
           149.556        -22.686        29.321
           -56.498        116.920       139.253

Paramagnetic contribution to the shielding tensor (ppm): 
          -157.369         71.731       -22.172
          -150.806         51.918       -28.744
            53.888       -114.621      -110.165

Total shielding tensor (ppm): 
            25.511         -3.634        -3.232
            -1.250         29.231         0.577
            -2.610          2.300        29.088


 Diagonalized sT*s matrix:
 
 sDSO           181.567          -13.986          131.865  iso=      99.815
 sPSO          -158.101           41.733          -99.247  iso=     -71.872
        ---------------  ---------------  ---------------
 Total           23.466           27.747           32.618  iso=      27.944

 Orientation: 
  X           0.8873687    0.0751714   -0.4548914
  Y           0.2601020    0.7330144    0.6285195
  Z           0.3806886   -0.6760467    0.6309018

 --------------
 Nucleus  74H :
 --------------

Diamagnetic contribution to the shielding tensor (ppm) : 
           205.789        -17.854        -0.967
           174.721         34.769        -7.092
           -32.474         76.128       243.802

Paramagnetic contribution to the shielding tensor (ppm): 
          -180.985         16.850         1.122
          -174.829         -2.685         2.287
            34.514        -79.905      -215.981

Total shielding tensor (ppm): 
            24.804         -1.004         0.155
            -0.108         32.084        -4.805
             2.040         -3.777        27.821


 Diagonalized sT*s matrix:
 
 sDSO           199.529          234.967           49.864  iso=     161.453
 sPSO          -175.279         -209.361          -15.010  iso=    -133.217
        ---------------  ---------------  ---------------
 Total           24.250           25.605           34.854  iso=      28.236

 Orientation: 
  X           0.8037703    0.5854764    0.1056914
  Y          -0.2450895    0.4877276   -0.8378860
  Z          -0.5421111    0.6475641    0.5355150

 --------------
 Nucleus  75H :
 --------------

Diamagnetic contribution to the shielding tensor (ppm) : 
            66.130        -31.081        38.619
             0.441         13.841        35.170
            39.478       -162.215       -61.072

Paramagnetic contribution to the shielding tensor (ppm): 
           -24.800         27.041       -40.853
            -6.366          6.760       -38.636
           -41.800        159.914        82.075

Total shielding tensor (ppm): 
            41.330         -4.040        -2.234
            -5.926         20.601        -3.466
            -2.323         -2.301        21.003


 Diagonalized sT*s matrix:
 
 sDSO           -67.365           24.082           62.181  iso=       6.299
 sPSO            84.162           -0.523          -19.603  iso=      21.345
        ---------------  ---------------  ---------------
 Total           16.797           23.559           42.578  iso=      27.645

 Orientation: 
  X          -0.1981426   -0.0674887   -0.9778470
  Y          -0.7618879   -0.6170333    0.1969687
  Z          -0.6166574    0.7840377    0.0708418

 --------------
 Nucleus  76H :
 --------------

Diamagnetic contribution to the shielding tensor (ppm) : 
           -46.764        140.051       -39.880
           -63.934        152.974       -29.285
           -63.960        147.042       -11.767

Paramagnetic contribution to the shielding tensor (ppm): 
            69.751       -130.133        32.658
            73.838       -124.840        23.485
            56.388       -152.918        43.274

Total shielding tensor (ppm): 
            22.987          9.918        -7.222
             9.904         28.134        -5.800
            -7.572         -5.875        31.506


 Diagonalized sT*s matrix:
 
 sDSO           -48.293           93.641           49.095  iso=      31.481
 sPSO            63.201          -69.039           -5.978  iso=      -3.939
        ---------------  ---------------  ---------------
 Total           14.908           24.601           43.117  iso=      27.542

 Orientation: 
  X           0.8232077    0.2295215   -0.5192774
  Y          -0.5383883    0.6058775   -0.5857051
  Z           0.1801866    0.7617298    0.6223347

 --------------
 Nucleus  77H :
 --------------

Diamagnetic contribution to the shielding tensor (ppm) : 
             8.711         79.465        -1.284
            -8.859         96.676         1.766
          -124.158        158.788        23.471

Paramagnetic contribution to the shielding tensor (ppm): 
            14.096        -81.328         4.854
             7.124        -74.606        -0.259
           128.830       -158.706        20.684

Total shielding tensor (ppm): 
            22.808         -1.863         3.570
            -1.735         22.069         1.506
             4.672          0.082        44.155


 Diagonalized sT*s matrix:
 
 sDSO            83.757           43.856            1.246  iso=      42.953
 sPSO           -63.620          -19.888           43.683  iso=     -13.275
        ---------------  ---------------  ---------------
 Total           20.136           23.967           44.929  iso=      29.677

 Orientation: 
  X          -0.6940720    0.6945717    0.1892990
  Y          -0.7060435   -0.7081057    0.0094305
  Z           0.1405939   -0.1271079    0.9818742

 --------------
 Nucleus  78H :
 --------------

Diamagnetic contribution to the shielding tensor (ppm) : 
          -112.967         56.453       -71.441
          -140.912         89.856       -65.280
           -70.760        104.413      -127.432

Paramagnetic contribution to the shielding tensor (ppm): 
           137.543        -48.927        66.255
           148.985        -63.309        66.471
            67.197       -102.904       153.902

Total shielding tensor (ppm): 
            24.576          7.526        -5.186
             8.072         26.548         1.192
            -3.563          1.509        26.470


 Diagonalized sT*s matrix:
 
 sDSO           -55.571          -53.132          -41.840  iso=     -50.181
 sPSO            71.576           80.749           75.811  iso=      76.046
        ---------------  ---------------  ---------------
 Total           16.005           27.618           33.972  iso=      25.865

 Orientation: 
  X          -0.7238768   -0.0732895   -0.6860255
  Y           0.5853508    0.4610862   -0.6669062
  Z          -0.3651941    0.8843236    0.2908695

 --------------
 Nucleus  79H :
 --------------

Diamagnetic contribution to the shielding tensor (ppm) : 
          -147.519        -33.247       -11.628
          -183.476          7.065       -26.618
           125.935       -144.949      -165.127

Paramagnetic contribution to the shielding tensor (ppm): 
           171.736         31.649        12.050
           183.183         22.976        21.785
          -124.264        141.853       195.772

Total shielding tensor (ppm): 
            24.217         -1.598         0.422
            -0.293         30.041        -4.833
             1.671         -3.096        30.646


 Diagonalized sT*s matrix:
 
 sDSO          -174.110         -157.179           25.709  iso=    -101.860
 sPSO           198.135          183.547            8.803  iso=     130.161
        ---------------  ---------------  ---------------
 Total           24.025           26.367           34.512  iso=      28.301

 Orientation: 
  X           0.9905416    0.0255695    0.1348089
  Y           0.0712000    0.7440765   -0.6642896
  Z          -0.1172937    0.6676049    0.7352182

 --------------
 Nucleus  80H :
 --------------

Diamagnetic contribution to the shielding tensor (ppm) : 
          -122.536         47.403       -47.951
          -168.741         99.964       -43.259
            73.389       -127.157       -77.150

Paramagnetic contribution to the shielding tensor (ppm): 
           149.347        -52.329        45.090
           167.335        -68.517        42.323
           -75.930        129.339       103.224

Total shielding tensor (ppm): 
            26.811         -4.927        -2.860
            -1.406         31.447        -0.936
            -2.541          2.182        26.074


 Diagonalized sT*s matrix:
 
 sDSO          -124.541          -29.076           53.896  iso=     -33.240
 sPSO           147.876           56.571          -20.394  iso=      61.351
        ---------------  ---------------  ---------------
 Total           23.335           27.495           33.502  iso=      28.111

 Orientation: 
  X           0.7264605   -0.5034704    0.4677314
  Y           0.2221193   -0.4720657   -0.8531219
  Z           0.6503216    0.7236516   -0.2311066

 --------------
 Nucleus  81H :
 --------------

Diamagnetic contribution to the shielding tensor (ppm) : 
          -145.489         63.508       -27.132
          -168.121         95.376       -27.744
            19.453        -33.093      -104.577

Paramagnetic contribution to the shielding tensor (ppm): 
           172.299        -60.287        26.077
           172.022        -64.742        26.827
           -22.101         30.797       130.662

Total shielding tensor (ppm): 
            26.811          3.221        -1.054
             3.901         30.634        -0.917
            -2.648         -2.296        26.085


 Diagonalized sT*s matrix:
 
 sDSO           -74.863          -64.840          -14.987  iso=     -51.563
 sPSO            99.075           90.658           48.485  iso=      79.406
        ---------------  ---------------  ---------------
 Total           24.213           25.818           33.498  iso=      27.843

 Orientation: 
  X           0.7885704   -0.3269313   -0.5208384
  Y          -0.3252684    0.4970359   -0.8044600
  Z           0.5218785    0.8037856    0.2856073



--------------------------------
CHEMICAL SHIELDING SUMMARY (ppm)
--------------------------------


  Nucleus  Element    Isotropic     Anisotropy
  -------  -------  ------------   ------------
      0       C           25.396        128.622 
      1       C           44.751        102.420 
      2       C           28.616        119.267 
      3       C           74.350        134.671 
      4       C           42.869        197.994 
      5       C           77.549        144.039 
      6       C          139.509         21.966 
      7       C          134.848         17.293 
      8       C          137.913         17.117 
      9       C          142.105         24.113 
     10       C           46.950        184.533 
     11       C           70.010        155.028 
     12       C           29.546        122.774 
     13       C           32.334        127.915 
     14       C           69.518        141.635 
     15       C           58.880        148.711 
     16       C          114.766         59.409 
     17       C          110.205         64.106 
     23       C           94.922         19.577 
     24       C          103.717         37.214 
     25       C           44.632        169.623 
     26       C          111.812         54.399 
     28       C           74.968        170.752 
     29       C           32.576        116.620 
     30       C           32.419        124.357 
     31       C           69.569        142.805 
     32       C           64.487        162.130 
     33       C          126.190         75.378 
     34       C          127.154         73.426 
     35       C          126.591         72.855 
     41       C          127.038         74.563 
     42       H           26.040          8.717 
     43       H           26.144          6.752 
     44       H           29.076          5.993 
     45       H           29.466          4.240 
     46       H           29.747          7.812 
     47       H           29.481          9.380 
     48       H           29.444          7.694 
     49       H           30.042          7.756 
     50       H           25.807          8.021 
     51       H           25.152          3.865 
     52       H           25.323          5.943 
     53       H           27.874          7.107 
     54       H           27.356          6.003 
     55       H           27.619          5.723 
     56       H           27.573          5.635 
     57       H           25.866         12.996 
     58       H           26.101          3.699 
     59       H           26.902          7.341 
     60       H           27.291          5.718 
     61       H           27.649          6.753 
     62       H           29.132         19.674 
     63       H           25.565          8.413 
     64       H           24.913          2.872 
     65       H           25.152          6.234 
     66       H           27.485          9.299 
     67       H           28.027          6.331 
     68       H           27.927          8.994 
     69       H           27.847          9.593 
     70       H           28.602          5.333 
     71       H           28.016          8.966 
     72       H           27.795          7.240 
     73       H           27.944          7.012 
     74       H           28.236          9.926 
     75       H           27.645         22.400 
     76       H           27.542         23.362 
     77       H           29.677         22.877 
     78       H           25.865         12.160 
     79       H           28.301          9.316 
     80       H           28.111          8.087 
     81       H           27.843          8.483 


NMR shielding tensor and spin rotation calculation done in   2.5 sec 

Maximum memory used throughout the entire PROP-calculation: 376.2 MB
[c03b01n04:1569506] 49 more processes have sent help message help-mpi-btl-openib.txt / error in device init
[c03b01n04:1569506] Set MCA parameter "orte_base_help_aggregate" to 0 to see all help / error messages
[c03b01n04:1569506] 9 more processes have sent help message help-mpi-btl-openib.txt / no active ports found
--------------------------------------------------------------------------
WARNING: There is at least one non-excluded one OpenFabrics device found,
but there are no active ports detected (or Open MPI was unable to use
them).  This is most certainly not what you wanted.  Check your
cables, subnet manager configuration, etc.  The openib BTL will be
ignored for this job.

  Local host: c03b01n04
--------------------------------------------------------------------------
--------------------------------------------------------------------------
WARNING: There was an error initializing an OpenFabrics device.

  Local host:   c03b01n04
  Local device: mlx5_0
--------------------------------------------------------------------------
[c03b01n04:1569958] 10 more processes have sent help message help-mpi-btl-openib.txt / no active ports found
[c03b01n04:1569958] Set MCA parameter "orte_base_help_aggregate" to 0 to see all help / error messages
[c03b01n04:1569958] 48 more processes have sent help message help-mpi-btl-openib.txt / error in device init

--------------------------------
SUGGESTED CITATIONS FOR THIS RUN
--------------------------------

Below you find a list of papers that are relevant to this ORCA run
We neither can nor want to force you to cite these papers, but we appreciate if you do
You receive ORCA, which is the product of decades of hard work by many enthusiastic individuals, for free
The only thing we kindly ask in return is that you cite our papers,
We deeply appreciate it, if you show your appreciation for ORCA by not just citing the generic ORCA reference.

Please note that relegating all ORCA citations to the supporting information does *not* help us.
SI sections are not indexed - citations you put there will not count into any citation statistics
But we need these citations in order to attract the funding resources that allow us to do what we are doing

Therefore, if you are a happy ORCA user, please consider citing a few of the papers listed below in the main body of your paper

In addition to the list printed below, the program has created the file nmr-conf-13.bibtex that contains the list in bibtex format
You can import this file easily into all common literature databanks and citation aid programs


List of essential papers. We consider these as the minimum necessary citations

  1. Neese, F.
     Software update: the ORCA program system, version 6.0
     WIRES Comput. Molec. Sci. 2025 15(1), e70019
     doi.org/10.1002/wcms.7019

List of papers to cite with high priority. The work reported in these papers was absolutely
necessary for this run to complete.
Our perspective: the developers of density functionals and basis sets usually get cited in chemistry papers
Good! But without the algorithms to do something with them, the functionals or basis sets would not do anything.
Hence, in our opinion, the algorithm design and method developments papers are equally worthy of getting cited

  1. Neese, F.
     An improvement of the resolution of the identity approximation for the formation of the Coulomb matrix
     J. Comp. Chem. 2003 24(14), 1740-1747
     doi.org/10.1002/jcc.10318
  2. Stoychev, G.L.; Auer, A.A.; Neese, F.
     Automatic Generation of Auxiliary Basis Sets
     J. Theo. Comp. Chem. 2017 13 , 554-562
     doi.org/10.1021/acs.jctc.6b01041
  3. Stoychev, G.L.; Auer, A.A.; Izsak, R.; Neese, F.
     Self-Consistent Field Calculation of Nuclear Magnetic Resonance Chemical Shielding Constants Using Gauge-Including Atomic Orbitals and Approximate Two-Electron Integrals
     J. Chem. Theory Comput. 2018 14(2), 619-637
     doi.org/10.1021/acs.jctc.7b01006
  4. Garcia-Rates, M.; Neese, F.
     Effect of the Solute Cavity on the Solvation Energy and its Derivatives within the Framework of the Gaussian Charge Scheme
     J. Comput. Chem. 2020 41 , 922-939
     doi.org/10.1002/jcc.26139
  5. Neese, F.
     The SHARK Integral Generation and Digestion System
     J. Comp. Chem. 2022 44(3), 381
     doi.org/10.1002/jcc.26942

List of suggested additional citations. These are papers that are important in the 'surrounding' of 
of this run, or papers that preceded the highly important papers. If you like your results we are grateful for a citation.

  1. Neese, F.
     The ORCA program system
     WIRES Comput. Molec. Sci. 2012 2(1), 73-78
     doi.org/10.1002/wcms.81
  2. Neese, F.
     Software update: the ORCA program system, version 4.0
     WIRES Comput. Molec. Sci. 2018 8(1), 1-6
     doi.org/10.1002/wcms.1327
  3. Neese, F.; Wennmohs, F.; Becker, U.; Riplinger, C.
     The ORCA quantum chemistry program package
     J. Chem. Phys. 2020 152(22), 224108
     doi.org/10.1063/5.0004608
  4. Neese, F.
     Software update: The ORCA program system—Version 5.0
     WIRES Comput. Molec. Sci. 2022 12(1), e1606
     doi.org/10.1002/wcms.1606

List of optional additional citations

  1. Neese, F.
     Approximate second-order SCF convergence for spin unrestricted wavefunctions
     Chem. Phys. Lett. 2000 325(1-3), 93-98
     doi.org/10.1016/s0009-2614(00)00662-x

Timings for individual modules:

Sum of individual times          ...      289.775 sec (=   4.830 min)
Startup calculation              ...       91.319 sec (=   1.522 min)  31.5 %
SCF iterations                   ...      121.576 sec (=   2.026 min)  42.0 %
Property integrals               ...       53.735 sec (=   0.896 min)  18.5 %
SCF Response                     ...       16.296 sec (=   0.272 min)   5.6 %
Property calculations            ...        6.849 sec (=   0.114 min)   2.4 %
                             ****ORCA TERMINATED NORMALLY****
TOTAL RUN TIME: 0 days 0 hours 5 minutes 10 seconds 612 msec
