
                                 *****************
                                 * O   R   C   A *
                                 *****************

                                            #,                                       
                                            ###                                      
                                            ####                                     
                                            #####                                    
                                            ######                                   
                                           ########,                                 
                                     ,,################,,,,,                         
                               ,,#################################,,                 
                          ,,##########################################,,             
                       ,#########################################, ''#####,          
                    ,#############################################,,   '####,        
                  ,##################################################,,,,####,       
                ,###########''''           ''''###############################       
              ,#####''   ,,,,##########,,,,          '''####'''          '####       
            ,##' ,,,,###########################,,,                        '##       
           ' ,,###''''                  '''############,,,                           
         ,,##''                                '''############,,,,        ,,,,,,###''
      ,#''                                            '''#######################'''  
     '                                                          ''''####''''         
             ,#######,   #######,   ,#######,      ##                                
            ,#'     '#,  ##    ##  ,#'     '#,    #''#        ,####,    ,#,          
            ##       ##  ##   ,#'  ##            #'  '#       #'       ,# #          
            ##       ##  #######   ##           ,######,      #####,      #          
            '#,     ,#'  ##    ##  '#,     ,#' ,#      #,     #,   #      #          
             '#######'   ##     ##  '#######'  #'      '#     '####' #    #          



                #########################################################
                #                        -***-                          #
                #          Department of theory and spectroscopy        #
                #                                                       #
                #                      Frank Neese                      #
                #                                                       #
                #     Directorship, Architecture, Infrastructure        #
                #                    SHARK, DRIVERS                     #
                #        Core code/Algorithms in most modules           #
                #                                                       #
                #        Max Planck Institute fuer Kohlenforschung      #
                #                Kaiser Wilhelm Platz 1                 #
                #                 D-45470 Muelheim/Ruhr                 #
                #                      Germany                          #
                #                                                       #
                #                  All rights reserved                  #
                #                        -***-                          #
                #########################################################


                         Program Version 6.1.0-f.0  -   RELEASE   -


 With contributions from (in alphabetic order):
[Max-Planck-Institut fuer Kohlenforschung]                               
  Daniel Aravena         : Magnetic Suceptibility                        
  Michael Atanasov       : Ab Initio Ligand Field Theory (pilot matlab implementation)
  Alexander A. Auer      : GIAO ZORA, VPT2 properties, NMR spectrum      
  Ute Becker             : All parallelization in ORCA, NUMFREQ, NUMCALC 
  Giovanni Bistoni       : ED, misc. LED, open-shell LED, HFLD           
  Dmytro Bykov           : pre 5.0 version of the SCF Hessian            
  Marcos Casanova-Páez   : Triplet and SCS-CIS(D). UHF-(DLPNO)-IP/EA/STEOM-CCSD. UHF-CVS-IP/STEOM-CCSD   
  Vijay G. Chilkuri      : MRCI spin determinant printing, contributions to CSF-ICE 
  Pauline Colinet        : FMM embedding                                 
  Dipayan Datta          : RHF DLPNO-CCSD density                        
  Achintya Kumar Dutta   : EOM-CC, STEOM-CC                              
  Nicolas Foglia         : Exact transition moments, OPA infrastructure, MCD improvements    
  Dmitry Ganyushin       : Spin-Orbit,Spin-Spin,Magnetic field MRCI      
  Miquel Garcia-Rates    : C-PCM and meta-GGA Hessian, CCSD/C-PCM, Gaussian charge scheme 
  Tiago L. C. Gouveia    : GS-ROHF, GS-ROCIS                             
  Yang Guo               : DLPNO-NEVPT2, F12-NEVPT2, CIM, IAO-localization        
  Andreas Hansen         : Spin unrestricted coupled pair/coupled cluster methods 
  Ingolf Harden          : AUTO-CI MPn and infrastructure                
  Benjamin Helmich-Paris : MC-RPA, TRAH-(SCF,CASSCF), AVAS, COSX integrals, SCF dyn. polar., MC-PDFT, srDFT 
  Lee Huntington         : MR-EOM, pCC                                   
  Robert Izsak           : Overlap fitted RIJCOSX, COSX-SCS-MP3, EOM     
  Riya Kayal             : Wick's Theorem for AUTO-CI, AUTO-CI UHF-CCSDT 
  Emily Kempfer          : AUTO-CI RHF CISDT and CCSDT, approximate NEVPT4
  Christian Kollmar      : KDIIS, OOCD, Brueckner-CCSD(T), CCSD density, CASPT2, CASPT2-K, improved NEVPT2 
  Axel Koslowski         : Symmetry handling                             
  Simone Kossmann        : meta-GGA functionals, TD-DFT gradient, OOMP2, (MP2 Hessian; deprecated post 5.0) 
  Lucas Lang             : DCDCAS, Hyperfine gauge corrections, ICE-SOC+SSC
  Marvin Lechner         : AUTO-CI (C++ implementation), FIC-MRCC        
  Spencer Leger          : CASSCF response                               
  Dagmar Lenk            : GEPOL surface, SMD, ORCA-2-JSON               
  Dimitrios Liakos       : Extrapolation schemes; Compound Job, Property file
  Dimitrios Manganas     : Further ROCIS development; embedding schemes. LFT, Crystal Embedding 
  Dimitrios Pantazis     : SARC Basis sets                               
  Anastasios Papadopoulos: AUTO-CI, single reference methods and gradients 
  Taras Petrenko         : pre 6.0 DFT Hessian and TD-DFT gradient,  ECA, NRVS 
  Petra Pikulova         : Analytic Raman intensities                    
  Peter Pinski           : DLPNO-MP2, DLPNO-MP2 Gradient                 
  Shashank Vittal Rao    : ES-AILFT, MagRelax                            
  Christoph Reimann      : Effective Core Potentials                     
  Marius Retegan         : Local ZFS, SOC                                
  Christoph Riplinger    : Optimizer, TS searches, QM/MM, DLPNO-CCSD(T), (RO)-DLPNO pert. Triples 
  Michael Roemelt        : Original ROCIS implementation, recursive CI coupling coefficients
  Masaaki Saitow         : Open-shell DLPNO-CCSD energy and density      
  Barbara Sandhoefer     : DKH picture change effects                    
  Yorick L. A. Schmerwitz: GMF and freeze-and-release deltaSCF, NEB S-IDPP initial path                    
  Kantharuban Sivalingam : CASSCF convergence/infrastructure, NEVPT2, NEVPT3, NEVPT4(SD), FIC-MRCI and CEPA variants
  Bernardo de Souza      : ESD, SOC TD-DFT                               
  Georgi L. Stoychev     : AutoAux, RI-MP2 NMR, DLPNO-MP2 response, X2C  
  Van Anh Tran           : RI-MP2 g-tensors                              
  Willem Van den Heuvel  : Paramagnetic NMR                              
  Zikuan Wang            : NOTCH, Electric field optimization            
  Frank Wennmohs         : Technical directorship and infrastructure     
  Hang Xu                : AUTO-CI-Response properties                   
                                                                         
[FACCTs GmbH]                                                            
  Markus Bursch, Nicolas Foglia, Miquel Garcia-Rates, Ingolf Harden, Hagen Neugebauer, Anastasios Papadopoulos, 
  Christoph Riplinger, Bernardo de Souza, Georgi L. Stoychev                                                    
                                                                 
  APM, various basis sets, CI-OPT, improved COSX, DLPNO-Multilevel,           
  DOCKER, DRACO, updates on ESD, Fragmentator, GOAT, IRC, LR-CPCM, L-BFGS, MBIS, meta-GGA TD-DFT gradient, ML-optimized integration grids, 
  MM, NACMEs, nearIR, NEB, NEB-TS, NL-DFT gradient (VV10), 2- and 3-layer-ONIOM, interface openCOSMO-RS, QMMM,   
  Crystal-QMMM, RESP, rigid body optimization, SF, symmetry and pop. for TD-DFT, various functionals, SOLVATOR                                   
                                                                         
[Other institutions]                                                     
  V. Asgeirsson          : NEB                                           
  Christoph Bannwarth    : sTDA-DFT, sTD-DFT, PBEh-3c, B97-3c, D3        
  Giovanni Bistoni       : ETS/NOCV, ADLD/ADEX, COVALED                  
  Martin Brehm           : Molecular dynamics                            
  Ronald Cardenas        : ETS/NOCV                                      
  Martina Colucci        : COVALED                                       
  Sebastian Ehlert       : rSCAN, r2SCAN, r2SCAN-3c, D4, dhf basis sets  
  Marvin Friede          : D4 for Fr, Ra, Ac-Lr                          
  Lars Goerigk           : TD-DFT with DH, B97 family of functionals     
  Stefan Grimme          : VdW corrections, initial TS optimization, DFT functionals, gCP, sTDA/sTD-DF 
  Waldemar Hujo          : DFT-NL                                        
  H. Jonsson             : NEB                                           
  Holger Kruse           : gCP                                           
  Marcel Mueller         : wB97X-3c, vDZP basis set                      
  Hagen Neugebauer       : wr2SCAN, Native XTB                           
  Gianluca Regni         : ADLD/ADEX                                     
  Tobias Risthaus        : pre 6.0 range-separated hybrid DFT and stability analysis
  Lukas Wittmann         : regularized MP2, r2SCAN double-hybrids, wr2SCAN        
                                                                         
We gratefully acknowledge several colleagues who have allowed us to      
interface, adapt or use parts of their codes:                            
  Ed Valeev, F. Pavosevic, A. Kumar             : LibInt (2-el integral package), F12 methods 
  Garnet Chan, S. Sharma, J. Yang, R. Olivares  : DMRG                   
  Ulf Ekstrom                                   : XCFun DFT Library      
  Mihaly Kallay                                 : mrcc  (arbitrary order and MRCC methods)
  Frank Weinhold                                : gennbo (NPA and NBO analysis)           
  Simon Mueller                                 : openCOSMO-RS                            
  Christopher J. Cramer and Donald G. Truhlar   : smd solvation model                     
  S Lehtola, MJT Oliveira, MAL Marques          : LibXC Library                           
  Liviu Ungur et al                             : ANISO software                          


 Your calculation uses the libint2 library for the computation of 2-el integrals
 For citations please refer to: http://libint.valeyev.net

 Your ORCA version has been built with support for libXC version: 7.0.0
 For citations please refer to: https://libxc.gitlab.io

 This ORCA versions uses:
   CBLAS   interface :  Fast vector & matrix operations
   LAPACKE interface :  Fast linear algebra routines
   SCALAPACK package :  Parallel linear algebra routines
   Shared memory     :  Shared parallel matrices
   BLAS/LAPACK       :  OpenBLAS 0.3.29  USE64BITINT DYNAMIC_ARCH NO_AFFINITY Cooperlake SINGLE_THREADED
        Core in use  :  Cooperlake
   Copyright (c) 2011-2014, The OpenBLAS Project


  ***********************************
  * Starting time: Tue Mar  3 21:00:02 2026
  * Host name:     c03b01n02
  * Process ID:    3015180
  * Working dir.:  /lustre1/jiangy/jiangy_liuxy/NMR/B9D7C2-SSSS-NMR/opt_conf
  ***********************************

NOTE: MaxCore=5000 MB was set to SCF,MP2,MDCI,CIPSI,MRCI,RASCI and CIS
      => If you want to overwrite this, your respective input block should be placed after the MaxCore statement


***************************************
The coordinates will be read from file: opt-conf-8.xyz
***************************************



Warning: The global flag for NMR shieldings has been found
         but shieldings for certain elements have also been explicitly requested in the EPRNMR block
         ==>> only the requested shieldings will be calculated

================================================================================

----- Orbital basis set information -----
Your calculation utilizes the basis: pcSseg-2
   F. Jensen, J. Chem. Theory Comput. 11, 132 (2015).

----- AuxJ basis set information -----
Your calculation utilizes the AutoAux generation procedure.
  G. L. Stoychev, A. A. Auer, F. Neese, J. Chem. Theory Comput. 13, 554 (2017)

----- AuxC basis set information -----
Your calculation utilizes the AutoAux generation procedure.
  G. L. Stoychev, A. A. Auer, F. Neese, J. Chem. Theory Comput. 13, 554 (2017)

----- AuxJK basis set information -----
Your calculation utilizes the AutoAux generation procedure.
  G. L. Stoychev, A. A. Auer, F. Neese, J. Chem. Theory Comput. 13, 554 (2017)

----- AuxX basis set information -----
Your calculation utilizes the AutoAux generation procedure.
  G. L. Stoychev, A. A. Auer, F. Neese, J. Chem. Theory Comput. 13, 554 (2017)

================================================================================
                                        WARNINGS
                       Please study these warnings very carefully!
================================================================================


================================================================================
                                       INPUT FILE
================================================================================
NAME = nmr-conf-8.inp
|  1> !TPSS PCSSEG-2 AUTOAUX NMR CPCM(Methanol)
|  2> 
|  3> %pal nprocs 60 end
|  4> %maxcore 5000
|  5> 
|  6> *XYZFILE 0 1 opt-conf-8.xyz
|  7> 
|  8> %EPRNMR
|  9>    NUCLEI = ALL C {SHIFT}
| 10>    NUCLEI = ALL H {SHIFT}
| 11>    TAU DOBSON
| 12> END
| 13> 
| 14> 
| 15>                          ****END OF INPUT****
================================================================================

                       ****************************
                       * Single Point Calculation *
                       ****************************

---------------------------------
CARTESIAN COORDINATES (ANGSTROEM)
---------------------------------
  C     28.050122  -28.077673    1.457469
  C     28.989101  -27.261340    0.808569
  C     28.993892  -27.187640   -0.587144
  C     28.067904  -27.934851   -1.306372
  C     27.111794  -28.700979   -0.661905
  C     27.103644  -28.771229    0.724584
  C     26.029287  -29.381987   -1.446268
  C     24.717275  -28.581455   -1.314623
  C     24.834451  -27.180346   -1.956699
  C     24.085758  -26.137188   -1.106409
  C     24.781013  -25.914503    0.208258
  C     25.981064  -25.205750    0.235628
  C     26.662941  -25.005355    1.420096
  C     26.151963  -25.544959    2.614679
  C     24.954204  -26.235532    2.587939
  C     24.273673  -26.416448    1.393545
  C     23.524224  -29.418695   -1.790414
  C     24.383915  -27.086319   -3.424738
  O     29.909968  -26.352495   -1.163050
  O     28.190472  -28.128934    2.816028
  O     29.793967  -26.519161    1.639749
  O     26.814649  -25.381693    3.787270
  O     27.824676  -24.286535    1.565244
  C     31.205739  -26.535153    1.463776
  C     31.756450  -27.962161    1.717400
  C     31.471241  -28.832338    0.508080
  C     31.721580  -25.544123    2.515541
  O     31.096006  -24.295878    2.388315
  C     30.566529  -29.884954    0.586025
  C     30.234766  -30.607401   -0.543887
  C     30.828377  -30.289377   -1.775359
  C     31.769228  -29.276030   -1.835924
  C     32.087263  -28.550490   -0.701041
  C     27.248575  -28.859248    3.562341
  C     30.007750  -26.332627   -2.569355
  C     28.351632  -23.636977    0.430799
  O     31.236180  -28.469335    2.915478
  O     23.773273  -29.983998   -3.064681
  O     25.129823  -27.896918   -4.291045
  O     29.338751  -31.652743   -0.591893
  O     30.489834  -30.974391   -2.900568
  C     28.704467  -32.027990    0.603975
  H     28.071610  -27.909552   -2.383757
  H     26.354187  -29.368721    1.219047
  H     25.862004  -30.389044   -1.058126
  H     26.313507  -29.461897   -2.493895
  H     24.556139  -28.415542   -0.244003
  H     25.894252  -26.912187   -1.938233
  H     24.049435  -25.195473   -1.658747
  H     23.058605  -26.465897   -0.937103
  H     26.367189  -24.806216   -0.688874
  H     24.557469  -26.613848    3.517392
  H     23.331923  -26.946265    1.397575
  H     23.353578  -30.226441   -1.063834
  H     22.621939  -28.792424   -1.817066
  H     24.541017  -26.059699   -3.770322
  H     23.310460  -27.305598   -3.511446
  H     27.649890  -24.933646    3.597407
  H     31.469853  -26.194999    0.457491
  H     32.842535  -27.890291    1.857137
  H     31.539624  -25.968672    3.513232
  H     32.793390  -25.382336    2.386525
  H     30.150592  -24.474514    2.285122
  H     30.134150  -30.123162    1.543990
  H     32.242195  -29.067950   -2.782682
  H     32.818065  -27.758577   -0.762584
  H     26.234088  -28.492657    3.387359
  H     27.299047  -29.930160    3.335249
  H     27.515504  -28.698059    4.605054
  H     30.824919  -25.648532   -2.792615
  H     30.243459  -27.324558   -2.963247
  H     29.088045  -25.960058   -3.031120
  H     27.611053  -22.970612   -0.021904
  H     29.195646  -23.049020    0.788552
  H     28.703948  -24.357745   -0.310956
  H     30.300208  -28.208651    2.966641
  H     22.996732  -30.473510   -3.351849
  H     24.890129  -28.813999   -4.087432
  H     29.836449  -31.642046   -2.651712
  H     28.111442  -31.201847    1.007674
  H     28.047302  -32.856291    0.342264
  H     29.428812  -32.361991    1.353305

----------------------------
CARTESIAN COORDINATES (A.U.)
----------------------------
  NO LB      ZA    FRAG     MASS         X           Y           Z
   0 C     6.0000    0    12.011   53.007048  -53.059113    2.754217
   1 C     6.0000    0    12.011   54.781461  -51.516467    1.527975
   2 C     6.0000    0    12.011   54.790515  -51.377195   -1.109541
   3 C     6.0000    0    12.011   53.040652  -52.789218   -2.468685
   4 C     6.0000    0    12.011   51.233865  -54.236991   -1.250819
   5 C     6.0000    0    12.011   51.218464  -54.369743    1.369266
   6 C     6.0000    0    12.011   49.188225  -55.523909   -2.733050
   7 C     6.0000    0    12.011   46.708881  -54.011122   -2.484278
   8 C     6.0000    0    12.011   46.930310  -51.363409   -3.697625
   9 C     6.0000    0    12.011   45.515487  -49.392127   -2.090810
  10 C     6.0000    0    12.011   46.829328  -48.971314    0.393550
  11 C     6.0000    0    12.011   49.097096  -47.631965    0.445272
  12 C     6.0000    0    12.011   50.385657  -47.253272    2.683592
  13 C     6.0000    0    12.011   49.420048  -48.272976    4.941027
  14 C     6.0000    0    12.011   47.156612  -49.577970    4.890495
  15 C     6.0000    0    12.011   45.870594  -49.919852    2.633419
  16 C     6.0000    0    12.011   44.454340  -55.593277   -3.383392
  17 C     6.0000    0    12.011   46.078922  -51.185725   -6.471816
  18 O     8.0000    0    15.999   56.521648  -49.798999   -2.197846
  19 O     8.0000    0    15.999   53.272271  -53.155982    5.321522
  20 O     8.0000    0    15.999   56.302438  -50.113951    3.098677
  21 O     8.0000    0    15.999   50.672344  -47.964448    7.156903
  22 O     8.0000    0    15.999   52.581017  -45.894900    2.957882
  23 C     6.0000    0    12.011   58.970301  -50.144172    2.766135
  24 C     6.0000    0    12.011   60.010994  -52.840826    3.245416
  25 C     6.0000    0    12.011   59.472027  -54.485223    0.960132
  26 C     6.0000    0    12.011   59.945099  -48.271396    4.753683
  27 O     8.0000    0    15.999   58.762935  -45.912556    4.513261
  28 C     6.0000    0    12.011   57.762369  -56.474378    1.107428
  29 C     6.0000    0    12.011   57.135427  -57.839605   -1.027797
  30 C     6.0000    0    12.011   58.257190  -57.238627   -3.354942
  31 C     6.0000    0    12.011   60.035140  -55.323680   -3.469394
  32 C     6.0000    0    12.011   60.636139  -53.952607   -1.324775
  33 C     6.0000    0    12.011   51.492345  -54.536075    6.731849
  34 C     6.0000    0    12.011   56.706430  -49.761454   -4.855377
  35 C     6.0000    0    12.011   53.576820  -44.667414    0.814092
  36 O     8.0000    0    15.999   59.027825  -53.799246    5.509456
  37 O     8.0000    0    15.999   44.924974  -56.661545   -5.791408
  38 O     8.0000    0    15.999   47.488483  -52.717536   -8.108899
  39 O     8.0000    0    15.999   55.442204  -59.815016   -1.118515
  40 O     8.0000    0    15.999   57.617436  -58.533115   -5.481280
  41 C     6.0000    0    12.011   54.243582  -60.524129    1.141347
  42 H     1.0000    0     1.008   53.047656  -52.741409   -4.504648
  43 H     1.0000    0     1.008   49.802195  -55.498840    2.303665
  44 H     1.0000    0     1.008   48.872106  -57.426971   -1.999567
  45 H     1.0000    0     1.008   49.725322  -55.674916   -4.712778
  46 H     1.0000    0     1.008   46.404377  -53.697591   -0.461099
  47 H     1.0000    0     1.008   48.933045  -50.856664   -3.662729
  48 H     1.0000    0     1.008   45.446847  -47.612543   -3.134578
  49 H     1.0000    0     1.008   43.574448  -50.013297   -1.770868
  50 H     1.0000    0     1.008   49.826766  -46.876954   -1.301782
  51 H     1.0000    0     1.008   46.406891  -50.292884    6.646907
  52 H     1.0000    0     1.008   44.090944  -50.921061    2.641034
  53 H     1.0000    0     1.008   44.131867  -57.119695   -2.010354
  54 H     1.0000    0     1.008   42.749269  -54.409797   -3.433758
  55 H     1.0000    0     1.008   46.375801  -49.245695   -7.124877
  56 H     1.0000    0     1.008   44.050385  -51.600102   -6.635671
  57 H     1.0000    0     1.008   52.250720  -47.117762    6.798114
  58 H     1.0000    0     1.008   59.469403  -49.501375    0.864533
  59 H     1.0000    0     1.008   62.063396  -52.705011    3.509480
  60 H     1.0000    0     1.008   59.601252  -49.073679    6.639045
  61 H     1.0000    0     1.008   61.970526  -47.965663    4.509879
  62 H     1.0000    0     1.008   56.976361  -46.250129    4.318255
  63 H     1.0000    0     1.008   56.945291  -56.924527    2.917717
  64 H     1.0000    0     1.008   60.928919  -54.930465   -5.258507
  65 H     1.0000    0     1.008   62.017156  -52.456108   -1.441075
  66 H     1.0000    0     1.008   49.575242  -53.843318    6.401181
  67 H     1.0000    0     1.008   51.587722  -56.559805    6.302707
  68 H     1.0000    0     1.008   51.996767  -54.231472    8.702290
  69 H     1.0000    0     1.008   58.250654  -48.468702   -5.277278
  70 H     1.0000    0     1.008   57.151855  -51.635931   -5.599725
  71 H     1.0000    0     1.008   54.968439  -49.057401   -5.727987
  72 H     1.0000    0     1.008   52.177328  -43.408165   -0.041392
  73 H     1.0000    0     1.008   55.171774  -43.556335    1.490148
  74 H     1.0000    0     1.008   54.242601  -46.029466   -0.587622
  75 H     1.0000    0     1.008   57.259095  -53.306625    5.606139
  76 H     1.0000    0     1.008   43.457526  -57.586587   -6.334077
  77 H     1.0000    0     1.008   47.035527  -54.450567   -7.724127
  78 H     1.0000    0     1.008   56.382717  -59.794801   -5.011009
  79 H     1.0000    0     1.008   53.122926  -58.962945    1.904227
  80 H     1.0000    0     1.008   53.001719  -62.089392    0.646786
  81 H     1.0000    0     1.008   55.612395  -61.155300    2.557376

--------------------------------
INTERNAL COORDINATES (ANGSTROEM)
--------------------------------
 C      0   0   0     0.000000000000     0.00000000     0.00000000
 C      1   0   0     1.403264894730     0.00000000     0.00000000
 C      2   1   0     1.397666064027   119.65290806     0.00000000
 C      3   2   1     1.390347425374   119.07513851   359.63666914
 C      4   3   2     1.384354369565   121.10341476     2.75267585
 C      1   2   3     1.383459163836   120.29509700   357.79060580
 C      5   4   3     1.500272253488   120.40810549   173.34900719
 C      7   5   4     1.542581879866   109.48183935   257.84879660
 C      8   7   5     1.545670788860   111.74594637    64.82059944
 C      9   8   7     1.540035947653   110.35281609   218.31612276
 C     10   9   8     1.503767425171   110.99159823    68.66462026
 C     11  10   9     1.393987901454   119.37187072    72.91842919
 C     12  11  10     1.381332213304   121.03472963   181.37070679
 C     13  12  11     1.406875717664   119.54842434     1.15578361
 C     14  13  12     1.382835342845   119.32157123   358.18110808
 C     11  10   9     1.383563825851   121.71545261   254.12830898
 C      8   7   5     1.533205673462   110.60738917   194.53191926
 C      9   8   7     1.538493029776   115.44087089    92.74704655
 O      3   2   1     1.366868545650   117.08159616   178.49830070
 O      1   2   3     1.366751024316   114.37802824   176.44641438
 O      2   1   3     1.374590778586   115.23197505   176.04783204
 O     14  13  12     1.356752861130   120.68341374   178.86684851
 O     13  12  11     1.373825684720   125.72749747   182.32576666
 C     21   2   1     1.422787290953   120.00940331   129.79977065
 C     24  21   2     1.550470610741   110.03248908   296.37153643
 C     25  24  21     1.516907529191   109.31615181    77.30628116
 C     24  21   2     1.534419332258   103.97743906   177.10873646
 O     27  24  21     1.402013889653   111.27385443   305.81609512
 C     26  25  24     1.390172091005   120.79863382   247.85683712
 C     29  26  25     1.381556413313   120.42244537   174.98453250
 C     30  29  26     1.403580271876   119.83630717     0.88884132
 C     31  30  29     1.384102071809   119.45672607     1.74863546
 C     32  31  30     1.384021392561   120.27317265   357.71261218
 C     20   1   2     1.406240017505   118.56998053   176.37109651
 C     19   3   2     1.409840574795   118.38339892   175.27483144
 C     23  13  12     1.409458259429   118.18027085     3.12245318
 O     25  24  21     1.401177554353   109.94532738   311.65467208
 O     17   8   7     1.416103543760   111.12358497   309.92726631
 O     18   9   8     1.401405054342   113.49343381   298.75704355
 O     30  29  26     1.377638805980   125.55432728   181.08434898
 O     31  30  29     1.360129520271   120.42803811   181.37531180
 C     40  30  29     1.404715088778   117.82117964   359.81752894
 H      4   3   2     1.077688435665   120.14885395   181.48246410
 H      6   1   2     1.078506621359   120.68163112   182.49096015
 H      7   5   4     1.092154367046   110.07608125   138.61780319
 H      7   5   4     1.088433966122   110.37263887    19.09577022
 H      8   7   5     1.095316898570   106.68740760   309.08966478
 H      9   8   7     1.093356740772   106.78547965   334.50993542
 H     10   9   8     1.092347963732   108.71985249   188.86063851
 H     10   9   8     1.091677130241   109.82144241   306.66054128
 H     12  11  10     1.078621016859   118.66438926     1.88263314
 H     15  14  13     1.079076016070   118.48189678   182.11177085
 H     16  11  10     1.080562395873   120.04381605   357.19607258
 H     17   8   7     1.099769115930   108.46904324    69.95501578
 H     17   8   7     1.098655048810   109.59126326   187.51858557
 H     18   9   8     1.094558276142   108.45514732   181.59442323
 H     18   9   8     1.099048758259   110.43288703    63.91387500
 H     22  14  13     0.966654718574   107.94224186   355.42955053
 H     24  21   2     1.094563124678   110.46540460    58.68188641
 H     25  24  21     1.097392845673   108.18475034   195.84915584
 H     27  24  21     1.099425829723   108.48023608    67.73725324
 H     27  24  21     1.091602439142   110.16935087   187.08105000
 H     28  27  24     0.967661050594   106.33526835    45.85421069
 H     29  26  25     1.077678154789   118.57531564   354.88745219
 H     32  31  30     1.078584896108   118.53725615   177.80900901
 H     33  32  31     1.079345650510   119.56793016   180.38523185
 H     34  20   1     1.092790963100   111.26022125   302.56021505
 H     34  20   1     1.095887583101   111.51086948    65.41314001
 H     34  20   1     1.088339115740   105.50205508   184.07314407
 H     35  19   3     1.088850119725   105.39272317   183.00926593
 H     35  19   3     1.092993771722   111.20111651   301.62013522
 H     35  19   3     1.094482619565   111.55290580    64.51651996
 H     36  23  13     1.094276290230   111.13663218    55.33131237
 H     36  23  13     1.089054834067   105.91157998   174.01238775
 H     36  23  13     1.092626629849   111.28181662   292.59773781
 H     37  25  24     0.972942202745   107.76908176    40.19373654
 H     38  17   8     0.961822304945   109.25905612   182.21160442
 H     39  18   9     0.969509104836   106.60205516    70.06113852
 H     41  31  30     0.966749874064   107.64338810   359.48193811
 H     42  40  30     1.094150183504   110.92449456    61.04276355
 H     42  40  30     1.089239330685   105.72479613   179.80434452
 H     42  40  30     1.094407213984   111.44231114   298.54565317

---------------------------
INTERNAL COORDINATES (A.U.)
---------------------------
 C      0   0   0     0.000000000000     0.00000000     0.00000000
 C      1   0   0     2.651786344385     0.00000000     0.00000000
 C      2   1   0     2.641206087686   119.65290806     0.00000000
 C      3   2   1     2.627375864959   119.07513851   359.63666914
 C      4   3   2     2.616050630774   121.10341476     2.75267585
 C      1   2   3     2.614358937115   120.29509700   357.79060580
 C      5   4   3     2.835103685413   120.40810549   173.34900719
 C      7   5   4     2.915057292096   109.48183935   257.84879660
 C      8   7   5     2.920894484148   111.74594637    64.82059944
 C      9   8   7     2.910246177459   110.35281609   218.31612276
 C     10   9   8     2.841708602684   110.99159823    68.66462026
 C     11  10   9     2.634255367747   119.37187072    72.91842919
 C     12  11  10     2.610339583107   121.03472963   181.37070679
 C     13  12  11     2.658609810849   119.54842434     1.15578361
 C     14  13  12     2.613180086285   119.32157123   358.18110808
 C     11  10   9     2.614556719658   121.71545261   254.12830898
 C      8   7   5     2.897338829817   110.60738917   194.53191926
 C      9   8   7     2.907330485224   115.44087089    92.74704655
 O      3   2   1     2.583007212350   117.08159616   178.49830070
 O      1   2   3     2.582785129214   114.37802824   176.44641438
 O      2   1   3     2.597600117742   115.23197505   176.04783204
 O     14  13  12     2.563891338950   120.68341374   178.86684851
 O     13  12  11     2.596154299867   125.72749747   182.32576666
 C     21   2   1     2.688678326725   120.00940331   129.79977065
 C     24  21   2     2.929964832994   110.03248908   296.37153643
 C     25  24  21     2.866539800654   109.31615181    77.30628116
 C     24  21   2     2.899632312561   103.97743906   177.10873646
 O     27  24  21     2.649422287398   111.27385443   305.81609512
 C     26  25  24     2.627044531020   120.79863382   247.85683712
 C     29  26  25     2.610763259723   120.42244537   174.98453250
 C     30  29  26     2.652382320820   119.83630717     0.88884132
 C     31  30  29     2.615573857113   119.45672607     1.74863546
 C     32  31  30     2.615421395429   120.27317265   357.71261218
 C     20   1   2     2.657408511645   118.56998053   176.37109651
 C     19   3   2     2.664212578853   118.38339892   175.27483144
 C     23  13  12     2.663490107514   118.18027085     3.12245318
 O     25  24  21     2.647841842724   109.94532738   311.65467208
 O     17   8   7     2.676047874981   111.12358497   309.92726631
 O     18   9   8     2.648271755398   113.49343381   298.75704355
 O     30  29  26     2.603360054765   125.55432728   181.08434898
 O     31  30  29     2.570272299973   120.42803811   181.37531180
 C     40  30  29     2.654526813977   117.82117964   359.81752894
 H      4   3   2     2.036536001100   120.14885395   181.48246410
 H      6   1   2     2.038082147989   120.68163112   182.49096015
 H      7   5   4     2.063872649682   110.07608125   138.61780319
 H      7   5   4     2.056842110828   110.37263887    19.09577022
 H      8   7   5     2.069848968153   106.68740760   309.08966478
 H      9   8   7     2.066144806735   106.78547965   334.50993542
 H     10   9   8     2.064238494400   108.71985249   188.86063851
 H     10   9   8     2.062970802821   109.82144241   306.66054128
 H     12  11  10     2.038298324155   118.66438926     1.88263314
 H     15  14  13     2.039158148056   118.48189678   182.11177085
 H     16  11  10     2.041966998814   120.04381605   357.19607258
 H     17   8   7     2.078262439652   108.46904324    69.95501578
 H     17   8   7     2.076157157900   109.59126326   187.51858557
 H     18   9   8     2.068415379525   108.45514732   181.59442323
 H     18   9   8     2.076901160936   110.43288703    63.91387500
 H     22  14  13     1.826712684168   107.94224186   355.42955053
 H     24  21   2     2.068424541930   110.46540460    58.68188641
 H     25  24  21     2.073771939646   108.18475034   195.84915584
 H     27  24  21     2.077613722737   108.48023608    67.73725324
 H     27  24  21     2.062829657099   110.16935087   187.08105000
 H     28  27  24     1.828614376085   106.33526835    45.85421069
 H     29  26  25     2.036516573061   118.57531564   354.88745219
 H     32  31  30     2.038230065828   118.53725615   177.80900901
 H     33  32  31     2.039667683303   119.56793016   180.38523185
 H     34  20   1     2.065075641882   111.26022125   302.56021505
 H     34  20   1     2.070927405626   111.51086948    65.41314001
 H     34  20   1     2.056662869583   105.50205508   184.07314407
 H     35  19   3     2.057628527168   105.39272317   183.00926593
 H     35  19   3     2.065458894636   111.20111651   301.62013522
 H     35  19   3     2.068272409314   111.55290580    64.51651996
 H     36  23  13     2.067882503377   111.13663218    55.33131237
 H     36  23  13     2.058015381210   105.91157998   174.01238775
 H     36  23  13     2.064765097044   111.28181662   292.59773781
 H     37  25  24     1.838594307322   107.76908176    40.19373654
 H     38  17   8     1.817580745843   109.25905612   182.21160442
 H     39  18   9     1.832106692483   106.60205516    70.06113852
 H     41  31  30     1.826892501983   107.64338810   359.48193811
 H     42  40  30     2.067644196202   110.92449456    61.04276355
 H     42  40  30     2.058364029291   105.72479613   179.80434452
 H     42  40  30     2.068129913417   111.44231114   298.54565317

---------------------
BASIS SET INFORMATION
---------------------
There are 3 groups of distinct atoms

 Group   1 Type C   : 11s7p2d1f contracted to 4s5p2d1f pattern {7211/31111/11/1}
 Group   2 Type O   : 11s7p2d1f contracted to 4s5p2d1f pattern {7211/31111/11/1}
 Group   3 Type H   : 6s3p1d contracted to 3s2p1d pattern {411/21/1}

Atom   0C    basis set group =>   1
Atom   1C    basis set group =>   1
Atom   2C    basis set group =>   1
Atom   3C    basis set group =>   1
Atom   4C    basis set group =>   1
Atom   5C    basis set group =>   1
Atom   6C    basis set group =>   1
Atom   7C    basis set group =>   1
Atom   8C    basis set group =>   1
Atom   9C    basis set group =>   1
Atom  10C    basis set group =>   1
Atom  11C    basis set group =>   1
Atom  12C    basis set group =>   1
Atom  13C    basis set group =>   1
Atom  14C    basis set group =>   1
Atom  15C    basis set group =>   1
Atom  16C    basis set group =>   1
Atom  17C    basis set group =>   1
Atom  18O    basis set group =>   2
Atom  19O    basis set group =>   2
Atom  20O    basis set group =>   2
Atom  21O    basis set group =>   2
Atom  22O    basis set group =>   2
Atom  23C    basis set group =>   1
Atom  24C    basis set group =>   1
Atom  25C    basis set group =>   1
Atom  26C    basis set group =>   1
Atom  27O    basis set group =>   2
Atom  28C    basis set group =>   1
Atom  29C    basis set group =>   1
Atom  30C    basis set group =>   1
Atom  31C    basis set group =>   1
Atom  32C    basis set group =>   1
Atom  33C    basis set group =>   1
Atom  34C    basis set group =>   1
Atom  35C    basis set group =>   1
Atom  36O    basis set group =>   2
Atom  37O    basis set group =>   2
Atom  38O    basis set group =>   2
Atom  39O    basis set group =>   2
Atom  40O    basis set group =>   2
Atom  41C    basis set group =>   1
Atom  42H    basis set group =>   3
Atom  43H    basis set group =>   3
Atom  44H    basis set group =>   3
Atom  45H    basis set group =>   3
Atom  46H    basis set group =>   3
Atom  47H    basis set group =>   3
Atom  48H    basis set group =>   3
Atom  49H    basis set group =>   3
Atom  50H    basis set group =>   3
Atom  51H    basis set group =>   3
Atom  52H    basis set group =>   3
Atom  53H    basis set group =>   3
Atom  54H    basis set group =>   3
Atom  55H    basis set group =>   3
Atom  56H    basis set group =>   3
Atom  57H    basis set group =>   3
Atom  58H    basis set group =>   3
Atom  59H    basis set group =>   3
Atom  60H    basis set group =>   3
Atom  61H    basis set group =>   3
Atom  62H    basis set group =>   3
Atom  63H    basis set group =>   3
Atom  64H    basis set group =>   3
Atom  65H    basis set group =>   3
Atom  66H    basis set group =>   3
Atom  67H    basis set group =>   3
Atom  68H    basis set group =>   3
Atom  69H    basis set group =>   3
Atom  70H    basis set group =>   3
Atom  71H    basis set group =>   3
Atom  72H    basis set group =>   3
Atom  73H    basis set group =>   3
Atom  74H    basis set group =>   3
Atom  75H    basis set group =>   3
Atom  76H    basis set group =>   3
Atom  77H    basis set group =>   3
Atom  78H    basis set group =>   3
Atom  79H    basis set group =>   3
Atom  80H    basis set group =>   3
Atom  81H    basis set group =>   3
---------------------------------
AUXILIARY/J BASIS SET INFORMATION
---------------------------------
There are 3 groups of distinct atoms

 Group   1 Type C   : 15s13p12d5f5g contracted to 15s13p12d5f5g pattern {111111111111111/1111111111111/111111111111/11111/11111}
 Group   2 Type O   : 15s13p12d5f5g contracted to 15s13p12d5f5g pattern {111111111111111/1111111111111/111111111111/11111/11111}
 Group   3 Type H   : 12s4p3d2f contracted to 12s4p3d2f pattern {111111111111/1111/111/11}

Atom   0C    basis set group =>   1
Atom   1C    basis set group =>   1
Atom   2C    basis set group =>   1
Atom   3C    basis set group =>   1
Atom   4C    basis set group =>   1
Atom   5C    basis set group =>   1
Atom   6C    basis set group =>   1
Atom   7C    basis set group =>   1
Atom   8C    basis set group =>   1
Atom   9C    basis set group =>   1
Atom  10C    basis set group =>   1
Atom  11C    basis set group =>   1
Atom  12C    basis set group =>   1
Atom  13C    basis set group =>   1
Atom  14C    basis set group =>   1
Atom  15C    basis set group =>   1
Atom  16C    basis set group =>   1
Atom  17C    basis set group =>   1
Atom  18O    basis set group =>   2
Atom  19O    basis set group =>   2
Atom  20O    basis set group =>   2
Atom  21O    basis set group =>   2
Atom  22O    basis set group =>   2
Atom  23C    basis set group =>   1
Atom  24C    basis set group =>   1
Atom  25C    basis set group =>   1
Atom  26C    basis set group =>   1
Atom  27O    basis set group =>   2
Atom  28C    basis set group =>   1
Atom  29C    basis set group =>   1
Atom  30C    basis set group =>   1
Atom  31C    basis set group =>   1
Atom  32C    basis set group =>   1
Atom  33C    basis set group =>   1
Atom  34C    basis set group =>   1
Atom  35C    basis set group =>   1
Atom  36O    basis set group =>   2
Atom  37O    basis set group =>   2
Atom  38O    basis set group =>   2
Atom  39O    basis set group =>   2
Atom  40O    basis set group =>   2
Atom  41C    basis set group =>   1
Atom  42H    basis set group =>   3
Atom  43H    basis set group =>   3
Atom  44H    basis set group =>   3
Atom  45H    basis set group =>   3
Atom  46H    basis set group =>   3
Atom  47H    basis set group =>   3
Atom  48H    basis set group =>   3
Atom  49H    basis set group =>   3
Atom  50H    basis set group =>   3
Atom  51H    basis set group =>   3
Atom  52H    basis set group =>   3
Atom  53H    basis set group =>   3
Atom  54H    basis set group =>   3
Atom  55H    basis set group =>   3
Atom  56H    basis set group =>   3
Atom  57H    basis set group =>   3
Atom  58H    basis set group =>   3
Atom  59H    basis set group =>   3
Atom  60H    basis set group =>   3
Atom  61H    basis set group =>   3
Atom  62H    basis set group =>   3
Atom  63H    basis set group =>   3
Atom  64H    basis set group =>   3
Atom  65H    basis set group =>   3
Atom  66H    basis set group =>   3
Atom  67H    basis set group =>   3
Atom  68H    basis set group =>   3
Atom  69H    basis set group =>   3
Atom  70H    basis set group =>   3
Atom  71H    basis set group =>   3
Atom  72H    basis set group =>   3
Atom  73H    basis set group =>   3
Atom  74H    basis set group =>   3
Atom  75H    basis set group =>   3
Atom  76H    basis set group =>   3
Atom  77H    basis set group =>   3
Atom  78H    basis set group =>   3
Atom  79H    basis set group =>   3
Atom  80H    basis set group =>   3
Atom  81H    basis set group =>   3
---------------------------------
AUXILIARY/C BASIS SET INFORMATION
---------------------------------
There are 3 groups of distinct atoms

 Group   1 Type C   : 15s13p12d5f5g contracted to 15s13p12d5f5g pattern {111111111111111/1111111111111/111111111111/11111/11111}
 Group   2 Type O   : 15s13p12d5f5g contracted to 15s13p12d5f5g pattern {111111111111111/1111111111111/111111111111/11111/11111}
 Group   3 Type H   : 12s4p3d2f contracted to 12s4p3d2f pattern {111111111111/1111/111/11}

Atom   0C    basis set group =>   1
Atom   1C    basis set group =>   1
Atom   2C    basis set group =>   1
Atom   3C    basis set group =>   1
Atom   4C    basis set group =>   1
Atom   5C    basis set group =>   1
Atom   6C    basis set group =>   1
Atom   7C    basis set group =>   1
Atom   8C    basis set group =>   1
Atom   9C    basis set group =>   1
Atom  10C    basis set group =>   1
Atom  11C    basis set group =>   1
Atom  12C    basis set group =>   1
Atom  13C    basis set group =>   1
Atom  14C    basis set group =>   1
Atom  15C    basis set group =>   1
Atom  16C    basis set group =>   1
Atom  17C    basis set group =>   1
Atom  18O    basis set group =>   2
Atom  19O    basis set group =>   2
Atom  20O    basis set group =>   2
Atom  21O    basis set group =>   2
Atom  22O    basis set group =>   2
Atom  23C    basis set group =>   1
Atom  24C    basis set group =>   1
Atom  25C    basis set group =>   1
Atom  26C    basis set group =>   1
Atom  27O    basis set group =>   2
Atom  28C    basis set group =>   1
Atom  29C    basis set group =>   1
Atom  30C    basis set group =>   1
Atom  31C    basis set group =>   1
Atom  32C    basis set group =>   1
Atom  33C    basis set group =>   1
Atom  34C    basis set group =>   1
Atom  35C    basis set group =>   1
Atom  36O    basis set group =>   2
Atom  37O    basis set group =>   2
Atom  38O    basis set group =>   2
Atom  39O    basis set group =>   2
Atom  40O    basis set group =>   2
Atom  41C    basis set group =>   1
Atom  42H    basis set group =>   3
Atom  43H    basis set group =>   3
Atom  44H    basis set group =>   3
Atom  45H    basis set group =>   3
Atom  46H    basis set group =>   3
Atom  47H    basis set group =>   3
Atom  48H    basis set group =>   3
Atom  49H    basis set group =>   3
Atom  50H    basis set group =>   3
Atom  51H    basis set group =>   3
Atom  52H    basis set group =>   3
Atom  53H    basis set group =>   3
Atom  54H    basis set group =>   3
Atom  55H    basis set group =>   3
Atom  56H    basis set group =>   3
Atom  57H    basis set group =>   3
Atom  58H    basis set group =>   3
Atom  59H    basis set group =>   3
Atom  60H    basis set group =>   3
Atom  61H    basis set group =>   3
Atom  62H    basis set group =>   3
Atom  63H    basis set group =>   3
Atom  64H    basis set group =>   3
Atom  65H    basis set group =>   3
Atom  66H    basis set group =>   3
Atom  67H    basis set group =>   3
Atom  68H    basis set group =>   3
Atom  69H    basis set group =>   3
Atom  70H    basis set group =>   3
Atom  71H    basis set group =>   3
Atom  72H    basis set group =>   3
Atom  73H    basis set group =>   3
Atom  74H    basis set group =>   3
Atom  75H    basis set group =>   3
Atom  76H    basis set group =>   3
Atom  77H    basis set group =>   3
Atom  78H    basis set group =>   3
Atom  79H    basis set group =>   3
Atom  80H    basis set group =>   3
Atom  81H    basis set group =>   3
----------------------------------
AUXILIARY/JK BASIS SET INFORMATION
----------------------------------
There are 3 groups of distinct atoms

 Group   1 Type C   : 15s13p12d5f5g contracted to 15s13p12d5f5g pattern {111111111111111/1111111111111/111111111111/11111/11111}
 Group   2 Type O   : 15s13p12d5f5g contracted to 15s13p12d5f5g pattern {111111111111111/1111111111111/111111111111/11111/11111}
 Group   3 Type H   : 12s4p3d2f contracted to 12s4p3d2f pattern {111111111111/1111/111/11}

Atom   0C    basis set group =>   1
Atom   1C    basis set group =>   1
Atom   2C    basis set group =>   1
Atom   3C    basis set group =>   1
Atom   4C    basis set group =>   1
Atom   5C    basis set group =>   1
Atom   6C    basis set group =>   1
Atom   7C    basis set group =>   1
Atom   8C    basis set group =>   1
Atom   9C    basis set group =>   1
Atom  10C    basis set group =>   1
Atom  11C    basis set group =>   1
Atom  12C    basis set group =>   1
Atom  13C    basis set group =>   1
Atom  14C    basis set group =>   1
Atom  15C    basis set group =>   1
Atom  16C    basis set group =>   1
Atom  17C    basis set group =>   1
Atom  18O    basis set group =>   2
Atom  19O    basis set group =>   2
Atom  20O    basis set group =>   2
Atom  21O    basis set group =>   2
Atom  22O    basis set group =>   2
Atom  23C    basis set group =>   1
Atom  24C    basis set group =>   1
Atom  25C    basis set group =>   1
Atom  26C    basis set group =>   1
Atom  27O    basis set group =>   2
Atom  28C    basis set group =>   1
Atom  29C    basis set group =>   1
Atom  30C    basis set group =>   1
Atom  31C    basis set group =>   1
Atom  32C    basis set group =>   1
Atom  33C    basis set group =>   1
Atom  34C    basis set group =>   1
Atom  35C    basis set group =>   1
Atom  36O    basis set group =>   2
Atom  37O    basis set group =>   2
Atom  38O    basis set group =>   2
Atom  39O    basis set group =>   2
Atom  40O    basis set group =>   2
Atom  41C    basis set group =>   1
Atom  42H    basis set group =>   3
Atom  43H    basis set group =>   3
Atom  44H    basis set group =>   3
Atom  45H    basis set group =>   3
Atom  46H    basis set group =>   3
Atom  47H    basis set group =>   3
Atom  48H    basis set group =>   3
Atom  49H    basis set group =>   3
Atom  50H    basis set group =>   3
Atom  51H    basis set group =>   3
Atom  52H    basis set group =>   3
Atom  53H    basis set group =>   3
Atom  54H    basis set group =>   3
Atom  55H    basis set group =>   3
Atom  56H    basis set group =>   3
Atom  57H    basis set group =>   3
Atom  58H    basis set group =>   3
Atom  59H    basis set group =>   3
Atom  60H    basis set group =>   3
Atom  61H    basis set group =>   3
Atom  62H    basis set group =>   3
Atom  63H    basis set group =>   3
Atom  64H    basis set group =>   3
Atom  65H    basis set group =>   3
Atom  66H    basis set group =>   3
Atom  67H    basis set group =>   3
Atom  68H    basis set group =>   3
Atom  69H    basis set group =>   3
Atom  70H    basis set group =>   3
Atom  71H    basis set group =>   3
Atom  72H    basis set group =>   3
Atom  73H    basis set group =>   3
Atom  74H    basis set group =>   3
Atom  75H    basis set group =>   3
Atom  76H    basis set group =>   3
Atom  77H    basis set group =>   3
Atom  78H    basis set group =>   3
Atom  79H    basis set group =>   3
Atom  80H    basis set group =>   3
Atom  81H    basis set group =>   3
---------------------------------
AUXILIARY/X BASIS SET INFORMATION
---------------------------------
There are 3 groups of distinct atoms

 Group   1 Type C   : 15s13p12d5f5g contracted to 15s13p12d5f5g pattern {111111111111111/1111111111111/111111111111/11111/11111}
 Group   2 Type O   : 15s13p12d5f5g contracted to 15s13p12d5f5g pattern {111111111111111/1111111111111/111111111111/11111/11111}
 Group   3 Type H   : 12s4p3d2f contracted to 12s4p3d2f pattern {111111111111/1111/111/11}

Atom   0C    basis set group =>   1
Atom   1C    basis set group =>   1
Atom   2C    basis set group =>   1
Atom   3C    basis set group =>   1
Atom   4C    basis set group =>   1
Atom   5C    basis set group =>   1
Atom   6C    basis set group =>   1
Atom   7C    basis set group =>   1
Atom   8C    basis set group =>   1
Atom   9C    basis set group =>   1
Atom  10C    basis set group =>   1
Atom  11C    basis set group =>   1
Atom  12C    basis set group =>   1
Atom  13C    basis set group =>   1
Atom  14C    basis set group =>   1
Atom  15C    basis set group =>   1
Atom  16C    basis set group =>   1
Atom  17C    basis set group =>   1
Atom  18O    basis set group =>   2
Atom  19O    basis set group =>   2
Atom  20O    basis set group =>   2
Atom  21O    basis set group =>   2
Atom  22O    basis set group =>   2
Atom  23C    basis set group =>   1
Atom  24C    basis set group =>   1
Atom  25C    basis set group =>   1
Atom  26C    basis set group =>   1
Atom  27O    basis set group =>   2
Atom  28C    basis set group =>   1
Atom  29C    basis set group =>   1
Atom  30C    basis set group =>   1
Atom  31C    basis set group =>   1
Atom  32C    basis set group =>   1
Atom  33C    basis set group =>   1
Atom  34C    basis set group =>   1
Atom  35C    basis set group =>   1
Atom  36O    basis set group =>   2
Atom  37O    basis set group =>   2
Atom  38O    basis set group =>   2
Atom  39O    basis set group =>   2
Atom  40O    basis set group =>   2
Atom  41C    basis set group =>   1
Atom  42H    basis set group =>   3
Atom  43H    basis set group =>   3
Atom  44H    basis set group =>   3
Atom  45H    basis set group =>   3
Atom  46H    basis set group =>   3
Atom  47H    basis set group =>   3
Atom  48H    basis set group =>   3
Atom  49H    basis set group =>   3
Atom  50H    basis set group =>   3
Atom  51H    basis set group =>   3
Atom  52H    basis set group =>   3
Atom  53H    basis set group =>   3
Atom  54H    basis set group =>   3
Atom  55H    basis set group =>   3
Atom  56H    basis set group =>   3
Atom  57H    basis set group =>   3
Atom  58H    basis set group =>   3
Atom  59H    basis set group =>   3
Atom  60H    basis set group =>   3
Atom  61H    basis set group =>   3
Atom  62H    basis set group =>   3
Atom  63H    basis set group =>   3
Atom  64H    basis set group =>   3
Atom  65H    basis set group =>   3
Atom  66H    basis set group =>   3
Atom  67H    basis set group =>   3
Atom  68H    basis set group =>   3
Atom  69H    basis set group =>   3
Atom  70H    basis set group =>   3
Atom  71H    basis set group =>   3
Atom  72H    basis set group =>   3
Atom  73H    basis set group =>   3
Atom  74H    basis set group =>   3
Atom  75H    basis set group =>   3
Atom  76H    basis set group =>   3
Atom  77H    basis set group =>   3
Atom  78H    basis set group =>   3
Atom  79H    basis set group =>   3
Atom  80H    basis set group =>   3
Atom  81H    basis set group =>   3
--------------------------------------------------------------------------
WARNING: There is at least one non-excluded one OpenFabrics device found,
but there are no active ports detected (or Open MPI was unable to use
them).  This is most certainly not what you wanted.  Check your
cables, subnet manager configuration, etc.  The openib BTL will be
ignored for this job.

  Local host: c03b01n02
--------------------------------------------------------------------------
--------------------------------------------------------------------------
WARNING: There was an error initializing an OpenFabrics device.

  Local host:   c03b01n02
  Local device: mlx5_0
--------------------------------------------------------------------------
[c03b01n02:3015181] 6 more processes have sent help message help-mpi-btl-openib.txt / no active ports found
[c03b01n02:3015181] Set MCA parameter "orte_base_help_aggregate" to 0 to see all help / error messages
[c03b01n02:3015181] 52 more processes have sent help message help-mpi-btl-openib.txt / error in device init


           ************************************************************
           *        Program running with 60 parallel MPI-processes    *
           *              working on a common directory               *
           ************************************************************
------------------------------------------------------------------------------
                             ORCA STARTUP CALCULATIONS
                           -- RI-GTO INTEGRALS CHOSEN --
------------------------------------------------------------------------------
------------------------------------------------------------------------------
                   ___                                                        
                  /   \      - P O W E R E D   B Y -                         
                 /     \                                                     
                 |  |  |   _    _      __       _____    __    __             
                 |  |  |  | |  | |    /  \     |  _  \  |  |  /  |          
                  \  \/   | |  | |   /    \    | | | |  |  | /  /          
                 / \  \   | |__| |  /  /\  \   | |_| |  |  |/  /          
                |  |  |   |  __  | /  /__\  \  |    /   |      \           
                |  |  |   | |  | | |   __   |  |    \   |  |\   \          
                \     /   | |  | | |  |  |  |  | |\  \  |  | \   \       
                 \___/    |_|  |_| |__|  |__|  |_| \__\ |__|  \__/        
                                                                              
                      - O R C A' S   B I G   F R I E N D -                    
                                      &                                       
                       - I N T E G R A L  F E E D E R -                       
                                                                              
 v1 FN, 2020, v2 2021, v3 2022-2024                                           
------------------------------------------------------------------------------


----------------------
SHARK INTEGRAL PACKAGE
----------------------

Number of atoms                             ...     82
Number of basis functions                   ...   2072
Number of shells                            ...    744
Maximum angular momentum                    ...      3
Integral batch strategy                     ... SHARK/LIBINT Hybrid
RI-J (if used) integral strategy            ... SPLIT-RIJ (Revised 2003 algorithm where possible)
Printlevel                                  ...      1
Contraction scheme used                     ... SEGMENTED contraction
Prescreening option                         ... SCHWARTZ
   Thresh                                   ... 1.000e-10
   Tcut                                     ... 1.000e-11
   Tpresel                                  ... 1.000e-11 
Coulomb Range Separation                    ... NOT USED
Exchange Range Separation                   ... NOT USED
Multipole approximations                    ... NOT USED
Finite Nucleus Model                        ... NOT USED
CABS basis                                  ... NOT available
Auxiliary Coulomb fitting basis             ... AVAILABLE
   # of basis functions in Aux-J            ...  10268
   # of shells in Aux-J                     ...   2940
   Maximum angular momentum in Aux-J        ...      4
Auxiliary J/K fitting basis                 ... AVAILABLE
   # of basis functions in Aux-JK           ...  10268
   # of shells in Aux-JK                    ...   2940
   Maximum angular momentum in Aux-JK       ...      4
Auxiliary Correlation fitting basis         ... AVAILABLE
   # of basis functions in Aux-C            ...  10268
   # of shells in Aux-C                     ...   2940
   Maximum angular momentum in Aux-C        ...      4
Auxiliary 'external' fitting basis          ... NOT available

Checking pre-screening integrals            ... done (  0.1 sec) Dimension = 744
   => SHARK Basis and OBASIS are compatible. Storing Pre-screening
Shell pair information
Shell pair cut-off parameter TPreSel        ...   1.0e-11
Total number of shell pairs                 ...    277140
Shell pairs after pre-screening             ...    158175
Total number of primitive shell pairs       ...    823733
Primitive shell pairs kept                  ...    290675
          la=0 lb=0:  30037 shell pairs
          la=1 lb=0:  52451 shell pairs
          la=1 lb=1:  21383 shell pairs
          la=2 lb=0:  20771 shell pairs
          la=2 lb=1:  15747 shell pairs
          la=2 lb=2:   2811 shell pairs
          la=3 lb=0:   7207 shell pairs
          la=3 lb=1:   5411 shell pairs
          la=3 lb=2:   1966 shell pairs
          la=3 lb=3:    391 shell pairs

Checking whether 4 symmetric matrices of dimension 2072 fit in memory
:Max Core in MB      =   5000.00
 MB in use           =    194.99
 MB left             =   4805.01
 MB needed           =     65.54
 Data fit in memory  = YES
Calculating RI/J V-Matrix + Cholesky decomp.... done (  8.5 sec)
Calculating RI/JK V-Matrix + Cholesky decomp.... done (  4.0 sec)
Calculating RI/C V-Matrix + Cholesky decomp.... done (  3.9 sec)
Calculating Nuclear repulsion               ... done (  0.0 sec) ENN=   5920.021455214021 Eh

Diagonalization of the overlap matrix:
Smallest eigenvalue                        ... 5.293e-06
Time for diagonalization                   ...    4.051 sec
Threshold for overlap eigenvalues          ... 1.000e-07
Number of eigenvalues below threshold      ... 0
Time for construction of square roots      ...    0.739 sec
Total time needed                          ...    4.895 sec

-------------------
DFT GRID GENERATION
-------------------

General Integration Accuracy     IntAcc      ... 4.388
Radial Grid Type                 RadialGrid  ... OptM3 with GC (2021)
Angular Grid (max. ang.)         AngularGrid ... 4 (Lebedev-302)
Angular grid pruning method      GridPruning ... 4 (adaptive)
Weight generation scheme         WeightScheme... mBecke (2022)
Basis function cutoff            BFCut       ... 1.0000e-10
Integration weight cutoff        WCut        ... 1.0000e-14
Partially contracted basis set               ... off
Rotationally invariant grid construction     ... off
Angular grids for H and He will be reduced by one unit
Diffuse basis detected: some atoms will have their outermost
                        angular grid increased by 1.

Total number of grid points                  ...   375987
Total number of batches                      ...     5918
Average number of points per batch           ...       63
Average number of grid points per atom       ...     4585
Grids setup in   3.4 sec
Initializing property integral containers    ... done (  0.1 sec)

SHARK setup successfully completed in  38.6 seconds

Maximum memory used throughout the entire STARTUP-calculation: 267.2 MB
--------------------------------------------------------------------------
WARNING: There was an error initializing an OpenFabrics device.

  Local host:   c03b01n02
  Local device: mlx5_0
--------------------------------------------------------------------------
--------------------------------------------------------------------------
WARNING: There is at least one non-excluded one OpenFabrics device found,
but there are no active ports detected (or Open MPI was unable to use
them).  This is most certainly not what you wanted.  Check your
cables, subnet manager configuration, etc.  The openib BTL will be
ignored for this job.

  Local host: c03b01n02
--------------------------------------------------------------------------


           ************************************************************
           *        Program running with 60 parallel MPI-processes    *
           *              working on a common directory               *
           ************************************************************
-------------------------------------------------------------------------------
                                 ORCA GUESS
                   Start orbitals & Density for SCF / CASSCF
-------------------------------------------------------------------------------

------------
SCF SETTINGS
------------
Hamiltonian:
 Density Functional     Method          .... DFT(GTOs)
 Exchange Functional    Exchange        .... TPSS
 Correlation Functional Correlation     .... TPSS
 LDA part of GGA corr.  LDAOpt          .... PW91-LDA
 Gradients option       PostSCFGGA      .... off
   NL short-range parameter             ....  5.000000
 RI-approximation to the Coulomb term is turned on
   Number of AuxJ basis functions       .... 10268


General Settings:
 Integral files         IntName         .... nmr-conf-8
 Hartree-Fock type      HFTyp           .... RHF
 Total Charge           Charge          ....    0
 Multiplicity           Mult            ....    1
 Number of Electrons    NEL             ....  314
 Basis Dimension        Dim             .... 2072
 Nuclear Repulsion      ENuc            ....   5920.0214552140 Eh

Convergence Acceleration:
 AO-DIIS                CNVDIIS         .... on
   Start iteration      DIISMaxIt       ....    12
   Startup error        DIISStart       ....  0.200000
   # of expansion vecs  DIISMaxEq       ....     5
   Bias factor          DIISBfac        ....   1.050
   Max. coefficient     DIISMaxC        ....  10.000
 MO-DIIS                CNVKDIIS        .... off
 Trust-Rad. Augm. Hess. CNVTRAH         .... auto
   Auto Start mean grad. ratio tolernc. ....  1.125000
   Auto Start start iteration           ....    50
   Auto Start num. interpolation iter.  ....    10
   Max. Number of Micro iterations      ....    24
   Max. Number of Macro iterations      .... Maxiter - #DIIS iter
   Number of Davidson start vectors     ....     2
   Converg. threshold    (grad. norm)   ....   5.000e-05
   Grad. Scal. Fac. for Micro threshold ....   0.100
   Minimum threshold for Micro iter.    ....   1.000e-02
   NR start threshold (gradient norm)   ....   1.000e-04
   Initial trust radius                 ....   0.400
   Minimum AH scaling param. (alpha)    ....   1.000
   Maximum AH scaling param. (alpha)    .... 1000.000
   Quad. conv. algorithm                .... NR
   White noise on init. David. guess    .... on
   Maximum white noise                  ....   0.010
   Pseudo random numbers                .... off
   Inactive MOs                         .... canonical
   Orbital update algorithm             .... Taylor
   Preconditioner                       .... Diag
   Full preconditioner red. dimension   ....   250
 SOSCF                 CNVSOSCF           .... on
   Start iteration     SOSCFMaxIt         ....   150
   Startup grad/error  SOSCFStart         ....  0.003300
   Hessian update      SOSCFHessUp        .... L-BFGS
   Autom. constraints  SOSCFAutoConstrain .... off
 Level Shifting         CNVShift        .... on
   Level shift para.    LevelShift      ....    0.2500
   Turn off err/grad.   ShiftErr        ....    0.0010
 Zerner damping         CNVZerner       .... off
 Static damping         CNVDamp         .... on
   Fraction old density DampFac         ....    0.7000
   Max. Damping (<1)    DampMax         ....    0.9800
   Min. Damping (>=0)   DampMin         ....    0.0000
   Turn off err/grad.   DampErr         ....    0.1000

SCF Procedure:
 Maximum # iterations   MaxIter         ....   125
 SCF integral mode      SCFMode         .... Direct
   Integral package                     .... SHARK and LIBINT hybrid scheme
 Reset frequency        DirectResetFreq ....    20
 Integral Threshold     Thresh          ....  1.000e-10 Eh
 Primitive CutOff       TCut            ....  1.000e-11 Eh

Convergence Tolerance:
 Convergence Check Mode ConvCheckMode   .... Total+1el-Energy
 Convergence forced     ConvForced      .... 0
 Energy Change          TolE            ....  1.000e-06 Eh
 1-El. energy change                    ....  1.000e-03 Eh
 Orbital Gradient       TolG            ....  5.000e-05
 Orbital Rotation angle TolX            ....  5.000e-05
 DIIS Error             TolErr          ....  1.000e-06

------------------------------
INITIAL GUESS: MODEL POTENTIAL
------------------------------
Loading Hartree-Fock densities                     ... done
Calculating cut-offs                               ... done
Initializing the effective Hamiltonian             ... done
Setting up the integral package (SHARK)            ... done
Starting the Coulomb interaction                   ... done (   2.0 sec)
Making the grid                                    ... [c03b01n02:3015589] 49 more processes have sent help message help-mpi-btl-openib.txt / error in device init
[c03b01n02:3015589] Set MCA parameter "orte_base_help_aggregate" to 0 to see all help / error messages
[c03b01n02:3015589] 9 more processes have sent help message help-mpi-btl-openib.txt / no active ports found
done (   0.5 sec)
Mapping shells                                     ... done
Starting the XC term evaluation                    ... done (   0.3 sec)
  promolecular density results
     # of electrons  =    313.967867194
     EX              =   -260.375055037
     EC              =    -10.669246176
     EX+EC           =   -271.044301213
Transforming the Hamiltonian                       ... done (   0.3 sec)
Diagonalizing the Hamiltonian                      ... done (   0.7 sec)
Back transforming the eigenvectors                 ... done (   0.2 sec)
Now organizing SCF variables                       ... done
                      ------------------
                      INITIAL GUESS DONE (   5.0 sec)
                      ------------------
             **** ENERGY FILE WAS UPDATED (nmr-conf-8.en.tmp) ****
Finished Guess after   9.2 sec
Maximum memory used throughout the entire GUESS-calculation: 300.4 MB
--------------------------------------------------------------------------
WARNING: There was an error initializing an OpenFabrics device.

  Local host:   c03b01n02
  Local device: mlx5_0
--------------------------------------------------------------------------
--------------------------------------------------------------------------
WARNING: There is at least one non-excluded one OpenFabrics device found,
but there are no active ports detected (or Open MPI was unable to use
them).  This is most certainly not what you wanted.  Check your
cables, subnet manager configuration, etc.  The openib BTL will be
ignored for this job.

  Local host: c03b01n02
--------------------------------------------------------------------------


           ************************************************************
           *        Program running with 60 parallel MPI-processes    *
           *              working on a common directory               *
           ************************************************************

-------------------------------------------------------------------------------------------
                                      ORCA LEAN-SCF
                              memory conserving SCF solver
-------------------------------------------------------------------------------------------

--------------------
CPCM SOLVATION MODEL
--------------------
CPCM parameters:
  Epsilon                                         ...      33.4280
  Refrac                                          ...       1.3288
  Rsolv                                           ...       1.3000
  Surface type                                    ... GAUSSIAN VDW
  Discretization scheme                           ... Constant charge density
    Threshold for H atoms                         ...       5.0000 (charges/Ang^2)
    Threshold for non-H atoms                     ...       5.0000 (charges/Ang^2)
  Epsilon function type                           ...         CPCM
Solvent:                                          ... METHANOL
Radii:
  Scheme                                          ... Element-dependent radii
  Radius for C  used is    3.8550 Bohr (=   2.0400 Ang.)
  Radius for O  used is    3.4469 Bohr (=   1.8240 Ang.)
  Radius for H  used is    2.4944 Bohr (=   1.3200 Ang.)
Calculating surface                               ...        done! (  0.2s)
Cavity surface points                             ...         5782
Cavity Volume                                     ...    4461.2815
Cavity Surface-area                               ...    1925.8646
Calculating surface distance matrix               ...        done! (  0.3s)
Performing Cholesky decomposition & store         ...        done! (  0.6s)
Overall time for CPCM initialization              ...                 1.2s

[c03b01n02:3016118] 54 more processes have sent help message help-mpi-btl-openib.txt / error in device init
[c03b01n02:3016118] Set MCA parameter "orte_base_help_aggregate" to 0 to see all help / error messages
[c03b01n02:3016118] 4 more processes have sent help message help-mpi-btl-openib.txt / no active ports found
----------------------------------------D-I-I-S--------------------------------------------
Iteration    Energy (Eh)           Delta-E    RMSDP     MaxDP     DIISErr   Damp  Time(sec)
-------------------------------------------------------------------------------------------
               ***  Starting incremental Fock matrix formation  ***
    1    -2032.9776559322062894     0.00e+00  8.67e-03  3.05e-01  2.38e-01  0.700  11.6
    2    -2033.3986507072977474    -4.21e-01  7.33e-03  2.51e-01  8.16e-02  0.700  18.7
                               ***Turning on AO-DIIS***
    3    -2033.5534197305869384    -1.55e-01  3.12e-03  8.55e-02  2.37e-02  0.700   7.1
    4    -2033.6473882445870913    -9.40e-02  5.39e-03  1.03e-01  1.15e-02  0.000   8.7
    5    -2033.8566174681182019    -2.09e-01  1.62e-03  5.84e-02  5.13e-03  0.000   8.7
                              *** Initializing SOSCF ***
---------------------------------------S-O-S-C-F--------------------------------------
Iteration    Energy (Eh)           Delta-E    RMSDP     MaxDP     MaxGrad    Time(sec)
--------------------------------------------------------------------------------------
    6    -2033.8579884630289598    -1.37e-03  5.02e-04  1.73e-02  1.82e-03     8.4
               *** Restarting incremental Fock matrix formation ***
    7    -2033.8581043163212598    -1.16e-04  3.97e-04  1.12e-02  1.60e-04     7.6
    8    -2033.8580757249355884     2.86e-05  8.84e-05  2.36e-03  6.28e-04     6.4
    9    -2033.8581196380646361    -4.39e-05  7.95e-05  2.19e-03  1.20e-04     6.8
   10    -2033.8581186477722440     9.90e-07  3.14e-05  1.38e-03  1.44e-04     8.5
                 **** Energy Check signals convergence ****

               *****************************************************
               *                     SUCCESS                       *
               *           SCF CONVERGED AFTER  10 CYCLES          *
               *****************************************************

             **** ENERGY FILE WAS UPDATED (nmr-conf-8.en.tmp) ****

----------------
TOTAL SCF ENERGY
----------------

Total Energy       :      -2033.85812000979968 Eh          -55344.09308 eV

Components:
Nuclear Repulsion  :       5920.02145521402053 Eh          161091.97355 eV
Electronic Energy  :      -7953.83868493931459 Eh         -216434.95396 eV
One Electron Energy:     -14568.29668703705102 Eh         -396423.50664 eV
Two Electron Energy:       6614.45800209773643 Eh          179988.55268 eV
CPCM Dielectric    :         -0.04089028450520 Eh              -1.11268 eV

Virial components:
Potential Energy   :      -4061.58275157994194 Eh         -110521.28546 eV
Kinetic Energy     :       2027.72463157014249 Eh           55177.19238 eV
Virial Ratio       :          2.00302481330264

DFT components:
N(Alpha)           :      157.000849281282 electrons
N(Beta)            :      157.000849281282 electrons
N(Total)           :      314.001698562563 electrons
E(X)               :     -268.194553252071 Eh       
E(C)               :      -10.626480508226 Eh       
E(XC)              :     -278.821033760298 Eh       

CPCM Solvation Model Properties:
Surface-charge          :         -0.04233181648125
Corrected charge        :          0.00000000000000
Outlying charge corr.   :          0.00007897854305 Eh               0.00215 eV
Free-energy (cav+disp)  :  This term is not implemented in the current solvation scheme

---------------
SCF CONVERGENCE
---------------

  Last Energy change         ...   -9.9029e-07  Tolerance :   1.0000e-06
  Last MAX-Density change    ...    1.3761e-03  Tolerance :   1.0000e-05
  Last RMS-Density change    ...    3.1397e-05  Tolerance :   1.0000e-06
  Last DIIS Error            ...    1.8242e-03  Tolerance :   1.0000e-06
  Last Orbital Gradient      ...    1.4362e-04  Tolerance :   5.0000e-05
  Last Orbital Rotation      ...    2.1738e-04  Tolerance :   5.0000e-05


----------------
ORBITAL ENERGIES
----------------

  NO   OCC          E(Eh)            E(eV) 
   0   2.0000     -18.915413      -514.7146 
   1   2.0000     -18.914310      -514.6845 
   2   2.0000     -18.913687      -514.6676 
   3   2.0000     -18.910676      -514.5857 
   4   2.0000     -18.908974      -514.5393 
   5   2.0000     -18.908287      -514.5206 
   6   2.0000     -18.907035      -514.4866 
   7   2.0000     -18.888640      -513.9860 
   8   2.0000     -18.879587      -513.7397 
   9   2.0000     -18.879140      -513.7275 
  10   2.0000     -18.866271      -513.3773 
  11   2.0000     -10.042029      -273.2575 
  12   2.0000     -10.041430      -273.2412 
  13   2.0000     -10.040649      -273.2199 
  14   2.0000     -10.040561      -273.2176 
  15   2.0000     -10.039750      -273.1955 
  16   2.0000     -10.039205      -273.1807 
  17   2.0000     -10.039118      -273.1783 
  18   2.0000     -10.037920      -273.1457 
  19   2.0000     -10.033799      -273.0335 
  20   2.0000     -10.031587      -272.9734 
  21   2.0000     -10.030847      -272.9532 
  22   2.0000     -10.030761      -272.9509 
  23   2.0000     -10.030334      -272.9393 
  24   2.0000     -10.029646      -272.9205 
  25   2.0000     -10.028646      -272.8933 
  26   2.0000     -10.019826      -272.6533 
  27   2.0000      -9.985270      -271.7130 
  28   2.0000      -9.984932      -271.7038 
  29   2.0000      -9.982549      -271.6390 
  30   2.0000      -9.981579      -271.6126 
  31   2.0000      -9.980076      -271.5717 
  32   2.0000      -9.979516      -271.5564 
  33   2.0000      -9.979508      -271.5562 
  34   2.0000      -9.979188      -271.5475 
  35   2.0000      -9.978754      -271.5357 
  36   2.0000      -9.977817      -271.5102 
  37   2.0000      -9.977562      -271.5033 
  38   2.0000      -9.976871      -271.4845 
  39   2.0000      -9.974417      -271.4177 
  40   2.0000      -9.973041      -271.3802 
  41   2.0000      -9.972963      -271.3781 
  42   2.0000      -1.015878       -27.6434 
  43   2.0000      -1.009796       -27.4779 
  44   2.0000      -1.009630       -27.4734 
  45   2.0000      -1.000065       -27.2131 
  46   2.0000      -0.990466       -26.9520 
  47   2.0000      -0.984271       -26.7834 
  48   2.0000      -0.984145       -26.7799 
  49   2.0000      -0.967024       -26.3141 
  50   2.0000      -0.960930       -26.1482 
  51   2.0000      -0.955558       -26.0021 
  52   2.0000      -0.946748       -25.7623 
  53   2.0000      -0.799266       -21.7491 
  54   2.0000      -0.794294       -21.6138 
  55   2.0000      -0.792673       -21.5697 
  56   2.0000      -0.759158       -20.6577 
  57   2.0000      -0.731268       -19.8988 
  58   2.0000      -0.716378       -19.4936 
  59   2.0000      -0.701841       -19.0981 
  60   2.0000      -0.698910       -19.0183 
  61   2.0000      -0.696354       -18.9488 
  62   2.0000      -0.695311       -18.9204 
  63   2.0000      -0.682591       -18.5742 
  64   2.0000      -0.669371       -18.2145 
  65   2.0000      -0.649140       -17.6640 
  66   2.0000      -0.646395       -17.5893 
  67   2.0000      -0.644869       -17.5478 
  68   2.0000      -0.640766       -17.4361 
  69   2.0000      -0.617624       -16.8064 
  70   2.0000      -0.613802       -16.7024 
  71   2.0000      -0.610723       -16.6186 
  72   2.0000      -0.576740       -15.6939 
  73   2.0000      -0.564569       -15.3627 
  74   2.0000      -0.557440       -15.1687 
  75   2.0000      -0.557113       -15.1598 
  76   2.0000      -0.544500       -14.8166 
  77   2.0000      -0.541012       -14.7217 
  78   2.0000      -0.538138       -14.6435 
  79   2.0000      -0.532614       -14.4932 
  80   2.0000      -0.509604       -13.8670 
  81   2.0000      -0.508240       -13.8299 
  82   2.0000      -0.501708       -13.6522 
  83   2.0000      -0.496475       -13.5098 
  84   2.0000      -0.483520       -13.1573 
  85   2.0000      -0.480563       -13.0768 
  86   2.0000      -0.478962       -13.0332 
  87   2.0000      -0.475529       -12.9398 
  88   2.0000      -0.467254       -12.7146 
  89   2.0000      -0.458254       -12.4697 
  90   2.0000      -0.457067       -12.4374 
  91   2.0000      -0.452005       -12.2997 
  92   2.0000      -0.448415       -12.2020 
  93   2.0000      -0.443734       -12.0746 
  94   2.0000      -0.441864       -12.0237 
  95   2.0000      -0.433782       -11.8038 
  96   2.0000      -0.427178       -11.6241 
  97   2.0000      -0.426271       -11.5994 
  98   2.0000      -0.423626       -11.5275 
  99   2.0000      -0.422517       -11.4973 
 100   2.0000      -0.418131       -11.3779 
 101   2.0000      -0.410310       -11.1651 
 102   2.0000      -0.403795       -10.9878 
 103   2.0000      -0.400974       -10.9111 
 104   2.0000      -0.399537       -10.8719 
 105   2.0000      -0.398073       -10.8321 
 106   2.0000      -0.393525       -10.7083 
 107   2.0000      -0.389774       -10.6063 
 108   2.0000      -0.385707       -10.4956 
 109   2.0000      -0.385284       -10.4841 
 110   2.0000      -0.382224       -10.4008 
 111   2.0000      -0.379067       -10.3149 
 112   2.0000      -0.377606       -10.2752 
 113   2.0000      -0.375589       -10.2203 
 114   2.0000      -0.372411       -10.1338 
 115   2.0000      -0.370463       -10.0808 
 116   2.0000      -0.367415        -9.9979 
 117   2.0000      -0.365020        -9.9327 
[...]
  X           0.8162356    0.5629703    0.1297068
  Y          -0.1799725    0.4611273   -0.8688910
  Z          -0.5489711    0.6858761    0.4777077

 --------------
 Nucleus  73H :
 --------------

Diamagnetic contribution to the shielding tensor (ppm) : 
           188.406        -65.837        -1.394
           167.972        -35.317         1.543
            21.586         14.119       165.427

Paramagnetic contribution to the shielding tensor (ppm): 
          -160.652         68.126         2.346
          -163.856         65.269        -2.972
           -22.086        -16.639      -139.817

Total shielding tensor (ppm): 
            27.753          2.289         0.951
             4.116         29.951        -1.429
            -0.500         -2.520        25.610


 Diagonalized sT*s matrix:
 
 sDSO            93.490          143.945           81.080  iso=     106.172
 sPSO           -69.418         -117.263          -48.520  iso=     -78.400
        ---------------  ---------------  ---------------
 Total           24.072           26.682           32.560  iso=      27.772

 Orientation: 
  X          -0.4828039   -0.6818499   -0.5495280
  Y           0.5045012    0.2963540   -0.8109580
  Z           0.7158065   -0.6687712    0.2009132

 --------------
 Nucleus  74H :
 --------------

Diamagnetic contribution to the shielding tensor (ppm) : 
           184.388        -71.315        10.383
           150.705        -19.153        21.863
           -48.277        105.486       147.692

Paramagnetic contribution to the shielding tensor (ppm): 
          -158.648         67.811       -13.922
          -151.940         47.989       -21.460
            45.570       -103.363      -118.438

Total shielding tensor (ppm): 
            25.741         -3.504        -3.539
            -1.234         28.835         0.403
            -2.706          2.124        29.254


 Diagonalized sT*s matrix:
 
 sDSO           182.996          -12.168          142.098  iso=     104.309
 sPSO          -159.504           39.939         -109.532  iso=     -76.366
        ---------------  ---------------  ---------------
 Total           23.492           27.771           32.567  iso=      27.943

 Orientation: 
  X           0.8754201    0.0412398   -0.4816005
  Y           0.2732693    0.7796176    0.5634894
  Z           0.3987024   -0.6248966    0.6712233

 --------------
 Nucleus  75H :
 --------------

Diamagnetic contribution to the shielding tensor (ppm) : 
            65.666        -25.258        41.202
             0.239         18.388        38.066
            49.434       -156.558       -70.994

Paramagnetic contribution to the shielding tensor (ppm): 
           -23.993         22.116       -43.304
            -5.176          2.328       -41.697
           -51.768        154.129        91.576

Total shielding tensor (ppm): 
            41.673         -3.142        -2.103
            -4.937         20.715        -3.631
            -2.334         -2.429        20.583


 Diagonalized sT*s matrix:
 
 sDSO           -70.816           23.849           60.026  iso=       4.353
 sPSO            87.649           -0.254          -17.484  iso=      23.304
        ---------------  ---------------  ---------------
 Total           16.833           23.595           42.543  iso=      27.657

 Orientation: 
  X           0.1643796    0.0541645   -0.9849089
  Y           0.7248331    0.6705964    0.1578525
  Z           0.6690264   -0.7398423    0.0709722

 --------------
 Nucleus  76H :
 --------------

Diamagnetic contribution to the shielding tensor (ppm) : 
           -48.024        102.296        13.604
           -65.069        118.811        11.715
           -61.996         89.727        34.806

Paramagnetic contribution to the shielding tensor (ppm): 
            82.595        -92.614        -9.017
            75.474        -91.087        -5.724
            68.593        -82.886        -7.843

Total shielding tensor (ppm): 
            34.571          9.682         4.587
            10.405         27.724         5.991
             6.597          6.842        26.963


 Diagonalized sT*s matrix:
 
 sDSO            23.608           42.103           39.882  iso=      35.198
 sPSO            -3.981          -17.957            5.603  iso=      -5.445
        ---------------  ---------------  ---------------
 Total           19.627           24.146           45.485  iso=      29.753

 Orientation: 
  X           0.3976309    0.5546808    0.7309028
  Y          -0.8190114   -0.1445576    0.5552688
  Z           0.4136545   -0.8194097    0.3968094

 --------------
 Nucleus  77H :
 --------------

Diamagnetic contribution to the shielding tensor (ppm) : 
           -56.789         94.051        26.695
           -73.323        125.727        22.992
           -59.397        162.233        29.646

Paramagnetic contribution to the shielding tensor (ppm): 
            77.415        -88.325       -30.199
            79.782        -88.135       -27.024
            55.582       -165.277        -5.093

Total shielding tensor (ppm): 
            20.626          5.726        -3.504
             6.459         37.592        -4.032
            -3.815         -3.044        24.553


 Diagonalized sT*s matrix:
 
 sDSO           -66.174          103.138           61.620  iso=      32.861
 sPSO            83.870          -78.873          -20.809  iso=      -5.271
        ---------------  ---------------  ---------------
 Total           17.696           24.265           40.811  iso=      27.590

 Orientation: 
  X           0.9006571   -0.2840891   -0.3288011
  Y          -0.2119541    0.3733383   -0.9031578
  Z           0.3793313    0.8831262    0.2760360

 --------------
 Nucleus  78H :
 --------------

Diamagnetic contribution to the shielding tensor (ppm) : 
          -110.307         57.458       -62.690
          -138.857         89.981       -56.278
           -81.984        121.394      -131.298

Paramagnetic contribution to the shielding tensor (ppm): 
           134.417        -49.742        57.933
           147.055        -62.969        57.415
            78.918       -119.942       157.897

Total shielding tensor (ppm): 
            24.110          7.716        -4.756
             8.198         27.012         1.137
            -3.066          1.452        26.598


 Diagonalized sT*s matrix:
 
 sDSO           -58.184          -56.437          -37.003  iso=     -50.541
 sPSO            74.248           84.095           71.002  iso=      76.448
        ---------------  ---------------  ---------------
 Total           16.064           27.658           33.999  iso=      25.907

 Orientation: 
  X          -0.7421751   -0.0989423   -0.6628623
  Y           0.5814884    0.3967054   -0.7102789
  Z          -0.3332377    0.9125981    0.2368910

 --------------
 Nucleus  79H :
 --------------

Diamagnetic contribution to the shielding tensor (ppm) : 
          -125.611         53.542       -39.533
          -173.685        105.120       -34.647
            69.592       -108.831       -90.992

Paramagnetic contribution to the shielding tensor (ppm): 
           152.740        -58.459        36.420
           172.284        -74.024        33.950
           -72.302        111.221       117.012

Total shielding tensor (ppm): 
            27.129         -4.916        -3.114
            -1.402         31.097        -0.698
            -2.710          2.390        26.021


 Diagonalized sT*s matrix:
 
 sDSO          -122.574          -32.843           43.934  iso=     -37.161
 sPSO           145.894           60.268          -10.433  iso=      65.243
        ---------------  ---------------  ---------------
 Total           23.320           27.425           33.501  iso=      28.082

 Orientation: 
  X           0.7048576   -0.4999314    0.5032339
  Y           0.2017806   -0.5388134   -0.8179026
  Z           0.6800444    0.6780477   -0.2789103

 --------------
 Nucleus  80H :
 --------------

Diamagnetic contribution to the shielding tensor (ppm) : 
          -146.665         63.118       -18.791
          -170.546         95.406       -19.265
            13.265        -17.041      -114.097

Paramagnetic contribution to the shielding tensor (ppm): 
           173.225        -59.954        17.912
           174.474        -64.324        18.634
           -15.560         14.924       140.094

Total shielding tensor (ppm): 
            26.561          3.163        -0.880
             3.928         31.082        -0.630
            -2.295         -2.117        25.997


 Diagonalized sT*s matrix:
 
 sDSO           -77.796          -76.110          -11.450  iso=     -55.119
 sPSO           102.016          101.989           44.991  iso=      82.999
        ---------------  ---------------  ---------------
 Total           24.220           25.879           33.541  iso=      27.880

 Orientation: 
  X           0.8100804   -0.3187929   -0.4920780
  Y          -0.3404465    0.4275401   -0.8374400
  Z           0.4773530    0.8459199    0.2378099

 --------------
 Nucleus  81H :
 --------------

Diamagnetic contribution to the shielding tensor (ppm) : 
          -149.776        -32.055        -6.581
          -188.046          9.013       -21.145
           120.369       -128.690      -176.951

Paramagnetic contribution to the shielding tensor (ppm): 
           174.047         30.242         7.005
           187.500         21.409        16.322
          -118.709        125.684       207.231

Total shielding tensor (ppm): 
            24.271         -1.813         0.424
            -0.546         30.422        -4.823
             1.660         -3.006        30.280


 Diagonalized sT*s matrix:
 
 sDSO          -182.371         -157.782           22.439  iso=    -105.905
 sPSO           206.399          184.221           12.067  iso=     134.229
        ---------------  ---------------  ---------------
 Total           24.028           26.439           34.506  iso=      28.324

 Orientation: 
  X           0.9885343   -0.0154245    0.1502065
  Y           0.1170363    0.7068106   -0.6976542
  Z          -0.0954065    0.7072347    0.7005117



--------------------------------
CHEMICAL SHIELDING SUMMARY (ppm)
--------------------------------


  Nucleus  Element    Isotropic     Anisotropy
  -------  -------  ------------   ------------
      0       C           25.182        129.108 
      1       C           44.823        102.357 
      2       C           28.596        119.553 
      3       C           73.884        135.734 
      4       C           42.957        197.683 
      5       C           77.770        143.666 
      6       C          139.148         21.654 
      7       C          135.680         14.158 
      8       C          135.885         22.288 
      9       C          142.243         24.107 
     10       C           46.384        185.525 
     11       C           70.151        154.122 
     12       C           29.601        122.654 
     13       C           32.349        127.849 
     14       C           69.354        141.989 
     15       C           59.314        148.197 
     16       C          114.174         59.035 
     17       C          110.649         62.693 
     23       C           95.123         19.983 
     24       C          103.776         37.069 
     25       C           44.764        169.533 
     26       C          111.342         55.501 
     28       C           74.876        170.728 
     29       C           32.491        116.306 
     30       C           32.302        124.420 
     31       C           69.492        142.962 
     32       C           64.320        162.547 
     33       C          126.238         75.596 
     34       C          126.997         73.060 
     35       C          126.368         72.684 
     41       C          127.068         74.570 
     42       H           25.987          8.661 
     43       H           26.122          6.626 
     44       H           29.021          6.046 
     45       H           29.352          4.201 
     46       H           29.811          7.645 
     47       H           29.646          9.297 
     48       H           29.488          7.531 
     49       H           30.071          7.739 
     50       H           25.849          8.259 
     51       H           25.120          3.759 
     52       H           25.352          5.871 
     53       H           27.512          7.456 
     54       H           27.278          5.699 
     55       H           28.095          5.752 
     56       H           27.691          6.006 
     57       H           25.876         13.008 
     58       H           26.136          3.611 
     59       H           26.921          7.370 
     60       H           27.263          5.739 
     61       H           27.647          6.692 
     62       H           29.114         19.707 
     63       H           25.559          8.534 
     64       H           24.893          2.861 
     65       H           25.152          6.196 
     66       H           27.999          6.353 
     67       H           27.938          8.980 
     68       H           27.508          9.317 
     69       H           27.810          9.617 
     70       H           28.574          5.414 
     71       H           28.036          8.902 
     72       H           28.221          9.930 
     73       H           27.772          7.183 
     74       H           27.943          6.935 
     75       H           27.657         22.329 
     76       H           29.753         23.599 
     77       H           27.590         19.831 
     78       H           25.907         12.138 
     79       H           28.082          8.128 
     80       H           27.880          8.491 
     81       H           28.324          9.273 


NMR shielding tensor and spin rotation calculation done in   2.5 sec 
[c03b01n02:3017548] 50 more processes have sent help message help-mpi-btl-openib.txt / error in device init
[c03b01n02:3017548] Set MCA parameter "orte_base_help_aggregate" to 0 to see all help / error messages
[c03b01n02:3017548] 8 more processes have sent help message help-mpi-btl-openib.txt / no active ports found

Maximum memory used throughout the entire PROP-calculation: 376.1 MB
--------------------------------------------------------------------------
WARNING: There was an error initializing an OpenFabrics device.

  Local host:   c03b01n02
  Local device: mlx5_0
--------------------------------------------------------------------------
--------------------------------------------------------------------------
WARNING: There is at least one non-excluded one OpenFabrics device found,
but there are no active ports detected (or Open MPI was unable to use
them).  This is most certainly not what you wanted.  Check your
cables, subnet manager configuration, etc.  The openib BTL will be
ignored for this job.

  Local host: c03b01n02
--------------------------------------------------------------------------
[c03b01n02:3018086] 48 more processes have sent help message help-mpi-btl-openib.txt / error in device init
[c03b01n02:3018086] Set MCA parameter "orte_base_help_aggregate" to 0 to see all help / error messages
[c03b01n02:3018086] 10 more processes have sent help message help-mpi-btl-openib.txt / no active ports found

--------------------------------
SUGGESTED CITATIONS FOR THIS RUN
--------------------------------

Below you find a list of papers that are relevant to this ORCA run
We neither can nor want to force you to cite these papers, but we appreciate if you do
You receive ORCA, which is the product of decades of hard work by many enthusiastic individuals, for free
The only thing we kindly ask in return is that you cite our papers,
We deeply appreciate it, if you show your appreciation for ORCA by not just citing the generic ORCA reference.

Please note that relegating all ORCA citations to the supporting information does *not* help us.
SI sections are not indexed - citations you put there will not count into any citation statistics
But we need these citations in order to attract the funding resources that allow us to do what we are doing

Therefore, if you are a happy ORCA user, please consider citing a few of the papers listed below in the main body of your paper

In addition to the list printed below, the program has created the file nmr-conf-8.bibtex that contains the list in bibtex format
You can import this file easily into all common literature databanks and citation aid programs


List of essential papers. We consider these as the minimum necessary citations

  1. Neese, F.
     Software update: the ORCA program system, version 6.0
     WIRES Comput. Molec. Sci. 2025 15(1), e70019
     doi.org/10.1002/wcms.7019

List of papers to cite with high priority. The work reported in these papers was absolutely
necessary for this run to complete.
Our perspective: the developers of density functionals and basis sets usually get cited in chemistry papers
Good! But without the algorithms to do something with them, the functionals or basis sets would not do anything.
Hence, in our opinion, the algorithm design and method developments papers are equally worthy of getting cited

  1. Neese, F.
     An improvement of the resolution of the identity approximation for the formation of the Coulomb matrix
     J. Comp. Chem. 2003 24(14), 1740-1747
     doi.org/10.1002/jcc.10318
  2. Stoychev, G.L.; Auer, A.A.; Neese, F.
     Automatic Generation of Auxiliary Basis Sets
     J. Theo. Comp. Chem. 2017 13 , 554-562
     doi.org/10.1021/acs.jctc.6b01041
  3. Stoychev, G.L.; Auer, A.A.; Izsak, R.; Neese, F.
     Self-Consistent Field Calculation of Nuclear Magnetic Resonance Chemical Shielding Constants Using Gauge-Including Atomic Orbitals and Approximate Two-Electron Integrals
     J. Chem. Theory Comput. 2018 14(2), 619-637
     doi.org/10.1021/acs.jctc.7b01006
  4. Garcia-Rates, M.; Neese, F.
     Effect of the Solute Cavity on the Solvation Energy and its Derivatives within the Framework of the Gaussian Charge Scheme
     J. Comput. Chem. 2020 41 , 922-939
     doi.org/10.1002/jcc.26139
  5. Neese, F.
     The SHARK Integral Generation and Digestion System
     J. Comp. Chem. 2022 44(3), 381
     doi.org/10.1002/jcc.26942

List of suggested additional citations. These are papers that are important in the 'surrounding' of 
of this run, or papers that preceded the highly important papers. If you like your results we are grateful for a citation.

  1. Neese, F.
     The ORCA program system
     WIRES Comput. Molec. Sci. 2012 2(1), 73-78
     doi.org/10.1002/wcms.81
  2. Neese, F.
     Software update: the ORCA program system, version 4.0
     WIRES Comput. Molec. Sci. 2018 8(1), 1-6
     doi.org/10.1002/wcms.1327
  3. Neese, F.; Wennmohs, F.; Becker, U.; Riplinger, C.
     The ORCA quantum chemistry program package
     J. Chem. Phys. 2020 152(22), 224108
     doi.org/10.1063/5.0004608
  4. Neese, F.
     Software update: The ORCA program system—Version 5.0
     WIRES Comput. Molec. Sci. 2022 12(1), e1606
     doi.org/10.1002/wcms.1606

List of optional additional citations

  1. Neese, F.
     Approximate second-order SCF convergence for spin unrestricted wavefunctions
     Chem. Phys. Lett. 2000 325(1-3), 93-98
     doi.org/10.1016/s0009-2614(00)00662-x

Timings for individual modules:

Sum of individual times          ...      280.720 sec (=   4.679 min)
Startup calculation              ...       78.261 sec (=   1.304 min)  27.9 %
SCF iterations                   ...      128.245 sec (=   2.137 min)  45.7 %
Property integrals               ...       53.488 sec (=   0.891 min)  19.1 %
SCF Response                     ...       14.294 sec (=   0.238 min)   5.1 %
Property calculations            ...        6.433 sec (=   0.107 min)   2.3 %
                             ****ORCA TERMINATED NORMALLY****
TOTAL RUN TIME: 0 days 0 hours 4 minutes 46 seconds 783 msec
