
                                 *****************
                                 * O   R   C   A *
                                 *****************

                                            #,                                       
                                            ###                                      
                                            ####                                     
                                            #####                                    
                                            ######                                   
                                           ########,                                 
                                     ,,################,,,,,                         
                               ,,#################################,,                 
                          ,,##########################################,,             
                       ,#########################################, ''#####,          
                    ,#############################################,,   '####,        
                  ,##################################################,,,,####,       
                ,###########''''           ''''###############################       
              ,#####''   ,,,,##########,,,,          '''####'''          '####       
            ,##' ,,,,###########################,,,                        '##       
           ' ,,###''''                  '''############,,,                           
         ,,##''                                '''############,,,,        ,,,,,,###''
      ,#''                                            '''#######################'''  
     '                                                          ''''####''''         
             ,#######,   #######,   ,#######,      ##                                
            ,#'     '#,  ##    ##  ,#'     '#,    #''#        ,####,    ,#,          
            ##       ##  ##   ,#'  ##            #'  '#       #'       ,# #          
            ##       ##  #######   ##           ,######,      #####,      #          
            '#,     ,#'  ##    ##  '#,     ,#' ,#      #,     #,   #      #          
             '#######'   ##     ##  '#######'  #'      '#     '####' #    #          



                #########################################################
                #                        -***-                          #
                #          Department of theory and spectroscopy        #
                #                                                       #
                #                      Frank Neese                      #
                #                                                       #
                #     Directorship, Architecture, Infrastructure        #
                #                    SHARK, DRIVERS                     #
                #        Core code/Algorithms in most modules           #
                #                                                       #
                #        Max Planck Institute fuer Kohlenforschung      #
                #                Kaiser Wilhelm Platz 1                 #
                #                 D-45470 Muelheim/Ruhr                 #
                #                      Germany                          #
                #                                                       #
                #                  All rights reserved                  #
                #                        -***-                          #
                #########################################################


                         Program Version 6.1.0-f.0  -   RELEASE   -


 With contributions from (in alphabetic order):
[Max-Planck-Institut fuer Kohlenforschung]                               
  Daniel Aravena         : Magnetic Suceptibility                        
  Michael Atanasov       : Ab Initio Ligand Field Theory (pilot matlab implementation)
  Alexander A. Auer      : GIAO ZORA, VPT2 properties, NMR spectrum      
  Ute Becker             : All parallelization in ORCA, NUMFREQ, NUMCALC 
  Giovanni Bistoni       : ED, misc. LED, open-shell LED, HFLD           
  Dmytro Bykov           : pre 5.0 version of the SCF Hessian            
  Marcos Casanova-Páez   : Triplet and SCS-CIS(D). UHF-(DLPNO)-IP/EA/STEOM-CCSD. UHF-CVS-IP/STEOM-CCSD   
  Vijay G. Chilkuri      : MRCI spin determinant printing, contributions to CSF-ICE 
  Pauline Colinet        : FMM embedding                                 
  Dipayan Datta          : RHF DLPNO-CCSD density                        
  Achintya Kumar Dutta   : EOM-CC, STEOM-CC                              
  Nicolas Foglia         : Exact transition moments, OPA infrastructure, MCD improvements    
  Dmitry Ganyushin       : Spin-Orbit,Spin-Spin,Magnetic field MRCI      
  Miquel Garcia-Rates    : C-PCM and meta-GGA Hessian, CCSD/C-PCM, Gaussian charge scheme 
  Tiago L. C. Gouveia    : GS-ROHF, GS-ROCIS                             
  Yang Guo               : DLPNO-NEVPT2, F12-NEVPT2, CIM, IAO-localization        
  Andreas Hansen         : Spin unrestricted coupled pair/coupled cluster methods 
  Ingolf Harden          : AUTO-CI MPn and infrastructure                
  Benjamin Helmich-Paris : MC-RPA, TRAH-(SCF,CASSCF), AVAS, COSX integrals, SCF dyn. polar., MC-PDFT, srDFT 
  Lee Huntington         : MR-EOM, pCC                                   
  Robert Izsak           : Overlap fitted RIJCOSX, COSX-SCS-MP3, EOM     
  Riya Kayal             : Wick's Theorem for AUTO-CI, AUTO-CI UHF-CCSDT 
  Emily Kempfer          : AUTO-CI RHF CISDT and CCSDT, approximate NEVPT4
  Christian Kollmar      : KDIIS, OOCD, Brueckner-CCSD(T), CCSD density, CASPT2, CASPT2-K, improved NEVPT2 
  Axel Koslowski         : Symmetry handling                             
  Simone Kossmann        : meta-GGA functionals, TD-DFT gradient, OOMP2, (MP2 Hessian; deprecated post 5.0) 
  Lucas Lang             : DCDCAS, Hyperfine gauge corrections, ICE-SOC+SSC
  Marvin Lechner         : AUTO-CI (C++ implementation), FIC-MRCC        
  Spencer Leger          : CASSCF response                               
  Dagmar Lenk            : GEPOL surface, SMD, ORCA-2-JSON               
  Dimitrios Liakos       : Extrapolation schemes; Compound Job, Property file
  Dimitrios Manganas     : Further ROCIS development; embedding schemes. LFT, Crystal Embedding 
  Dimitrios Pantazis     : SARC Basis sets                               
  Anastasios Papadopoulos: AUTO-CI, single reference methods and gradients 
  Taras Petrenko         : pre 6.0 DFT Hessian and TD-DFT gradient,  ECA, NRVS 
  Petra Pikulova         : Analytic Raman intensities                    
  Peter Pinski           : DLPNO-MP2, DLPNO-MP2 Gradient                 
  Shashank Vittal Rao    : ES-AILFT, MagRelax                            
  Christoph Reimann      : Effective Core Potentials                     
  Marius Retegan         : Local ZFS, SOC                                
  Christoph Riplinger    : Optimizer, TS searches, QM/MM, DLPNO-CCSD(T), (RO)-DLPNO pert. Triples 
  Michael Roemelt        : Original ROCIS implementation, recursive CI coupling coefficients
  Masaaki Saitow         : Open-shell DLPNO-CCSD energy and density      
  Barbara Sandhoefer     : DKH picture change effects                    
  Yorick L. A. Schmerwitz: GMF and freeze-and-release deltaSCF, NEB S-IDPP initial path                    
  Kantharuban Sivalingam : CASSCF convergence/infrastructure, NEVPT2, NEVPT3, NEVPT4(SD), FIC-MRCI and CEPA variants
  Bernardo de Souza      : ESD, SOC TD-DFT                               
  Georgi L. Stoychev     : AutoAux, RI-MP2 NMR, DLPNO-MP2 response, X2C  
  Van Anh Tran           : RI-MP2 g-tensors                              
  Willem Van den Heuvel  : Paramagnetic NMR                              
  Zikuan Wang            : NOTCH, Electric field optimization            
  Frank Wennmohs         : Technical directorship and infrastructure     
  Hang Xu                : AUTO-CI-Response properties                   
                                                                         
[FACCTs GmbH]                                                            
  Markus Bursch, Nicolas Foglia, Miquel Garcia-Rates, Ingolf Harden, Hagen Neugebauer, Anastasios Papadopoulos, 
  Christoph Riplinger, Bernardo de Souza, Georgi L. Stoychev                                                    
                                                                 
  APM, various basis sets, CI-OPT, improved COSX, DLPNO-Multilevel,           
  DOCKER, DRACO, updates on ESD, Fragmentator, GOAT, IRC, LR-CPCM, L-BFGS, MBIS, meta-GGA TD-DFT gradient, ML-optimized integration grids, 
  MM, NACMEs, nearIR, NEB, NEB-TS, NL-DFT gradient (VV10), 2- and 3-layer-ONIOM, interface openCOSMO-RS, QMMM,   
  Crystal-QMMM, RESP, rigid body optimization, SF, symmetry and pop. for TD-DFT, various functionals, SOLVATOR                                   
                                                                         
[Other institutions]                                                     
  V. Asgeirsson          : NEB                                           
  Christoph Bannwarth    : sTDA-DFT, sTD-DFT, PBEh-3c, B97-3c, D3        
  Giovanni Bistoni       : ETS/NOCV, ADLD/ADEX, COVALED                  
  Martin Brehm           : Molecular dynamics                            
  Ronald Cardenas        : ETS/NOCV                                      
  Martina Colucci        : COVALED                                       
  Sebastian Ehlert       : rSCAN, r2SCAN, r2SCAN-3c, D4, dhf basis sets  
  Marvin Friede          : D4 for Fr, Ra, Ac-Lr                          
  Lars Goerigk           : TD-DFT with DH, B97 family of functionals     
  Stefan Grimme          : VdW corrections, initial TS optimization, DFT functionals, gCP, sTDA/sTD-DF 
  Waldemar Hujo          : DFT-NL                                        
  H. Jonsson             : NEB                                           
  Holger Kruse           : gCP                                           
  Marcel Mueller         : wB97X-3c, vDZP basis set                      
  Hagen Neugebauer       : wr2SCAN, Native XTB                           
  Gianluca Regni         : ADLD/ADEX                                     
  Tobias Risthaus        : pre 6.0 range-separated hybrid DFT and stability analysis
  Lukas Wittmann         : regularized MP2, r2SCAN double-hybrids, wr2SCAN        
                                                                         
We gratefully acknowledge several colleagues who have allowed us to      
interface, adapt or use parts of their codes:                            
  Ed Valeev, F. Pavosevic, A. Kumar             : LibInt (2-el integral package), F12 methods 
  Garnet Chan, S. Sharma, J. Yang, R. Olivares  : DMRG                   
  Ulf Ekstrom                                   : XCFun DFT Library      
  Mihaly Kallay                                 : mrcc  (arbitrary order and MRCC methods)
  Frank Weinhold                                : gennbo (NPA and NBO analysis)           
  Simon Mueller                                 : openCOSMO-RS                            
  Christopher J. Cramer and Donald G. Truhlar   : smd solvation model                     
  S Lehtola, MJT Oliveira, MAL Marques          : LibXC Library                           
  Liviu Ungur et al                             : ANISO software                          


 Your calculation uses the libint2 library for the computation of 2-el integrals
 For citations please refer to: http://libint.valeyev.net

 Your ORCA version has been built with support for libXC version: 7.0.0
 For citations please refer to: https://libxc.gitlab.io

 This ORCA versions uses:
   CBLAS   interface :  Fast vector & matrix operations
   LAPACKE interface :  Fast linear algebra routines
   SCALAPACK package :  Parallel linear algebra routines
   Shared memory     :  Shared parallel matrices
   BLAS/LAPACK       :  OpenBLAS 0.3.29  USE64BITINT DYNAMIC_ARCH NO_AFFINITY Cooperlake SINGLE_THREADED
        Core in use  :  Cooperlake
   Copyright (c) 2011-2014, The OpenBLAS Project


  ***********************************
  * Starting time: Tue Mar  3 21:00:08 2026
  * Host name:     c03b01n04
  * Process ID:    1564095
  * Working dir.:  /lustre1/jiangy/jiangy_liuxy/NMR/B9D7C2-SSSS-NMR/opt_conf
  ***********************************

NOTE: MaxCore=5000 MB was set to SCF,MP2,MDCI,CIPSI,MRCI,RASCI and CIS
      => If you want to overwrite this, your respective input block should be placed after the MaxCore statement


***************************************
The coordinates will be read from file: opt-conf-9.xyz
***************************************



Warning: The global flag for NMR shieldings has been found
         but shieldings for certain elements have also been explicitly requested in the EPRNMR block
         ==>> only the requested shieldings will be calculated

================================================================================

----- Orbital basis set information -----
Your calculation utilizes the basis: pcSseg-2
   F. Jensen, J. Chem. Theory Comput. 11, 132 (2015).

----- AuxJ basis set information -----
Your calculation utilizes the AutoAux generation procedure.
  G. L. Stoychev, A. A. Auer, F. Neese, J. Chem. Theory Comput. 13, 554 (2017)

----- AuxC basis set information -----
Your calculation utilizes the AutoAux generation procedure.
  G. L. Stoychev, A. A. Auer, F. Neese, J. Chem. Theory Comput. 13, 554 (2017)

----- AuxJK basis set information -----
Your calculation utilizes the AutoAux generation procedure.
  G. L. Stoychev, A. A. Auer, F. Neese, J. Chem. Theory Comput. 13, 554 (2017)

----- AuxX basis set information -----
Your calculation utilizes the AutoAux generation procedure.
  G. L. Stoychev, A. A. Auer, F. Neese, J. Chem. Theory Comput. 13, 554 (2017)

================================================================================
                                        WARNINGS
                       Please study these warnings very carefully!
================================================================================


================================================================================
                                       INPUT FILE
================================================================================
NAME = nmr-conf-9.inp
|  1> !TPSS PCSSEG-2 AUTOAUX NMR CPCM(Methanol)
|  2> 
|  3> %pal nprocs 60 end
|  4> %maxcore 5000
|  5> 
|  6> *XYZFILE 0 1 opt-conf-9.xyz
|  7> 
|  8> %EPRNMR
|  9>    NUCLEI = ALL C {SHIFT}
| 10>    NUCLEI = ALL H {SHIFT}
| 11>    TAU DOBSON
| 12> END
| 13> 
| 14> 
| 15>                          ****END OF INPUT****
================================================================================

                       ****************************
                       * Single Point Calculation *
                       ****************************

---------------------------------
CARTESIAN COORDINATES (ANGSTROEM)
---------------------------------
  C     28.924728  -26.451279    1.572052
  C     30.084730  -25.831990    1.101404
  C     30.030195  -25.056076   -0.059228
  C     28.834234  -24.943338   -0.767090
  C     27.690284  -25.593448   -0.314944
  C     27.734402  -26.336082    0.863000
  C     26.404778  -25.550275   -1.100664
  C     26.138909  -26.850880   -1.895929
  C     24.638831  -26.978090   -2.284690
  C     24.103540  -28.416868   -2.179208
  C     24.298018  -29.092752   -0.840726
  C     24.181199  -28.388981    0.363714
  C     24.348092  -29.032590    1.580734
  C     24.612195  -30.409921    1.619791
  C     24.719233  -31.114081    0.435931
  C     24.573706  -30.455189   -0.783482
  C     27.123638  -26.927753   -3.060074
  C     24.263501  -26.358126   -3.635294
  O     31.197255  -24.463657   -0.425325
  O     29.059075  -27.163365    2.726575
  O     31.249568  -25.957514    1.820415
  O     24.774356  -31.048279    2.817032
  O     24.283016  -28.437385    2.807584
  C     32.297265  -26.770216    1.244039
  C     31.997829  -28.269051    1.417525
  C     30.928537  -28.796209    0.463984
  C     33.562707  -26.350103    1.967136
  O     33.864460  -24.975781    1.741277
  C     29.965252  -29.686657    0.939791
  C     28.958676  -30.152092    0.107734
  C     28.901461  -29.725245   -1.223695
  C     29.883658  -28.886816   -1.716571
  C     30.894112  -28.427156   -0.876837
  C     27.895980  -27.799817    3.259048
  C     31.217371  -23.694030   -1.625722
  C     23.961707  -27.049270    2.873100
  O     31.691838  -28.552201    2.776912
  O     26.992956  -28.114669   -3.855194
  O     24.567181  -27.161954   -4.777932
  O     27.967637  -31.011909    0.470887
  O     27.879923  -30.145735   -2.038091
  C     28.034618  -31.624473    1.757242
  H     28.788612  -24.360937   -1.675451
  H     26.841678  -26.835016    1.207873
  H     26.409164  -24.696504   -1.784048
  H     25.573875  -25.399267   -0.408680
  H     26.370324  -27.681353   -1.224676
  H     24.085393  -26.377934   -1.556182
  H     23.032792  -28.389122   -2.414816
  H     24.561994  -29.042994   -2.944731
  H     23.971417  -27.330014    0.349956
  H     24.934566  -32.174396    0.472411
  H     24.671980  -31.018832   -1.704144
  H     26.973176  -26.091562   -3.745778
  H     28.143061  -26.853684   -2.677166
  H     24.739779  -25.373855   -3.729758
  H     23.182934  -26.197274   -3.659106
  H     24.660828  -30.398306    3.526652
  H     32.400149  -26.523534    0.188051
  H     32.933198  -28.799807    1.212496
  H     33.459164  -26.553969    3.037651
  H     34.405525  -26.926723    1.584282
  H     33.057952  -24.474992    1.924929
  H     29.996671  -29.997788    1.971599
  H     29.849834  -28.585589   -2.755562
  H     31.640673  -27.761523   -1.287589
  H     27.144004  -27.057915    3.534488
  H     27.467857  -28.503165    2.543852
  H     28.229649  -28.334305    4.144646
  H     30.529392  -22.847689   -1.562153
  H     32.236736  -23.329454   -1.725818
  H     30.960164  -24.309369   -2.491029
  H     22.980560  -26.856459    2.432735
  H     23.947162  -26.795133    3.929863
  H     24.716446  -26.448488    2.361561
  H     30.885225  -28.053774    2.993453
  H     27.185639  -28.884459   -3.291269
  H     25.402601  -27.635404   -4.608058
  H     27.247563  -30.658234   -1.508747
  H     28.974840  -32.168371    1.874914
  H     27.937249  -30.883311    2.551857
  H     27.197334  -32.314075    1.804205

----------------------------
CARTESIAN COORDINATES (A.U.)
----------------------------
  NO LB      ZA    FRAG     MASS         X           Y           Z
   0 C     6.0000    0    12.011   54.659815  -49.985674    2.970747
   1 C     6.0000    0    12.011   56.851900  -48.815386    2.081352
   2 C     6.0000    0    12.011   56.748845  -47.349122   -0.111924
   3 C     6.0000    0    12.011   54.488806  -47.136077   -1.449590
   4 C     6.0000    0    12.011   52.327053  -48.364607   -0.595157
   5 C     6.0000    0    12.011   52.410424  -49.767983    1.630833
   6 C     6.0000    0    12.011   49.897799  -48.283022   -2.079953
   7 C     6.0000    0    12.011   49.395380  -50.740810   -3.582787
   8 C     6.0000    0    12.011   46.560644  -50.981202   -4.317439
   9 C     6.0000    0    12.011   45.549089  -53.700099   -4.118106
  10 C     6.0000    0    12.011   45.916600  -54.977334   -1.588742
  11 C     6.0000    0    12.011   45.695843  -53.647400    0.687320
  12 C     6.0000    0    12.011   46.011226  -54.863643    2.987154
  13 C     6.0000    0    12.011   46.510307  -57.466423    3.060962
  14 C     6.0000    0    12.011   46.712581  -58.797091    0.823791
  15 C     6.0000    0    12.011   46.437575  -57.551966   -1.480566
  16 C     6.0000    0    12.011   51.256248  -50.886078   -5.782702
  17 C     6.0000    0    12.011   45.851372  -49.809639   -6.869710
  18 O     8.0000    0    15.999   58.954269  -46.229612   -0.803749
  19 O     8.0000    0    15.999   54.913693  -51.331321    5.152480
  20 O     8.0000    0    15.999   59.053125  -49.052593    3.440085
  21 O     8.0000    0    15.999   46.816747  -58.672745    5.323419
  22 O     8.0000    0    15.999   45.888249  -53.738870    5.305565
  23 C     6.0000    0    12.011   61.032986  -50.588377    2.350894
  24 C     6.0000    0    12.011   60.467133  -53.420765    2.678733
  25 C     6.0000    0    12.011   58.446464  -54.416949    0.876803
  26 C     6.0000    0    12.011   63.424325  -49.794479    3.717348
  27 O     8.0000    0    15.999   63.994555  -47.197387    3.290536
  28 C     6.0000    0    12.011   56.626119  -56.099652    1.775949
  29 C     6.0000    0    12.011   54.723966  -56.979195    0.203588
  30 C     6.0000    0    12.011   54.615845  -56.172573   -2.312448
  31 C     6.0000    0    12.011   56.471929  -54.588172   -3.243848
  32 C     6.0000    0    12.011   58.381411  -53.719539   -1.656982
  33 C     6.0000    0    12.011   52.715763  -52.534041    6.158708
  34 C     6.0000    0    12.011   58.992282  -44.775229   -3.072169
  35 C     6.0000    0    12.011   45.281063  -51.115712    5.429372
  36 O     8.0000    0    15.999   59.888895  -53.955841    5.247603
  37 O     8.0000    0    15.999   51.009294  -53.129024   -7.285260
  38 O     8.0000    0    15.999   46.425244  -51.328655   -9.028983
  39 O     8.0000    0    15.999   52.851175  -58.604016    0.889848
  40 O     8.0000    0    15.999   52.685419  -56.967183   -3.851433
  41 C     6.0000    0    12.011   52.977751  -59.761593    3.320707
  42 H     1.0000    0     1.008   54.402592  -46.035500   -3.166144
  43 H     1.0000    0     1.008   50.723419  -50.710831    2.282549
  44 H     1.0000    0     1.008   49.906088  -46.669630   -3.371363
  45 H     1.0000    0     1.008   48.327619  -47.997659   -0.772292
  46 H     1.0000    0     1.008   49.832691  -52.310176   -2.314303
  47 H     1.0000    0     1.008   45.514796  -49.847071   -2.940759
  48 H     1.0000    0     1.008   43.525669  -53.647667   -4.563341
  49 H     1.0000    0     1.008   46.415442  -54.883304   -5.564734
  50 H     1.0000    0     1.008   45.299414  -51.646242    0.661321
  51 H     1.0000    0     1.008   47.119502  -60.800798    0.892727
  52 H     1.0000    0     1.008   46.623285  -58.617097   -3.220365
  53 H     1.0000    0     1.008   50.971916  -49.305907   -7.078495
  54 H     1.0000    0     1.008   53.182678  -50.746108   -5.059111
  55 H     1.0000    0     1.008   46.751407  -47.949638   -7.048221
  56 H     1.0000    0     1.008   43.809396  -49.505673   -6.914708
  57 H     1.0000    0     1.008   46.602211  -57.444474    6.664407
  58 H     1.0000    0     1.008   61.227408  -50.122215    0.355365
  59 H     1.0000    0     1.008   62.234725  -54.423747    2.291286
  60 H     1.0000    0     1.008   63.228656  -50.179729    5.740329
  61 H     1.0000    0     1.008   65.017020  -50.884133    2.993860
  62 H     1.0000    0     1.008   62.470476  -46.251031    3.637589
  63 H     1.0000    0     1.008   56.685494  -56.687604    3.725783
  64 H     1.0000    0     1.008   56.408011  -54.018934   -5.207258
  65 H     1.0000    0     1.008   59.792207  -52.461676   -2.433191
  66 H     1.0000    0     1.008   51.294734  -51.132048    6.679214
  67 H     1.0000    0     1.008   51.906727  -53.863175    4.807184
  68 H     1.0000    0     1.008   53.346306  -53.544077    7.832246
  69 H     1.0000    0     1.008   57.692190  -43.175876   -2.952041
  70 H     1.0000    0     1.008   60.918603  -44.086279   -3.261324
  71 H     1.0000    0     1.008   58.506231  -45.938049   -4.707363
  72 H     1.0000    0     1.008   43.426964  -50.751353    4.597204
  73 H     1.0000    0     1.008   45.253578  -50.635463    7.426364
  74 H     1.0000    0     1.008   46.707314  -49.980400    4.462703
  75 H     1.0000    0     1.008   58.364618  -53.013950    5.656806
  76 H     1.0000    0     1.008   51.373413  -54.583716   -6.219597
  77 H     1.0000    0     1.008   48.003959  -52.223344   -8.707967
  78 H     1.0000    0     1.008   51.490431  -57.935666   -2.851118
  79 H     1.0000    0     1.008   54.754513  -60.789412    3.543073
  80 H     1.0000    0     1.008   52.793749  -58.361001    4.822311
  81 H     1.0000    0     1.008   51.395513  -61.064752    3.409452

--------------------------------
INTERNAL COORDINATES (ANGSTROEM)
--------------------------------
 C      0   0   0     0.000000000000     0.00000000     0.00000000
 C      1   0   0     1.396650372018     0.00000000     0.00000000
 C      2   1   0     1.397169443765   119.58806578     0.00000000
 C      3   2   1     1.394310501463   120.00746490   357.66505304
 C      4   3   2     1.391295136389   120.16458863     0.51140277
 C      1   2   3     1.390288268216   120.16550251     2.33786799
 C      5   4   3     1.507231135565   121.22949390   183.39161081
 C      7   5   4     1.547484022012   112.97688884   102.06748397
 C      8   7   5     1.554847402453   111.28525234   160.59797482
 C      9   8   7     1.538748373236   113.26478918   218.81205332
 C     10   9   8     1.512010203388   115.71577307    54.53457968
 C     11  10   9     1.399862747076   121.74832587    37.18411621
 C     12  11  10     1.386802695354   120.77705443   179.23052007
 C     13  12  11     1.402967400158   120.17880074   358.77073923
 C     14  13  12     1.381601537202   119.41193872     0.73288159
 C     11  10   9     1.391227573925   119.97827757   215.82727288
 C      8   7   5     1.526707068070   108.86678273   288.76738516
 C      9   8   7     1.532762068707   115.05391974    90.08367640
 O      3   2   1     1.359049852443   115.61576680   178.39430125
 O      1   2   3     1.363099185131   115.79790337   181.47613875
 O      2   1   3     1.374619826475   119.14714595   177.54267319
 O     14  13  12     1.366448726162   120.35533843   180.14375514
 O     13  12  11     1.365160981228   125.49143332   178.57130521
 C     21   2   1     1.445808871912   117.18503904   109.89975350
 C     24  21   2     1.538266822512   111.20351832   282.69320243
 C     25  24  21     1.526604183308   113.72609140    75.75723291
 C     24  21   2     1.516808318817   105.00012717   161.07446389
 O     27  24  21     1.425071178619   111.60513062   297.93886641
 C     26  25  24     1.395423860108   119.39955372   221.53028921
 C     29  26  25     1.386414163839   120.71553733   178.10636994
 C     30  29  26     1.399347459286   119.88787009   359.85257807
 C     31  30  29     1.382245048950   119.68555435     2.79960136
 C     26  25  24     1.391110076463   121.85413748    42.34472552
 C     20   1   2     1.428771326300   117.91276354   179.11782793
 C     19   3   2     1.426072002142   118.30162868   177.97257159
 C     23  13  12     1.426322993075   118.44630394     2.84832524
 O     25  24  21     1.421878583923   110.10533957   308.87403332
 O     17   8   7     1.434594601287   113.92418881   178.58509754
 O     18   9   8     1.429679465614   115.13905136    80.24217038
 O     30  29  26     1.361368538588   125.48318336   180.48058685
 O     31  30  29     1.372439768264   120.10384878   182.31695385
 C     40  30  29     1.426334290266   118.53109374   351.99134796
 H      4   3   2     1.079996247637   120.45317751   181.17919651
 H      6   1   2     1.079272442310   120.45851596   178.31312916
 H      7   5   4     1.093598561666   110.16344135   339.10239803
 H      7   5   4     1.091808706333   108.82284840   222.17694197
 H      8   7   5     1.092620255013   106.66087108    43.98810913
 H      9   8   7     1.094169130041   106.05982931   335.79296714
 H     10   9   8     1.096713582638   107.53305789   176.73331795
 H     10   9   8     1.090063436478   110.03698693   291.65610866
 H     12  11  10     1.079633590315   119.89219943   358.43391610
 H     15  14  13     1.082575098892   119.06003371   179.29428193
 H     16  11  10     1.083960130150   119.48805180     1.53621995
 H     17   8   7     1.091807591249   110.57574310   297.63408450
 H     17   8   7     1.091479244636   109.35981871    55.55329499
 H     18   9   8     1.097520769943   109.40941748   315.67549132
 H     18   9   8     1.092733299467   108.71654175   198.93945107
 H     22  14  13     0.968975864152   108.32357151     0.82208946
 H     24  21   2     1.089288404969   109.12389251    44.69981970
 H     25  24  21     1.094830456134   106.55464064   195.00059148
 H     27  24  21     1.094662031316   109.61573823    61.03645414
 H     27  24  21     1.090600405023   109.32582804   179.89625338
 H     28  27  24     0.966940486915   107.02280157    50.14998153
 H     29  26  25     1.078154607257   119.36353542   359.33763848
 H     32  31  30     1.082305550428   119.26961869   178.10811696
 H     33  26  25     1.081266524356   120.82237970     0.93967315
 H     34  20   1     1.091675130215   110.61222923   296.88506207
 H     34  20   1     1.090638538816   111.24979903    58.78046460
 H     34  20   1     1.086874337533   105.83152908   177.91651662
 H     35  19   3     1.092542768081   111.11295165    61.68995360
 H     35  19   3     1.087216907246   105.76514178   180.58869751
 H     35  19   3     1.092498749779   111.06408574   299.51154320
 H     36  23  13     1.092586834906   110.82562837    59.92714661
 H     36  23  13     1.086988742937   105.97431989   178.98333137
 H     36  23  13     1.091898320703   110.99262729   297.94736209
 H     37  25  24     0.972596520241   106.81480942    62.70431494
 H     38  17   8     0.973506421991   108.36872043   297.60809059
 H     39  18   9     0.975160863665   108.40431959   323.87013116
 H     41  31  30     0.970948290150   108.84287388     5.42066828
 H     42  40  30     1.092561156457   110.56942219   303.26170486
 H     42  40  30     1.090969240424   111.15682458    65.31372428
 H     42  40  30     1.085725796955   105.99611452   184.02188687

---------------------------
INTERNAL COORDINATES (A.U.)
---------------------------
 C      0   0   0     0.000000000000     0.00000000     0.00000000
 C      1   0   0     2.639286707952     0.00000000     0.00000000
 C      2   1   0     2.640267611398   119.58806578     0.00000000
 C      3   2   1     2.634864993416   120.00746490   357.66505304
 C      4   3   2     2.629166779231   120.16458863     0.51140277
 C      1   2   3     2.627264074133   120.16550251     2.33786799
 C      5   4   3     2.848254066736   121.22949390   183.39161081
 C      7   5   4     2.924320998221   112.97688884   102.06748397
 C      8   7   5     2.938235770675   111.28525234   160.59797482
 C      9   8   7     2.907813014434   113.26478918   218.81205332
 C     10   9   8     2.857285196098   115.71577307    54.53457968
 C     11  10   9     2.645357217052   121.74832587    37.18411621
 C     12  11  10     2.620677296004   120.77705443   179.23052007
 C     13  12  11     2.651224161119   120.17880074   358.77073923
 C     14  13  12     2.610848531517   119.41193872     0.73288159
 C     11  10   9     2.629039104678   119.97827757   215.82727288
 C      8   7   5     2.885058245375   108.86678273   288.76738516
 C      9   8   7     2.896500538320   115.05391974    90.08367640
 O      3   2   1     2.568232023463   115.61576680   178.39430125
 O      1   2   3     2.575884153269   115.79790337   181.47613875
 O      2   1   3     2.597655010297   119.14714595   177.54267319
 O     14  13  12     2.582213868491   120.35533843   180.14375514
 O     13  12  11     2.579780383236   125.49143332   178.57130521
 C     21   2   1     2.732182809908   117.18503904   109.89975350
 C     24  21   2     2.906903015444   111.20351832   282.69320243
 C     25  24  21     2.884863821350   113.72609140    75.75723291
 C     24  21   2     2.866352320217   105.00012717   161.07446389
 O     27  24  21     2.692994248935   111.60513062   297.93886641
 C     26  25  24     2.636968936344   119.39955372   221.53028921
 C     29  26  25     2.619943077844   120.71553733   178.10636994
 C     30  29  26     2.644383464250   119.88787009   359.85257807
 C     31  30  29     2.612064592485   119.68555435     2.79960136
 C     26  25  24     2.628817066653   121.85413748    42.34472552
 C     20   1   2     2.699986514706   117.91276354   179.11782793
 C     19   3   2     2.694885531301   118.30162868   177.97257159
 C     23  13  12     2.695359835426   118.44630394     2.84832524
 O     25  24  21     2.686961119302   110.10533957   308.87403332
 O     17   8   7     2.710990909635   113.92418881   178.58509754
 O     18   9   8     2.701702649301   115.13905136    80.24217038
 O     30  29  26     2.572613705268   125.48318336   180.48058685
 O     31  30  29     2.593535297322   120.10384878   182.31695385
 C     40  30  29     2.695381184024   118.53109374   351.99134796
 H      4   3   2     2.040897133697   120.45317751   181.17919651
 H      6   1   2     2.039529339854   120.45851596   178.31312916
 H      7   5   4     2.066601781998   110.16344135   339.10239803
 H      7   5   4     2.063219445600   108.82284840   222.17694197
 H      8   7   5     2.064753050350   106.66087108    43.98810913
 H      9   8   7     2.067679999968   106.05982931   335.79296714
 H     10   9   8     2.072488318537   107.53305789   176.73331795
 H     10   9   8     2.059921363545   110.03698693   291.65610866
 H     12  11  10     2.040211810678   119.89219943   358.43391610
 H     15  14  13     2.045770456309   119.06003371   179.29428193
 H     16  11  10     2.048387786073   119.48805180     1.53621995
 H     17   8   7     2.063217338397   110.57574310   297.63408450
 H     17   8   7     2.062596853221   109.35981871    55.55329499
 H     18   9   8     2.074013681482   109.40941748   315.67549132
 H     18   9   8     2.064966673408   108.71654175   198.93945107
 H     22  14  13     1.831099013627   108.32357151     0.82208946
 H     24  21   2     2.058456766247   109.12389251    44.69981970
 H     25  24  21     2.068929725169   106.55464064   195.00059148
 H     27  24  21     2.068611448389   109.61573823    61.03645414
 H     27  24  21     2.060936087038   109.32582804   179.89625338
 H     28  27  24     1.827252708069   107.02280157    50.14998153
 H     29  26  25     2.037416937741   119.36353542   359.33763848
 H     32  31  30     2.045261083532   119.26961869   178.10811696
 H     33  26  25     2.043297608811   120.82237970     0.93967315
 H     34  20   1     2.062967023319   110.61222923   296.88506207
 H     34  20   1     2.061008149462   111.24979903    58.78046460
 H     34  20   1     2.053894839925   105.83152908   177.91651662
 H     35  19   3     2.064606621269   111.11295165    61.68995360
 H     35  19   3     2.054542202863   105.76514178   180.58869751
 H     35  19   3     2.064523438734   111.06408574   299.51154320
 H     36  23  13     2.064689895500   110.82562837    59.92714661
 H     36  23  13     2.054111034805   105.97431989   178.98333137
 H     36  23  13     2.063388792217   110.99262729   297.94736209
 H     37  25  24     1.837941062060   106.81480942    62.70431494
 H     38  17   8     1.839660527176   108.36872043   297.60809059
 H     39  18   9     1.842786968845   108.40431959   323.87013116
 H     41  31  30     1.834826358582   108.84287388     5.42066828
 H     42  40  30     2.064641370265   110.56942219   303.26170486
 H     42  40  30     2.061633084934   111.15682458    65.31372428
 H     42  40  30     2.051724412779   105.99611452   184.02188687

---------------------
BASIS SET INFORMATION
---------------------
There are 3 groups of distinct atoms

 Group   1 Type C   : 11s7p2d1f contracted to 4s5p2d1f pattern {7211/31111/11/1}
 Group   2 Type O   : 11s7p2d1f contracted to 4s5p2d1f pattern {7211/31111/11/1}
 Group   3 Type H   : 6s3p1d contracted to 3s2p1d pattern {411/21/1}

Atom   0C    basis set group =>   1
Atom   1C    basis set group =>   1
Atom   2C    basis set group =>   1
Atom   3C    basis set group =>   1
Atom   4C    basis set group =>   1
Atom   5C    basis set group =>   1
Atom   6C    basis set group =>   1
Atom   7C    basis set group =>   1
Atom   8C    basis set group =>   1
Atom   9C    basis set group =>   1
Atom  10C    basis set group =>   1
Atom  11C    basis set group =>   1
Atom  12C    basis set group =>   1
Atom  13C    basis set group =>   1
Atom  14C    basis set group =>   1
Atom  15C    basis set group =>   1
Atom  16C    basis set group =>   1
Atom  17C    basis set group =>   1
Atom  18O    basis set group =>   2
Atom  19O    basis set group =>   2
Atom  20O    basis set group =>   2
Atom  21O    basis set group =>   2
Atom  22O    basis set group =>   2
Atom  23C    basis set group =>   1
Atom  24C    basis set group =>   1
Atom  25C    basis set group =>   1
Atom  26C    basis set group =>   1
Atom  27O    basis set group =>   2
Atom  28C    basis set group =>   1
Atom  29C    basis set group =>   1
Atom  30C    basis set group =>   1
Atom  31C    basis set group =>   1
Atom  32C    basis set group =>   1
Atom  33C    basis set group =>   1
Atom  34C    basis set group =>   1
Atom  35C    basis set group =>   1
Atom  36O    basis set group =>   2
Atom  37O    basis set group =>   2
Atom  38O    basis set group =>   2
Atom  39O    basis set group =>   2
Atom  40O    basis set group =>   2
Atom  41C    basis set group =>   1
Atom  42H    basis set group =>   3
Atom  43H    basis set group =>   3
Atom  44H    basis set group =>   3
Atom  45H    basis set group =>   3
Atom  46H    basis set group =>   3
Atom  47H    basis set group =>   3
Atom  48H    basis set group =>   3
Atom  49H    basis set group =>   3
Atom  50H    basis set group =>   3
Atom  51H    basis set group =>   3
Atom  52H    basis set group =>   3
Atom  53H    basis set group =>   3
Atom  54H    basis set group =>   3
Atom  55H    basis set group =>   3
Atom  56H    basis set group =>   3
Atom  57H    basis set group =>   3
Atom  58H    basis set group =>   3
Atom  59H    basis set group =>   3
Atom  60H    basis set group =>   3
Atom  61H    basis set group =>   3
Atom  62H    basis set group =>   3
Atom  63H    basis set group =>   3
Atom  64H    basis set group =>   3
Atom  65H    basis set group =>   3
Atom  66H    basis set group =>   3
Atom  67H    basis set group =>   3
Atom  68H    basis set group =>   3
Atom  69H    basis set group =>   3
Atom  70H    basis set group =>   3
Atom  71H    basis set group =>   3
Atom  72H    basis set group =>   3
Atom  73H    basis set group =>   3
Atom  74H    basis set group =>   3
Atom  75H    basis set group =>   3
Atom  76H    basis set group =>   3
Atom  77H    basis set group =>   3
Atom  78H    basis set group =>   3
Atom  79H    basis set group =>   3
Atom  80H    basis set group =>   3
Atom  81H    basis set group =>   3
---------------------------------
AUXILIARY/J BASIS SET INFORMATION
---------------------------------
There are 3 groups of distinct atoms

 Group   1 Type C   : 15s13p12d5f5g contracted to 15s13p12d5f5g pattern {111111111111111/1111111111111/111111111111/11111/11111}
 Group   2 Type O   : 15s13p12d5f5g contracted to 15s13p12d5f5g pattern {111111111111111/1111111111111/111111111111/11111/11111}
 Group   3 Type H   : 12s4p3d2f contracted to 12s4p3d2f pattern {111111111111/1111/111/11}

Atom   0C    basis set group =>   1
Atom   1C    basis set group =>   1
Atom   2C    basis set group =>   1
Atom   3C    basis set group =>   1
Atom   4C    basis set group =>   1
Atom   5C    basis set group =>   1
Atom   6C    basis set group =>   1
Atom   7C    basis set group =>   1
Atom   8C    basis set group =>   1
Atom   9C    basis set group =>   1
Atom  10C    basis set group =>   1
Atom  11C    basis set group =>   1
Atom  12C    basis set group =>   1
Atom  13C    basis set group =>   1
Atom  14C    basis set group =>   1
Atom  15C    basis set group =>   1
Atom  16C    basis set group =>   1
Atom  17C    basis set group =>   1
Atom  18O    basis set group =>   2
Atom  19O    basis set group =>   2
Atom  20O    basis set group =>   2
Atom  21O    basis set group =>   2
Atom  22O    basis set group =>   2
Atom  23C    basis set group =>   1
Atom  24C    basis set group =>   1
Atom  25C    basis set group =>   1
Atom  26C    basis set group =>   1
Atom  27O    basis set group =>   2
Atom  28C    basis set group =>   1
Atom  29C    basis set group =>   1
Atom  30C    basis set group =>   1
Atom  31C    basis set group =>   1
Atom  32C    basis set group =>   1
Atom  33C    basis set group =>   1
Atom  34C    basis set group =>   1
Atom  35C    basis set group =>   1
Atom  36O    basis set group =>   2
Atom  37O    basis set group =>   2
Atom  38O    basis set group =>   2
Atom  39O    basis set group =>   2
Atom  40O    basis set group =>   2
Atom  41C    basis set group =>   1
Atom  42H    basis set group =>   3
Atom  43H    basis set group =>   3
Atom  44H    basis set group =>   3
Atom  45H    basis set group =>   3
Atom  46H    basis set group =>   3
Atom  47H    basis set group =>   3
Atom  48H    basis set group =>   3
Atom  49H    basis set group =>   3
Atom  50H    basis set group =>   3
Atom  51H    basis set group =>   3
Atom  52H    basis set group =>   3
Atom  53H    basis set group =>   3
Atom  54H    basis set group =>   3
Atom  55H    basis set group =>   3
Atom  56H    basis set group =>   3
Atom  57H    basis set group =>   3
Atom  58H    basis set group =>   3
Atom  59H    basis set group =>   3
Atom  60H    basis set group =>   3
Atom  61H    basis set group =>   3
Atom  62H    basis set group =>   3
Atom  63H    basis set group =>   3
Atom  64H    basis set group =>   3
Atom  65H    basis set group =>   3
Atom  66H    basis set group =>   3
Atom  67H    basis set group =>   3
Atom  68H    basis set group =>   3
Atom  69H    basis set group =>   3
Atom  70H    basis set group =>   3
Atom  71H    basis set group =>   3
Atom  72H    basis set group =>   3
Atom  73H    basis set group =>   3
Atom  74H    basis set group =>   3
Atom  75H    basis set group =>   3
Atom  76H    basis set group =>   3
Atom  77H    basis set group =>   3
Atom  78H    basis set group =>   3
Atom  79H    basis set group =>   3
Atom  80H    basis set group =>   3
Atom  81H    basis set group =>   3
---------------------------------
AUXILIARY/C BASIS SET INFORMATION
---------------------------------
There are 3 groups of distinct atoms

 Group   1 Type C   : 15s13p12d5f5g contracted to 15s13p12d5f5g pattern {111111111111111/1111111111111/111111111111/11111/11111}
 Group   2 Type O   : 15s13p12d5f5g contracted to 15s13p12d5f5g pattern {111111111111111/1111111111111/111111111111/11111/11111}
 Group   3 Type H   : 12s4p3d2f contracted to 12s4p3d2f pattern {111111111111/1111/111/11}

Atom   0C    basis set group =>   1
Atom   1C    basis set group =>   1
Atom   2C    basis set group =>   1
Atom   3C    basis set group =>   1
Atom   4C    basis set group =>   1
Atom   5C    basis set group =>   1
Atom   6C    basis set group =>   1
Atom   7C    basis set group =>   1
Atom   8C    basis set group =>   1
Atom   9C    basis set group =>   1
Atom  10C    basis set group =>   1
Atom  11C    basis set group =>   1
Atom  12C    basis set group =>   1
Atom  13C    basis set group =>   1
Atom  14C    basis set group =>   1
Atom  15C    basis set group =>   1
Atom  16C    basis set group =>   1
Atom  17C    basis set group =>   1
Atom  18O    basis set group =>   2
Atom  19O    basis set group =>   2
Atom  20O    basis set group =>   2
Atom  21O    basis set group =>   2
Atom  22O    basis set group =>   2
Atom  23C    basis set group =>   1
Atom  24C    basis set group =>   1
Atom  25C    basis set group =>   1
Atom  26C    basis set group =>   1
Atom  27O    basis set group =>   2
Atom  28C    basis set group =>   1
Atom  29C    basis set group =>   1
Atom  30C    basis set group =>   1
Atom  31C    basis set group =>   1
Atom  32C    basis set group =>   1
Atom  33C    basis set group =>   1
Atom  34C    basis set group =>   1
Atom  35C    basis set group =>   1
Atom  36O    basis set group =>   2
Atom  37O    basis set group =>   2
Atom  38O    basis set group =>   2
Atom  39O    basis set group =>   2
Atom  40O    basis set group =>   2
Atom  41C    basis set group =>   1
Atom  42H    basis set group =>   3
Atom  43H    basis set group =>   3
Atom  44H    basis set group =>   3
Atom  45H    basis set group =>   3
Atom  46H    basis set group =>   3
Atom  47H    basis set group =>   3
Atom  48H    basis set group =>   3
Atom  49H    basis set group =>   3
Atom  50H    basis set group =>   3
Atom  51H    basis set group =>   3
Atom  52H    basis set group =>   3
Atom  53H    basis set group =>   3
Atom  54H    basis set group =>   3
Atom  55H    basis set group =>   3
Atom  56H    basis set group =>   3
Atom  57H    basis set group =>   3
Atom  58H    basis set group =>   3
Atom  59H    basis set group =>   3
Atom  60H    basis set group =>   3
Atom  61H    basis set group =>   3
Atom  62H    basis set group =>   3
Atom  63H    basis set group =>   3
Atom  64H    basis set group =>   3
Atom  65H    basis set group =>   3
Atom  66H    basis set group =>   3
Atom  67H    basis set group =>   3
Atom  68H    basis set group =>   3
Atom  69H    basis set group =>   3
Atom  70H    basis set group =>   3
Atom  71H    basis set group =>   3
Atom  72H    basis set group =>   3
Atom  73H    basis set group =>   3
Atom  74H    basis set group =>   3
Atom  75H    basis set group =>   3
Atom  76H    basis set group =>   3
Atom  77H    basis set group =>   3
Atom  78H    basis set group =>   3
Atom  79H    basis set group =>   3
Atom  80H    basis set group =>   3
Atom  81H    basis set group =>   3
----------------------------------
AUXILIARY/JK BASIS SET INFORMATION
----------------------------------
There are 3 groups of distinct atoms

 Group   1 Type C   : 15s13p12d5f5g contracted to 15s13p12d5f5g pattern {111111111111111/1111111111111/111111111111/11111/11111}
 Group   2 Type O   : 15s13p12d5f5g contracted to 15s13p12d5f5g pattern {111111111111111/1111111111111/111111111111/11111/11111}
 Group   3 Type H   : 12s4p3d2f contracted to 12s4p3d2f pattern {111111111111/1111/111/11}

Atom   0C    basis set group =>   1
Atom   1C    basis set group =>   1
Atom   2C    basis set group =>   1
Atom   3C    basis set group =>   1
Atom   4C    basis set group =>   1
Atom   5C    basis set group =>   1
Atom   6C    basis set group =>   1
Atom   7C    basis set group =>   1
Atom   8C    basis set group =>   1
Atom   9C    basis set group =>   1
Atom  10C    basis set group =>   1
Atom  11C    basis set group =>   1
Atom  12C    basis set group =>   1
Atom  13C    basis set group =>   1
Atom  14C    basis set group =>   1
Atom  15C    basis set group =>   1
Atom  16C    basis set group =>   1
Atom  17C    basis set group =>   1
Atom  18O    basis set group =>   2
Atom  19O    basis set group =>   2
Atom  20O    basis set group =>   2
Atom  21O    basis set group =>   2
Atom  22O    basis set group =>   2
Atom  23C    basis set group =>   1
Atom  24C    basis set group =>   1
Atom  25C    basis set group =>   1
Atom  26C    basis set group =>   1
Atom  27O    basis set group =>   2
Atom  28C    basis set group =>   1
Atom  29C    basis set group =>   1
Atom  30C    basis set group =>   1
Atom  31C    basis set group =>   1
Atom  32C    basis set group =>   1
Atom  33C    basis set group =>   1
Atom  34C    basis set group =>   1
Atom  35C    basis set group =>   1
Atom  36O    basis set group =>   2
Atom  37O    basis set group =>   2
Atom  38O    basis set group =>   2
Atom  39O    basis set group =>   2
Atom  40O    basis set group =>   2
Atom  41C    basis set group =>   1
Atom  42H    basis set group =>   3
Atom  43H    basis set group =>   3
Atom  44H    basis set group =>   3
Atom  45H    basis set group =>   3
Atom  46H    basis set group =>   3
Atom  47H    basis set group =>   3
Atom  48H    basis set group =>   3
Atom  49H    basis set group =>   3
Atom  50H    basis set group =>   3
Atom  51H    basis set group =>   3
Atom  52H    basis set group =>   3
Atom  53H    basis set group =>   3
Atom  54H    basis set group =>   3
Atom  55H    basis set group =>   3
Atom  56H    basis set group =>   3
Atom  57H    basis set group =>   3
Atom  58H    basis set group =>   3
Atom  59H    basis set group =>   3
Atom  60H    basis set group =>   3
Atom  61H    basis set group =>   3
Atom  62H    basis set group =>   3
Atom  63H    basis set group =>   3
Atom  64H    basis set group =>   3
Atom  65H    basis set group =>   3
Atom  66H    basis set group =>   3
Atom  67H    basis set group =>   3
Atom  68H    basis set group =>   3
Atom  69H    basis set group =>   3
Atom  70H    basis set group =>   3
Atom  71H    basis set group =>   3
Atom  72H    basis set group =>   3
Atom  73H    basis set group =>   3
Atom  74H    basis set group =>   3
Atom  75H    basis set group =>   3
Atom  76H    basis set group =>   3
Atom  77H    basis set group =>   3
Atom  78H    basis set group =>   3
Atom  79H    basis set group =>   3
Atom  80H    basis set group =>   3
Atom  81H    basis set group =>   3
---------------------------------
AUXILIARY/X BASIS SET INFORMATION
---------------------------------
There are 3 groups of distinct atoms

 Group   1 Type C   : 15s13p12d5f5g contracted to 15s13p12d5f5g pattern {111111111111111/1111111111111/111111111111/11111/11111}
 Group   2 Type O   : 15s13p12d5f5g contracted to 15s13p12d5f5g pattern {111111111111111/1111111111111/111111111111/11111/11111}
 Group   3 Type H   : 12s4p3d2f contracted to 12s4p3d2f pattern {111111111111/1111/111/11}

Atom   0C    basis set group =>   1
Atom   1C    basis set group =>   1
Atom   2C    basis set group =>   1
Atom   3C    basis set group =>   1
Atom   4C    basis set group =>   1
Atom   5C    basis set group =>   1
Atom   6C    basis set group =>   1
Atom   7C    basis set group =>   1
Atom   8C    basis set group =>   1
Atom   9C    basis set group =>   1
Atom  10C    basis set group =>   1
Atom  11C    basis set group =>   1
Atom  12C    basis set group =>   1
Atom  13C    basis set group =>   1
Atom  14C    basis set group =>   1
Atom  15C    basis set group =>   1
Atom  16C    basis set group =>   1
Atom  17C    basis set group =>   1
Atom  18O    basis set group =>   2
Atom  19O    basis set group =>   2
Atom  20O    basis set group =>   2
Atom  21O    basis set group =>   2
Atom  22O    basis set group =>   2
Atom  23C    basis set group =>   1
Atom  24C    basis set group =>   1
Atom  25C    basis set group =>   1
Atom  26C    basis set group =>   1
Atom  27O    basis set group =>   2
Atom  28C    basis set group =>   1
Atom  29C    basis set group =>   1
Atom  30C    basis set group =>   1
Atom  31C    basis set group =>   1
Atom  32C    basis set group =>   1
Atom  33C    basis set group =>   1
Atom  34C    basis set group =>   1
Atom  35C    basis set group =>   1
Atom  36O    basis set group =>   2
Atom  37O    basis set group =>   2
Atom  38O    basis set group =>   2
Atom  39O    basis set group =>   2
Atom  40O    basis set group =>   2
Atom  41C    basis set group =>   1
Atom  42H    basis set group =>   3
Atom  43H    basis set group =>   3
Atom  44H    basis set group =>   3
Atom  45H    basis set group =>   3
Atom  46H    basis set group =>   3
Atom  47H    basis set group =>   3
Atom  48H    basis set group =>   3
Atom  49H    basis set group =>   3
Atom  50H    basis set group =>   3
Atom  51H    basis set group =>   3
Atom  52H    basis set group =>   3
Atom  53H    basis set group =>   3
Atom  54H    basis set group =>   3
Atom  55H    basis set group =>   3
Atom  56H    basis set group =>   3
Atom  57H    basis set group =>   3
Atom  58H    basis set group =>   3
Atom  59H    basis set group =>   3
Atom  60H    basis set group =>   3
Atom  61H    basis set group =>   3
Atom  62H    basis set group =>   3
Atom  63H    basis set group =>   3
Atom  64H    basis set group =>   3
Atom  65H    basis set group =>   3
Atom  66H    basis set group =>   3
Atom  67H    basis set group =>   3
Atom  68H    basis set group =>   3
Atom  69H    basis set group =>   3
Atom  70H    basis set group =>   3
Atom  71H    basis set group =>   3
Atom  72H    basis set group =>   3
Atom  73H    basis set group =>   3
Atom  74H    basis set group =>   3
Atom  75H    basis set group =>   3
Atom  76H    basis set group =>   3
Atom  77H    basis set group =>   3
Atom  78H    basis set group =>   3
Atom  79H    basis set group =>   3
Atom  80H    basis set group =>   3
Atom  81H    basis set group =>   3
--------------------------------------------------------------------------
WARNING: There was an error initializing an OpenFabrics device.

  Local host:   c03b01n04
  Local device: mlx5_0
--------------------------------------------------------------------------
--------------------------------------------------------------------------
WARNING: There is at least one non-excluded one OpenFabrics device found,
but there are no active ports detected (or Open MPI was unable to use
them).  This is most certainly not what you wanted.  Check your
cables, subnet manager configuration, etc.  The openib BTL will be
ignored for this job.

  Local host: c03b01n04
--------------------------------------------------------------------------
[c03b01n04:1564096] 49 more processes have sent help message help-mpi-btl-openib.txt / error in device init
[c03b01n04:1564096] Set MCA parameter "orte_base_help_aggregate" to 0 to see all help / error messages
[c03b01n04:1564096] 9 more processes have sent help message help-mpi-btl-openib.txt / no active ports found


           ************************************************************
           *        Program running with 60 parallel MPI-processes    *
           *              working on a common directory               *
           ************************************************************
------------------------------------------------------------------------------
                             ORCA STARTUP CALCULATIONS
                           -- RI-GTO INTEGRALS CHOSEN --
------------------------------------------------------------------------------
------------------------------------------------------------------------------
                   ___                                                        
                  /   \      - P O W E R E D   B Y -                         
                 /     \                                                     
                 |  |  |   _    _      __       _____    __    __             
                 |  |  |  | |  | |    /  \     |  _  \  |  |  /  |          
                  \  \/   | |  | |   /    \    | | | |  |  | /  /          
                 / \  \   | |__| |  /  /\  \   | |_| |  |  |/  /          
                |  |  |   |  __  | /  /__\  \  |    /   |      \           
                |  |  |   | |  | | |   __   |  |    \   |  |\   \          
                \     /   | |  | | |  |  |  |  | |\  \  |  | \   \       
                 \___/    |_|  |_| |__|  |__|  |_| \__\ |__|  \__/        
                                                                              
                      - O R C A' S   B I G   F R I E N D -                    
                                      &                                       
                       - I N T E G R A L  F E E D E R -                       
                                                                              
 v1 FN, 2020, v2 2021, v3 2022-2024                                           
------------------------------------------------------------------------------


----------------------
SHARK INTEGRAL PACKAGE
----------------------

Number of atoms                             ...     82
Number of basis functions                   ...   2072
Number of shells                            ...    744
Maximum angular momentum                    ...      3
Integral batch strategy                     ... SHARK/LIBINT Hybrid
RI-J (if used) integral strategy            ... SPLIT-RIJ (Revised 2003 algorithm where possible)
Printlevel                                  ...      1
Contraction scheme used                     ... SEGMENTED contraction
Prescreening option                         ... SCHWARTZ
   Thresh                                   ... 1.000e-10
   Tcut                                     ... 1.000e-11
   Tpresel                                  ... 1.000e-11 
Coulomb Range Separation                    ... NOT USED
Exchange Range Separation                   ... NOT USED
Multipole approximations                    ... NOT USED
Finite Nucleus Model                        ... NOT USED
CABS basis                                  ... NOT available
Auxiliary Coulomb fitting basis             ... AVAILABLE
   # of basis functions in Aux-J            ...  10268
   # of shells in Aux-J                     ...   2940
   Maximum angular momentum in Aux-J        ...      4
Auxiliary J/K fitting basis                 ... AVAILABLE
   # of basis functions in Aux-JK           ...  10268
   # of shells in Aux-JK                    ...   2940
   Maximum angular momentum in Aux-JK       ...      4
Auxiliary Correlation fitting basis         ... AVAILABLE
   # of basis functions in Aux-C            ...  10268
   # of shells in Aux-C                     ...   2940
   Maximum angular momentum in Aux-C        ...      4
Auxiliary 'external' fitting basis          ... NOT available

Checking pre-screening integrals            ... done (  0.0 sec) Dimension = 744
   => SHARK Basis and OBASIS are compatible. Storing Pre-screening
Shell pair information
Shell pair cut-off parameter TPreSel        ...   1.0e-11
Total number of shell pairs                 ...    277140
Shell pairs after pre-screening             ...    152698
Total number of primitive shell pairs       ...    823733
Primitive shell pairs kept                  ...    279654
          la=0 lb=0:  29094 shell pairs
          la=1 lb=0:  50769 shell pairs
          la=1 lb=1:  20670 shell pairs
          la=2 lb=0:  20051 shell pairs
          la=2 lb=1:  15206 shell pairs
          la=2 lb=2:   2695 shell pairs
          la=3 lb=0:   6876 shell pairs
          la=3 lb=1:   5175 shell pairs
          la=3 lb=2:   1821 shell pairs
          la=3 lb=3:    341 shell pairs

Checking whether 4 symmetric matrices of dimension 2072 fit in memory
:Max Core in MB      =   5000.00
 MB in use           =    188.40
 MB left             =   4811.60
 MB needed           =     65.54
 Data fit in memory  = YES
Calculating RI/J V-Matrix + Cholesky decomp.... done (  8.7 sec)
Calculating RI/JK V-Matrix + Cholesky decomp.... done (  4.2 sec)
Calculating RI/C V-Matrix + Cholesky decomp.... done (  4.4 sec)
Calculating Nuclear repulsion               ... done (  0.1 sec) ENN=   5748.355647421832 Eh

Diagonalization of the overlap matrix:
Smallest eigenvalue                        ... 6.946e-06
Time for diagonalization                   ...    3.165 sec
Threshold for overlap eigenvalues          ... 1.000e-07
Number of eigenvalues below threshold      ... 0
Time for construction of square roots      ...    0.665 sec
Total time needed                          ...    3.930 sec

-------------------
DFT GRID GENERATION
-------------------

General Integration Accuracy     IntAcc      ... 4.388
Radial Grid Type                 RadialGrid  ... OptM3 with GC (2021)
Angular Grid (max. ang.)         AngularGrid ... 4 (Lebedev-302)
Angular grid pruning method      GridPruning ... 4 (adaptive)
Weight generation scheme         WeightScheme... mBecke (2022)
Basis function cutoff            BFCut       ... 1.0000e-10
Integration weight cutoff        WCut        ... 1.0000e-14
Partially contracted basis set               ... off
Rotationally invariant grid construction     ... off
Angular grids for H and He will be reduced by one unit
Diffuse basis detected: some atoms will have their outermost
                        angular grid increased by 1.

Total number of grid points                  ...   376499
Total number of batches                      ...     5926
Average number of points per batch           ...       63
Average number of grid points per atom       ...     4591
Grids setup in   4.2 sec
Initializing property integral containers    ... done (  0.1 sec)

SHARK setup successfully completed in  39.0 seconds

Maximum memory used throughout the entire STARTUP-calculation: 260.4 MB
--------------------------------------------------------------------------
WARNING: There was an error initializing an OpenFabrics device.

  Local host:   c03b01n04
  Local device: mlx5_0
--------------------------------------------------------------------------
--------------------------------------------------------------------------
WARNING: There is at least one non-excluded one OpenFabrics device found,
but there are no active ports detected (or Open MPI was unable to use
them).  This is most certainly not what you wanted.  Check your
cables, subnet manager configuration, etc.  The openib BTL will be
ignored for this job.

  Local host: c03b01n04
--------------------------------------------------------------------------


           ************************************************************
           *        Program running with 60 parallel MPI-processes    *
           *              working on a common directory               *
           ************************************************************
[c03b01n04:1564507] 50 more processes have sent help message help-mpi-btl-openib.txt / error in device init
[c03b01n04:1564507] Set MCA parameter "orte_base_help_aggregate" to 0 to see all help / error messages
[c03b01n04:1564507] 8 more processes have sent help message help-mpi-btl-openib.txt / no active ports found
-------------------------------------------------------------------------------
                                 ORCA GUESS
                   Start orbitals & Density for SCF / CASSCF
-------------------------------------------------------------------------------

------------
SCF SETTINGS
------------
Hamiltonian:
 Density Functional     Method          .... DFT(GTOs)
 Exchange Functional    Exchange        .... TPSS
 Correlation Functional Correlation     .... TPSS
 LDA part of GGA corr.  LDAOpt          .... PW91-LDA
 Gradients option       PostSCFGGA      .... off
   NL short-range parameter             ....  5.000000
 RI-approximation to the Coulomb term is turned on
   Number of AuxJ basis functions       .... 10268


General Settings:
 Integral files         IntName         .... nmr-conf-9
 Hartree-Fock type      HFTyp           .... RHF
 Total Charge           Charge          ....    0
 Multiplicity           Mult            ....    1
 Number of Electrons    NEL             ....  314
 Basis Dimension        Dim             .... 2072
 Nuclear Repulsion      ENuc            ....   5748.3556474218 Eh

Convergence Acceleration:
 AO-DIIS                CNVDIIS         .... on
   Start iteration      DIISMaxIt       ....    12
   Startup error        DIISStart       ....  0.200000
   # of expansion vecs  DIISMaxEq       ....     5
   Bias factor          DIISBfac        ....   1.050
   Max. coefficient     DIISMaxC        ....  10.000
 MO-DIIS                CNVKDIIS        .... off
 Trust-Rad. Augm. Hess. CNVTRAH         .... auto
   Auto Start mean grad. ratio tolernc. ....  1.125000
   Auto Start start iteration           ....    50
   Auto Start num. interpolation iter.  ....    10
   Max. Number of Micro iterations      ....    24
   Max. Number of Macro iterations      .... Maxiter - #DIIS iter
   Number of Davidson start vectors     ....     2
   Converg. threshold    (grad. norm)   ....   5.000e-05
   Grad. Scal. Fac. for Micro threshold ....   0.100
   Minimum threshold for Micro iter.    ....   1.000e-02
   NR start threshold (gradient norm)   ....   1.000e-04
   Initial trust radius                 ....   0.400
   Minimum AH scaling param. (alpha)    ....   1.000
   Maximum AH scaling param. (alpha)    .... 1000.000
   Quad. conv. algorithm                .... NR
   White noise on init. David. guess    .... on
   Maximum white noise                  ....   0.010
   Pseudo random numbers                .... off
   Inactive MOs                         .... canonical
   Orbital update algorithm             .... Taylor
   Preconditioner                       .... Diag
   Full preconditioner red. dimension   ....   250
 SOSCF                 CNVSOSCF           .... on
   Start iteration     SOSCFMaxIt         ....   150
   Startup grad/error  SOSCFStart         ....  0.003300
   Hessian update      SOSCFHessUp        .... L-BFGS
   Autom. constraints  SOSCFAutoConstrain .... off
 Level Shifting         CNVShift        .... on
   Level shift para.    LevelShift      ....    0.2500
   Turn off err/grad.   ShiftErr        ....    0.0010
 Zerner damping         CNVZerner       .... off
 Static damping         CNVDamp         .... on
   Fraction old density DampFac         ....    0.7000
   Max. Damping (<1)    DampMax         ....    0.9800
   Min. Damping (>=0)   DampMin         ....    0.0000
   Turn off err/grad.   DampErr         ....    0.1000

SCF Procedure:
 Maximum # iterations   MaxIter         ....   125
 SCF integral mode      SCFMode         .... Direct
   Integral package                     .... SHARK and LIBINT hybrid scheme
 Reset frequency        DirectResetFreq ....    20
 Integral Threshold     Thresh          ....  1.000e-10 Eh
 Primitive CutOff       TCut            ....  1.000e-11 Eh

Convergence Tolerance:
 Convergence Check Mode ConvCheckMode   .... Total+1el-Energy
 Convergence forced     ConvForced      .... 0
 Energy Change          TolE            ....  1.000e-06 Eh
 1-El. energy change                    ....  1.000e-03 Eh
 Orbital Gradient       TolG            ....  5.000e-05
 Orbital Rotation angle TolX            ....  5.000e-05
 DIIS Error             TolErr          ....  1.000e-06

------------------------------
INITIAL GUESS: MODEL POTENTIAL
------------------------------
Loading Hartree-Fock densities                     ... done
Calculating cut-offs                               ... done
Initializing the effective Hamiltonian             ... done
Setting up the integral package (SHARK)            ... done
Starting the Coulomb interaction                   ... done (   1.1 sec)
Making the grid                                    ... done (   0.6 sec)
Mapping shells                                     ... done
Starting the XC term evaluation                    ... done (   0.1 sec)
  promolecular density results
     # of electrons  =    313.955381772
     EX              =   -260.296691193
     EC              =    -10.646929590
     EX+EC           =   -270.943620783
Transforming the Hamiltonian                       ... done (   0.3 sec)
Diagonalizing the Hamiltonian                      ... done (   0.6 sec)
Back transforming the eigenvectors                 ... done (   0.2 sec)
Now organizing SCF variables                       ... done
                      ------------------
                      INITIAL GUESS DONE (   4.1 sec)
                      ------------------
             **** ENERGY FILE WAS UPDATED (nmr-conf-9.en.tmp) ****
Finished Guess after  27.5 sec
Maximum memory used throughout the entire GUESS-calculation: 291.7 MB
--------------------------------------------------------------------------
WARNING: There was an error initializing an OpenFabrics device.

  Local host:   c03b01n04
  Local device: mlx5_0
--------------------------------------------------------------------------
--------------------------------------------------------------------------
WARNING: There is at least one non-excluded one OpenFabrics device found,
but there are no active ports detected (or Open MPI was unable to use
them).  This is most certainly not what you wanted.  Check your
cables, subnet manager configuration, etc.  The openib BTL will be
ignored for this job.

  Local host: c03b01n04
--------------------------------------------------------------------------


           ************************************************************
           *        Program running with 60 parallel MPI-processes    *
           *              working on a common directory               *
           ************************************************************

-------------------------------------------------------------------------------------------
                                      ORCA LEAN-SCF
                              memory conserving SCF solver
-------------------------------------------------------------------------------------------

--------------------
CPCM SOLVATION MODEL
--------------------
CPCM parameters:
  Epsilon                                         ...      33.4280
  Refrac                                          ...       1.3288
  Rsolv                                           ...       1.3000
  Surface type                                    ... GAUSSIAN VDW
  Discretization scheme                           ... Constant charge density
    Threshold for H atoms                         ...       5.0000 (charges/Ang^2)
    Threshold for non-H atoms                     ...       5.0000 (charges/Ang^2)
  Epsilon function type                           ...         CPCM
Solvent:                                          ... METHANOL
Radii:
  Scheme                                          ... Element-dependent radii
  Radius for C  used is    3.8550 Bohr (=   2.0400 Ang.)
  Radius for O  used is    3.4469 Bohr (=   1.8240 Ang.)
  Radius for H  used is    2.4944 Bohr (=   1.3200 Ang.)
Calculating surface                               ...        done! (  0.0s)
Cavity surface points                             ...         6176
Cavity Volume                                     ...    4544.8090
Cavity Surface-area                               ...    2038.2652
Calculating surface distance matrix               ...        done! (  0.2s)
Performing Cholesky decomposition & store         ...        done! (  0.9s)
Overall time for CPCM initialization              ...                 1.2s

[c03b01n04:1565026] 49 more processes have sent help message help-mpi-btl-openib.txt / error in device init
[c03b01n04:1565026] Set MCA parameter "orte_base_help_aggregate" to 0 to see all help / error messages
[c03b01n04:1565026] 9 more processes have sent help message help-mpi-btl-openib.txt / no active ports found
----------------------------------------D-I-I-S--------------------------------------------
Iteration    Energy (Eh)           Delta-E    RMSDP     MaxDP     DIISErr   Damp  Time(sec)
-------------------------------------------------------------------------------------------
               ***  Starting incremental Fock matrix formation  ***
    1    -2033.0311814331926143     0.00e+00  7.90e-03  2.50e-01  2.39e-01  0.700   9.8
    2    -2033.4334410654137173    -4.02e-01  6.47e-03  1.89e-01  8.32e-02  0.700   8.7
                               ***Turning on AO-DIIS***
    3    -2033.5847477306451765    -1.51e-01  2.75e-03  6.01e-02  2.53e-02  0.700   8.5
    4    -2033.6759869835868813    -9.12e-02  4.66e-03  6.16e-02  1.18e-02  0.000   7.4
    5    -2033.8776377001058790    -2.02e-01  1.23e-03  3.11e-02  4.71e-03  0.000   6.9
                              *** Initializing SOSCF ***
---------------------------------------S-O-S-C-F--------------------------------------
Iteration    Energy (Eh)           Delta-E    RMSDP     MaxDP     MaxGrad    Time(sec)
--------------------------------------------------------------------------------------
    6    -2033.8789800201402613    -1.34e-03  3.95e-04  9.00e-03  1.40e-03     8.7
               *** Restarting incremental Fock matrix formation ***
    7    -2033.8790800038359521    -1.00e-04  3.14e-04  5.71e-03  1.48e-04     7.9
    8    -2033.8790540984000472     2.59e-05  7.24e-05  1.72e-03  5.88e-04     9.2
    9    -2033.8790958983399833    -4.18e-05  6.63e-05  1.01e-03  9.17e-05     8.3
   10    -2033.8790953514344437     5.47e-07  2.09e-05  4.90e-04  8.18e-05     7.2
                 **** Energy Check signals convergence ****

               *****************************************************
               *                     SUCCESS                       *
               *           SCF CONVERGED AFTER  10 CYCLES          *
               *****************************************************

             **** ENERGY FILE WAS UPDATED (nmr-conf-9.en.tmp) ****

----------------
TOTAL SCF ENERGY
----------------

Total Energy       :      -2033.87909519553432 Eh          -55344.66385 eV

Components:
Nuclear Repulsion  :       5748.35564742183215 Eh          156420.70944 eV
Electronic Energy  :      -7782.18899899347525 Eh         -211764.12854 eV
One Electron Energy:     -14222.96461844193618 Eh         -387026.54332 eV
Two Electron Energy:       6440.77561944846093 Eh          175262.41477 eV
CPCM Dielectric    :         -0.04574362389146 Eh              -1.24475 eV

Virial components:
Potential Energy   :      -4061.12175571846001 Eh         -110508.74113 eV
Kinetic Energy     :       2027.24266052292592 Eh           55164.07728 eV
Virial Ratio       :          2.00327362619278

DFT components:
N(Alpha)           :      157.000334104494 electrons
N(Beta)            :      157.000334104494 electrons
N(Total)           :      314.000668208987 electrons
E(X)               :     -268.093741282650 Eh       
E(C)               :      -10.608080016888 Eh       
E(XC)              :     -278.701821299538 Eh       

CPCM Solvation Model Properties:
Surface-charge          :         -0.04287440049810
Corrected charge        :         -0.00000000000000
Outlying charge corr.   :          0.00007994057231 Eh               0.00218 eV
Free-energy (cav+disp)  :  This term is not implemented in the current solvation scheme

---------------
SCF CONVERGENCE
---------------

  Last Energy change         ...   -5.4691e-07  Tolerance :   1.0000e-06
  Last MAX-Density change    ...    4.8970e-04  Tolerance :   1.0000e-05
  Last RMS-Density change    ...    2.0858e-05  Tolerance :   1.0000e-06
  Last DIIS Error            ...    1.3989e-03  Tolerance :   1.0000e-06
  Last Orbital Gradient      ...    8.1771e-05  Tolerance :   5.0000e-05
  Last Orbital Rotation      ...    1.5770e-04  Tolerance :   5.0000e-05


----------------
ORBITAL ENERGIES
----------------

  NO   OCC          E(Eh)            E(eV) 
   0   2.0000     -18.920233      -514.8457 
   1   2.0000     -18.918756      -514.8055 
   2   2.0000     -18.918293      -514.7929 
   3   2.0000     -18.916937      -514.7560 
   4   2.0000     -18.913568      -514.6643 
   5   2.0000     -18.909110      -514.5430 
   6   2.0000     -18.904394      -514.4147 
   7   2.0000     -18.881821      -513.8005 
   8   2.0000     -18.879953      -513.7496 
   9   2.0000     -18.878236      -513.7029 
  10   2.0000     -18.862859      -513.2845 
  11   2.0000     -10.046527      -273.3799 
  12   2.0000     -10.045798      -273.3601 
  13   2.0000     -10.045677      -273.3568 
  14   2.0000     -10.045266      -273.3456 
  15   2.0000     -10.045212      -273.3441 
  16   2.0000     -10.044190      -273.3163 
  17   2.0000     -10.041726      -273.2493 
  18   2.0000     -10.040665      -273.2204 
  19   2.0000     -10.036523      -273.1077 
  20   2.0000     -10.035063      -273.0679 
  21   2.0000     -10.034300      -273.0472 
  22   2.0000     -10.034280      -273.0466 
  23   2.0000     -10.034248      -273.0458 
  24   2.0000     -10.030604      -272.9466 
  25   2.0000     -10.026201      -272.8268 
  26   2.0000     -10.022840      -272.7353 
  27   2.0000      -9.993593      -271.9395 
  28   2.0000      -9.991877      -271.8928 
  29   2.0000      -9.988261      -271.7944 
  30   2.0000      -9.986918      -271.7579 
  31   2.0000      -9.986870      -271.7566 
  32   2.0000      -9.986366      -271.7428 
  33   2.0000      -9.985245      -271.7123 
  34   2.0000      -9.984325      -271.6873 
  35   2.0000      -9.983466      -271.6639 
  36   2.0000      -9.983259      -271.6583 
  37   2.0000      -9.982902      -271.6486 
  38   2.0000      -9.981444      -271.6089 
  39   2.0000      -9.978751      -271.5356 
  40   2.0000      -9.978657      -271.5330 
  41   2.0000      -9.977625      -271.5050 
  42   2.0000      -1.014335       -27.6015 
  43   2.0000      -1.012451       -27.5502 
  44   2.0000      -1.011034       -27.5116 
  45   2.0000      -1.001238       -27.2451 
  46   2.0000      -0.988855       -26.9081 
  47   2.0000      -0.984907       -26.8007 
  48   2.0000      -0.982973       -26.7481 
  49   2.0000      -0.956176       -26.0189 
  50   2.0000      -0.954936       -25.9851 
  51   2.0000      -0.950507       -25.8646 
  52   2.0000      -0.934368       -25.4254 
  53   2.0000      -0.798858       -21.7380 
  54   2.0000      -0.797235       -21.6939 
  55   2.0000      -0.795239       -21.6396 
  56   2.0000      -0.759527       -20.6678 
  57   2.0000      -0.734350       -19.9827 
  58   2.0000      -0.719846       -19.5880 
  59   2.0000      -0.703671       -19.1479 
  60   2.0000      -0.700820       -19.0703 
  61   2.0000      -0.698931       -19.0189 
  62   2.0000      -0.696671       -18.9574 
  63   2.0000      -0.688609       -18.7380 
  64   2.0000      -0.671576       -18.2745 
  65   2.0000      -0.653090       -17.7715 
  66   2.0000      -0.649798       -17.6819 
  67   2.0000      -0.649217       -17.6661 
  68   2.0000      -0.641177       -17.4473 
  69   2.0000      -0.620083       -16.8733 
  70   2.0000      -0.617383       -16.7998 
  71   2.0000      -0.616519       -16.7763 
  72   2.0000      -0.581904       -15.8344 
  73   2.0000      -0.567169       -15.4335 
  74   2.0000      -0.561491       -15.2789 
  75   2.0000      -0.557428       -15.1684 
  76   2.0000      -0.549021       -14.9396 
  77   2.0000      -0.545523       -14.8444 
  78   2.0000      -0.542461       -14.7611 
  79   2.0000      -0.532522       -14.4907 
  80   2.0000      -0.518245       -14.1022 
  81   2.0000      -0.512902       -13.9568 
  82   2.0000      -0.505534       -13.7563 
  83   2.0000      -0.496062       -13.4985 
  84   2.0000      -0.483571       -13.1586 
  85   2.0000      -0.478625       -13.0240 
  86   2.0000      -0.475753       -12.9459 
  87   2.0000      -0.474700       -12.9172 
  88   2.0000      -0.461932       -12.5698 
  89   2.0000      -0.456991       -12.4354 
  90   2.0000      -0.454959       -12.3801 
  91   2.0000      -0.449658       -12.2358 
  92   2.0000      -0.443409       -12.0658 
  93   2.0000      -0.442687       -12.0461 
  94   2.0000      -0.438048       -11.9199 
  95   2.0000      -0.432634       -11.7726 
  96   2.0000      -0.428423       -11.6580 
  97   2.0000      -0.427785       -11.6406 
  98   2.0000      -0.423379       -11.5207 
  99   2.0000      -0.420428       -11.4404 
 100   2.0000      -0.419256       -11.4085 
 101   2.0000      -0.416049       -11.3213 
 102   2.0000      -0.411487       -11.1971 
 103   2.0000      -0.405082       -11.0228 
 104   2.0000      -0.401593       -10.9279 
 105   2.0000      -0.399304       -10.8656 
 106   2.0000      -0.397118       -10.8061 
 107   2.0000      -0.390496       -10.6259 
 108   2.0000      -0.388581       -10.5738 
 109   2.0000      -0.384316       -10.4578 
 110   2.0000      -0.383492       -10.4354 
 111   2.0000      -0.381807       -10.3895 
 112   2.0000      -0.379482       -10.3262 
 113   2.0000      -0.376290       -10.2394 
 114   2.0000      -0.375695       -10.2232 
 115   2.0000      -0.374298       -10.1852 
 116   2.0000      -0.370028       -10.0690 
 117   2.0000      -0.367835       -10.0093 
[...]
  X           0.5998773   -0.1278296   -0.7898145
  Y           0.7398289   -0.2872321    0.6084002
  Z           0.3046316    0.9492931    0.0777320

 --------------
 Nucleus  73H :
 --------------

Diamagnetic contribution to the shielding tensor (ppm) : 
           103.983         66.933        11.041
            72.006         95.637        23.492
            95.555        -58.546       114.154

Paramagnetic contribution to the shielding tensor (ppm): 
           -79.498        -68.690       -12.974
           -74.064        -67.468       -18.709
           -97.078         60.779       -84.631

Total shielding tensor (ppm): 
            24.485         -1.756        -1.933
            -2.057         28.169         4.784
            -1.523          2.233        29.523


 Diagonalized sT*s matrix:
 
 sDSO           154.111          114.741           44.921  iso=     104.591
 sPSO          -130.452          -89.388          -11.758  iso=     -77.199
        ---------------  ---------------  ---------------
 Total           23.659           25.354           33.164  iso=      27.392

 Orientation: 
  X           0.9378351   -0.2041131   -0.2807192
  Y           0.3379021    0.7217183    0.6041067
  Z           0.0792941   -0.6614080    0.7458230

 --------------
 Nucleus  74H :
 --------------

Diamagnetic contribution to the shielding tensor (ppm) : 
           197.394         48.762        28.668
           147.169         91.112        35.346
            45.808        -18.490       113.725

Paramagnetic contribution to the shielding tensor (ppm): 
          -170.447        -46.857       -29.696
          -145.871        -61.415       -36.373
           -47.936         18.386       -87.824

Total shielding tensor (ppm): 
            26.947          1.906        -1.028
             1.298         29.696        -1.027
            -2.128         -0.104        25.901


 Diagonalized sT*s matrix:
 
 sDSO           167.437           55.117          179.677  iso=     134.077
 sPSO          -142.730          -28.017         -148.940  iso=    -106.562
        ---------------  ---------------  ---------------
 Total           24.708           27.100           30.737  iso=      27.515

 Orientation: 
  X           0.6172747    0.6375476    0.4609827
  Y          -0.1028192   -0.5155369    0.8506761
  Z           0.7800001   -0.5724988   -0.2526757

 --------------
 Nucleus  75H :
 --------------

Diamagnetic contribution to the shielding tensor (ppm) : 
           126.131        -82.097        22.459
            67.005        -30.939        26.094
            -1.114       -141.087       -51.726

Paramagnetic contribution to the shielding tensor (ppm): 
           -89.373         74.426       -27.658
           -74.028         54.794       -25.864
            -3.243        141.235        74.107

Total shielding tensor (ppm): 
            36.758         -7.671        -5.199
            -7.023         23.855         0.230
            -4.357          0.147        22.381


 Diagonalized sT*s matrix:
 
 sDSO           -51.506           12.416           82.557  iso=      14.489
 sPSO            70.638           10.308          -41.419  iso=      13.176
        ---------------  ---------------  ---------------
 Total           19.132           22.724           41.138  iso=      27.665

 Orientation: 
  X           0.4479400    0.0779848   -0.8906560
  Y           0.6577308    0.6460210    0.3873591
  Z           0.6055906   -0.7593255    0.2380857

 --------------
 Nucleus  76H :
 --------------

Diamagnetic contribution to the shielding tensor (ppm) : 
           -59.541         18.175        44.244
           -87.712         73.717        32.447
          -192.762        114.047         0.057

Paramagnetic contribution to the shielding tensor (ppm): 
            79.256        -23.958       -40.397
            82.003        -38.601       -43.445
           197.029       -122.871        27.481

Total shielding tensor (ppm): 
            19.715         -5.783         3.846
            -5.708         35.116       -10.999
             4.267         -8.825        27.538


 Diagonalized sT*s matrix:
 
 sDSO           -44.104           89.764          -31.427  iso=       4.744
 sPSO            61.779          -69.041           75.399  iso=      22.712
        ---------------  ---------------  ---------------
 Total           17.675           20.723           43.971  iso=      27.456

 Orientation: 
  X           0.9595685    0.0334023    0.2794863
  Y           0.2071476    0.5884662   -0.7815353
  Z          -0.1905733    0.8078316    0.5577544

 --------------
 Nucleus  77H :
 --------------

Diamagnetic contribution to the shielding tensor (ppm) : 
             9.273         44.338        39.508
           -45.653         81.752        39.964
           -99.233         96.838        12.778

Paramagnetic contribution to the shielding tensor (ppm): 
            26.904        -55.829       -33.920
            34.253        -61.125       -40.178
           105.121        -97.119        11.228

Total shielding tensor (ppm): 
            36.178        -11.491         5.588
           -11.401         20.627        -0.213
             5.888         -0.281        24.006


 Diagonalized sT*s matrix:
 
 sDSO            36.924           71.651           -4.772  iso=      34.601
 sPSO           -23.023          -48.366           48.397  iso=      -7.664
        ---------------  ---------------  ---------------
 Total           13.901           23.285           43.625  iso=      26.937

 Orientation: 
  X           0.4934342   -0.0991659    0.8641116
  Y           0.8296669    0.3519003   -0.4333809
  Z          -0.2611045    0.9307697    0.2559143

 --------------
 Nucleus  78H :
 --------------

Diamagnetic contribution to the shielding tensor (ppm) : 
           -74.554         38.409        28.783
          -108.326         79.999        28.023
          -123.741         54.744       -45.458

Paramagnetic contribution to the shielding tensor (ppm): 
           103.747        -32.901       -33.357
           114.896        -58.608       -34.511
           122.117        -59.373        72.343

Total shielding tensor (ppm): 
            29.193          5.508        -4.574
             6.570         21.392        -6.488
            -1.625         -4.628        26.884


 Diagonalized sT*s matrix:
 
 sDSO           104.735         -105.704          -39.044  iso=     -13.338
 sPSO           -88.009          130.533           74.959  iso=      39.161
        ---------------  ---------------  ---------------
 Total           16.726           24.829           35.914  iso=      25.823

 Orientation: 
  X           0.3083426    0.6661277   -0.6791162
  Y          -0.8777314   -0.0760175   -0.4730845
  Z          -0.3667593    0.7419537    0.5612418

 --------------
 Nucleus  79H :
 --------------

Diamagnetic contribution to the shielding tensor (ppm) : 
          -120.550        -77.097        16.668
          -159.139        -21.988         3.074
            64.980       -107.909      -220.744

Paramagnetic contribution to the shielding tensor (ppm): 
           147.657         73.913       -14.428
           156.660         52.572        -7.428
           -61.604        105.021       246.978

Total shielding tensor (ppm): 
            27.107         -3.184         2.239
            -2.478         30.584        -4.355
             3.376         -2.888        26.234


 Diagonalized sT*s matrix:
 
 sDSO          -212.234         -198.842           47.795  iso=    -121.094
 sPSO           235.832          224.541          -13.166  iso=     149.069
        ---------------  ---------------  ---------------
 Total           23.598           25.699           34.629  iso=      27.975

 Orientation: 
  X          -0.4669580    0.7555478    0.4594538
  Y           0.2586658    0.6135614   -0.7460793
  Z           0.8456017    0.2295427    0.4819418

 --------------
 Nucleus  80H :
 --------------

Diamagnetic contribution to the shielding tensor (ppm) : 
           -51.479        -11.062        32.044
           -79.566         37.614        32.191
           141.069       -145.432       -71.124

Paramagnetic contribution to the shielding tensor (ppm): 
            78.493         11.256       -32.163
            80.301        -11.613       -32.662
          -141.047        146.510       101.984

Total shielding tensor (ppm): 
            27.015          0.194        -0.119
             0.735         26.001        -0.471
             0.022          1.079        30.860


 Diagonalized sT*s matrix:
 
 sDSO            67.878          -73.094          -79.773  iso=     -28.329
 sPSO           -42.075          100.288          110.651  iso=      56.288
        ---------------  ---------------  ---------------
 Total           25.803           27.194           30.878  iso=      27.959

 Orientation: 
  X          -0.3576303    0.9338519   -0.0045939
  Y           0.9310857    0.3569414    0.0753148
  Z          -0.0719726   -0.0226575    0.9971492

 --------------
 Nucleus  81H :
 --------------

Diamagnetic contribution to the shielding tensor (ppm) : 
          -132.483         19.057        19.692
          -149.512         58.358        14.198
            50.090        -45.023       -95.064

Paramagnetic contribution to the shielding tensor (ppm): 
           160.073        -18.814       -18.970
           152.330        -30.114       -17.225
           -51.536         41.010       121.393

Total shielding tensor (ppm): 
            27.589          0.243         0.722
             2.818         28.243        -3.027
            -1.446         -4.013        26.328


 Diagonalized sT*s matrix:
 
 sDSO           -46.874          -71.158          -51.158  iso=     -56.397
 sPSO            70.403           98.322           82.626  iso=      83.784
        ---------------  ---------------  ---------------
 Total           23.530           27.164           31.468  iso=      27.387

 Orientation: 
  X          -0.1691089   -0.9104881   -0.3773773
  Y           0.6213609    0.1987265   -0.7579039
  Z           0.7650574   -0.3626558    0.5321353



--------------------------------
CHEMICAL SHIELDING SUMMARY (ppm)
--------------------------------


  Nucleus  Element    Isotropic     Anisotropy
  -------  -------  ------------   ------------
      0       C           24.874        123.064 
      1       C           44.204         92.270 
      2       C           25.570        119.824 
      3       C           76.319        125.478 
      4       C           38.573        194.728 
      5       C           76.883        132.914 
      6       C          136.319         37.052 
      7       C          134.620         20.846 
      8       C          132.388         21.066 
      9       C          139.401         24.170 
     10       C           44.545        182.600 
     11       C           70.495        158.108 
     12       C           29.695        118.999 
     13       C           32.694        121.609 
     14       C           65.445        147.187 
     15       C           57.685        146.015 
     16       C          111.426         70.062 
     17       C          112.552         61.776 
     23       C           92.375         35.738 
     24       C          103.529         38.731 
     25       C           42.661        168.198 
     26       C          110.899         57.691 
     28       C           73.854        162.644 
     29       C           31.385        117.722 
     30       C           34.585        117.012 
     31       C           67.712        147.009 
     32       C           63.756        167.160 
     33       C          123.716         75.621 
     34       C          123.730         78.729 
     35       C          123.180         76.955 
     41       C          123.482         72.093 
     42       H           25.496          9.767 
     43       H           25.917          7.291 
     44       H           29.482          5.653 
     45       H           29.197          4.357 
     46       H           30.298          4.839 
     47       H           29.249          4.531 
     48       H           28.619          8.496 
     49       H           28.537          3.417 
     50       H           24.519         10.438 
     51       H           24.512          3.438 
     52       H           24.680          5.557 
     53       H           28.080          4.686 
     54       H           27.883          7.711 
     55       H           27.288          5.563 
     56       H           27.837          8.077 
     57       H           25.473         12.559 
     58       H           26.507          2.222 
     59       H           27.018          5.972 
     60       H           27.407          6.520 
     61       H           27.813          5.587 
     62       H           29.310         13.855 
     63       H           24.583         11.689 
     64       H           25.200          4.648 
     65       H           25.259          5.772 
     66       H           28.206          9.245 
     67       H           28.702          9.410 
     68       H           27.601          6.949 
     69       H           27.938          9.690 
     70       H           27.466          9.527 
     71       H           27.882          7.709 
     72       H           27.810          9.213 
     73       H           27.392          8.657 
     74       H           27.515          4.833 
     75       H           27.665         20.210 
     76       H           27.456         24.773 
     77       H           26.937         25.032 
     78       H           25.823         15.137 
     79       H           27.975          9.980 
     80       H           27.959          4.379 
     81       H           27.387          6.121 


NMR shielding tensor and spin rotation calculation done in   2.4 sec 

Maximum memory used throughout the entire PROP-calculation: 369.4 MB
[c03b01n04:1566382] 53 more processes have sent help message help-mpi-btl-openib.txt / error in device init
[c03b01n04:1566382] Set MCA parameter "orte_base_help_aggregate" to 0 to see all help / error messages
[c03b01n04:1566382] 4 more processes have sent help message help-mpi-btl-openib.txt / no active ports found
--------------------------------------------------------------------------
WARNING: There was an error initializing an OpenFabrics device.

  Local host:   c03b01n04
  Local device: mlx5_0
--------------------------------------------------------------------------
--------------------------------------------------------------------------
WARNING: There is at least one non-excluded one OpenFabrics device found,
but there are no active ports detected (or Open MPI was unable to use
them).  This is most certainly not what you wanted.  Check your
cables, subnet manager configuration, etc.  The openib BTL will be
ignored for this job.

  Local host: c03b01n04
--------------------------------------------------------------------------
[c03b01n04:1566836] 49 more processes have sent help message help-mpi-btl-openib.txt / error in device init
[c03b01n04:1566836] Set MCA parameter "orte_base_help_aggregate" to 0 to see all help / error messages
[c03b01n04:1566836] 9 more processes have sent help message help-mpi-btl-openib.txt / no active ports found

--------------------------------
SUGGESTED CITATIONS FOR THIS RUN
--------------------------------

Below you find a list of papers that are relevant to this ORCA run
We neither can nor want to force you to cite these papers, but we appreciate if you do
You receive ORCA, which is the product of decades of hard work by many enthusiastic individuals, for free
The only thing we kindly ask in return is that you cite our papers,
We deeply appreciate it, if you show your appreciation for ORCA by not just citing the generic ORCA reference.

Please note that relegating all ORCA citations to the supporting information does *not* help us.
SI sections are not indexed - citations you put there will not count into any citation statistics
But we need these citations in order to attract the funding resources that allow us to do what we are doing

Therefore, if you are a happy ORCA user, please consider citing a few of the papers listed below in the main body of your paper

In addition to the list printed below, the program has created the file nmr-conf-9.bibtex that contains the list in bibtex format
You can import this file easily into all common literature databanks and citation aid programs


List of essential papers. We consider these as the minimum necessary citations

  1. Neese, F.
     Software update: the ORCA program system, version 6.0
     WIRES Comput. Molec. Sci. 2025 15(1), e70019
     doi.org/10.1002/wcms.7019

List of papers to cite with high priority. The work reported in these papers was absolutely
necessary for this run to complete.
Our perspective: the developers of density functionals and basis sets usually get cited in chemistry papers
Good! But without the algorithms to do something with them, the functionals or basis sets would not do anything.
Hence, in our opinion, the algorithm design and method developments papers are equally worthy of getting cited

  1. Neese, F.
     An improvement of the resolution of the identity approximation for the formation of the Coulomb matrix
     J. Comp. Chem. 2003 24(14), 1740-1747
     doi.org/10.1002/jcc.10318
  2. Stoychev, G.L.; Auer, A.A.; Neese, F.
     Automatic Generation of Auxiliary Basis Sets
     J. Theo. Comp. Chem. 2017 13 , 554-562
     doi.org/10.1021/acs.jctc.6b01041
  3. Stoychev, G.L.; Auer, A.A.; Izsak, R.; Neese, F.
     Self-Consistent Field Calculation of Nuclear Magnetic Resonance Chemical Shielding Constants Using Gauge-Including Atomic Orbitals and Approximate Two-Electron Integrals
     J. Chem. Theory Comput. 2018 14(2), 619-637
     doi.org/10.1021/acs.jctc.7b01006
  4. Garcia-Rates, M.; Neese, F.
     Effect of the Solute Cavity on the Solvation Energy and its Derivatives within the Framework of the Gaussian Charge Scheme
     J. Comput. Chem. 2020 41 , 922-939
     doi.org/10.1002/jcc.26139
  5. Neese, F.
     The SHARK Integral Generation and Digestion System
     J. Comp. Chem. 2022 44(3), 381
     doi.org/10.1002/jcc.26942

List of suggested additional citations. These are papers that are important in the 'surrounding' of 
of this run, or papers that preceded the highly important papers. If you like your results we are grateful for a citation.

  1. Neese, F.
     The ORCA program system
     WIRES Comput. Molec. Sci. 2012 2(1), 73-78
     doi.org/10.1002/wcms.81
  2. Neese, F.
     Software update: the ORCA program system, version 4.0
     WIRES Comput. Molec. Sci. 2018 8(1), 1-6
     doi.org/10.1002/wcms.1327
  3. Neese, F.; Wennmohs, F.; Becker, U.; Riplinger, C.
     The ORCA quantum chemistry program package
     J. Chem. Phys. 2020 152(22), 224108
     doi.org/10.1063/5.0004608
  4. Neese, F.
     Software update: The ORCA program system—Version 5.0
     WIRES Comput. Molec. Sci. 2022 12(1), e1606
     doi.org/10.1002/wcms.1606

List of optional additional citations

  1. Neese, F.
     Approximate second-order SCF convergence for spin unrestricted wavefunctions
     Chem. Phys. Lett. 2000 325(1-3), 93-98
     doi.org/10.1016/s0009-2614(00)00662-x

Timings for individual modules:

Sum of individual times          ...      283.925 sec (=   4.732 min)
Startup calculation              ...       77.297 sec (=   1.288 min)  27.2 %
SCF iterations                   ...      136.692 sec (=   2.278 min)  48.1 %
Property integrals               ...       51.549 sec (=   0.859 min)  18.2 %
SCF Response                     ...       12.046 sec (=   0.201 min)   4.2 %
Property calculations            ...        6.341 sec (=   0.106 min)   2.2 %
                             ****ORCA TERMINATED NORMALLY****
TOTAL RUN TIME: 0 days 0 hours 4 minutes 50 seconds 448 msec
