
                                 *****************
                                 * O   R   C   A *
                                 *****************

                                            #,                                       
                                            ###                                      
                                            ####                                     
                                            #####                                    
                                            ######                                   
                                           ########,                                 
                                     ,,################,,,,,                         
                               ,,#################################,,                 
                          ,,##########################################,,             
                       ,#########################################, ''#####,          
                    ,#############################################,,   '####,        
                  ,##################################################,,,,####,       
                ,###########''''           ''''###############################       
              ,#####''   ,,,,##########,,,,          '''####'''          '####       
            ,##' ,,,,###########################,,,                        '##       
           ' ,,###''''                  '''############,,,                           
         ,,##''                                '''############,,,,        ,,,,,,###''
      ,#''                                            '''#######################'''  
     '                                                          ''''####''''         
             ,#######,   #######,   ,#######,      ##                                
            ,#'     '#,  ##    ##  ,#'     '#,    #''#        ,####,    ,#,          
            ##       ##  ##   ,#'  ##            #'  '#       #'       ,# #          
            ##       ##  #######   ##           ,######,      #####,      #          
            '#,     ,#'  ##    ##  '#,     ,#' ,#      #,     #,   #      #          
             '#######'   ##     ##  '#######'  #'      '#     '####' #    #          



                #########################################################
                #                        -***-                          #
                #          Department of theory and spectroscopy        #
                #                                                       #
                #                      Frank Neese                      #
                #                                                       #
                #     Directorship, Architecture, Infrastructure        #
                #                    SHARK, DRIVERS                     #
                #        Core code/Algorithms in most modules           #
                #                                                       #
                #        Max Planck Institute fuer Kohlenforschung      #
                #                Kaiser Wilhelm Platz 1                 #
                #                 D-45470 Muelheim/Ruhr                 #
                #                      Germany                          #
                #                                                       #
                #                  All rights reserved                  #
                #                        -***-                          #
                #########################################################


                         Program Version 6.1.0-f.0  -   RELEASE   -


 With contributions from (in alphabetic order):
[Max-Planck-Institut fuer Kohlenforschung]                               
  Daniel Aravena         : Magnetic Suceptibility                        
  Michael Atanasov       : Ab Initio Ligand Field Theory (pilot matlab implementation)
  Alexander A. Auer      : GIAO ZORA, VPT2 properties, NMR spectrum      
  Ute Becker             : All parallelization in ORCA, NUMFREQ, NUMCALC 
  Giovanni Bistoni       : ED, misc. LED, open-shell LED, HFLD           
  Dmytro Bykov           : pre 5.0 version of the SCF Hessian            
  Marcos Casanova-Páez   : Triplet and SCS-CIS(D). UHF-(DLPNO)-IP/EA/STEOM-CCSD. UHF-CVS-IP/STEOM-CCSD   
  Vijay G. Chilkuri      : MRCI spin determinant printing, contributions to CSF-ICE 
  Pauline Colinet        : FMM embedding                                 
  Dipayan Datta          : RHF DLPNO-CCSD density                        
  Achintya Kumar Dutta   : EOM-CC, STEOM-CC                              
  Nicolas Foglia         : Exact transition moments, OPA infrastructure, MCD improvements    
  Dmitry Ganyushin       : Spin-Orbit,Spin-Spin,Magnetic field MRCI      
  Miquel Garcia-Rates    : C-PCM and meta-GGA Hessian, CCSD/C-PCM, Gaussian charge scheme 
  Tiago L. C. Gouveia    : GS-ROHF, GS-ROCIS                             
  Yang Guo               : DLPNO-NEVPT2, F12-NEVPT2, CIM, IAO-localization        
  Andreas Hansen         : Spin unrestricted coupled pair/coupled cluster methods 
  Ingolf Harden          : AUTO-CI MPn and infrastructure                
  Benjamin Helmich-Paris : MC-RPA, TRAH-(SCF,CASSCF), AVAS, COSX integrals, SCF dyn. polar., MC-PDFT, srDFT 
  Lee Huntington         : MR-EOM, pCC                                   
  Robert Izsak           : Overlap fitted RIJCOSX, COSX-SCS-MP3, EOM     
  Riya Kayal             : Wick's Theorem for AUTO-CI, AUTO-CI UHF-CCSDT 
  Emily Kempfer          : AUTO-CI RHF CISDT and CCSDT, approximate NEVPT4
  Christian Kollmar      : KDIIS, OOCD, Brueckner-CCSD(T), CCSD density, CASPT2, CASPT2-K, improved NEVPT2 
  Axel Koslowski         : Symmetry handling                             
  Simone Kossmann        : meta-GGA functionals, TD-DFT gradient, OOMP2, (MP2 Hessian; deprecated post 5.0) 
  Lucas Lang             : DCDCAS, Hyperfine gauge corrections, ICE-SOC+SSC
  Marvin Lechner         : AUTO-CI (C++ implementation), FIC-MRCC        
  Spencer Leger          : CASSCF response                               
  Dagmar Lenk            : GEPOL surface, SMD, ORCA-2-JSON               
  Dimitrios Liakos       : Extrapolation schemes; Compound Job, Property file
  Dimitrios Manganas     : Further ROCIS development; embedding schemes. LFT, Crystal Embedding 
  Dimitrios Pantazis     : SARC Basis sets                               
  Anastasios Papadopoulos: AUTO-CI, single reference methods and gradients 
  Taras Petrenko         : pre 6.0 DFT Hessian and TD-DFT gradient,  ECA, NRVS 
  Petra Pikulova         : Analytic Raman intensities                    
  Peter Pinski           : DLPNO-MP2, DLPNO-MP2 Gradient                 
  Shashank Vittal Rao    : ES-AILFT, MagRelax                            
  Christoph Reimann      : Effective Core Potentials                     
  Marius Retegan         : Local ZFS, SOC                                
  Christoph Riplinger    : Optimizer, TS searches, QM/MM, DLPNO-CCSD(T), (RO)-DLPNO pert. Triples 
  Michael Roemelt        : Original ROCIS implementation, recursive CI coupling coefficients
  Masaaki Saitow         : Open-shell DLPNO-CCSD energy and density      
  Barbara Sandhoefer     : DKH picture change effects                    
  Yorick L. A. Schmerwitz: GMF and freeze-and-release deltaSCF, NEB S-IDPP initial path                    
  Kantharuban Sivalingam : CASSCF convergence/infrastructure, NEVPT2, NEVPT3, NEVPT4(SD), FIC-MRCI and CEPA variants
  Bernardo de Souza      : ESD, SOC TD-DFT                               
  Georgi L. Stoychev     : AutoAux, RI-MP2 NMR, DLPNO-MP2 response, X2C  
  Van Anh Tran           : RI-MP2 g-tensors                              
  Willem Van den Heuvel  : Paramagnetic NMR                              
  Zikuan Wang            : NOTCH, Electric field optimization            
  Frank Wennmohs         : Technical directorship and infrastructure     
  Hang Xu                : AUTO-CI-Response properties                   
                                                                         
[FACCTs GmbH]                                                            
  Markus Bursch, Nicolas Foglia, Miquel Garcia-Rates, Ingolf Harden, Hagen Neugebauer, Anastasios Papadopoulos, 
  Christoph Riplinger, Bernardo de Souza, Georgi L. Stoychev                                                    
                                                                 
  APM, various basis sets, CI-OPT, improved COSX, DLPNO-Multilevel,           
  DOCKER, DRACO, updates on ESD, Fragmentator, GOAT, IRC, LR-CPCM, L-BFGS, MBIS, meta-GGA TD-DFT gradient, ML-optimized integration grids, 
  MM, NACMEs, nearIR, NEB, NEB-TS, NL-DFT gradient (VV10), 2- and 3-layer-ONIOM, interface openCOSMO-RS, QMMM,   
  Crystal-QMMM, RESP, rigid body optimization, SF, symmetry and pop. for TD-DFT, various functionals, SOLVATOR                                   
                                                                         
[Other institutions]                                                     
  V. Asgeirsson          : NEB                                           
  Christoph Bannwarth    : sTDA-DFT, sTD-DFT, PBEh-3c, B97-3c, D3        
  Giovanni Bistoni       : ETS/NOCV, ADLD/ADEX, COVALED                  
  Martin Brehm           : Molecular dynamics                            
  Ronald Cardenas        : ETS/NOCV                                      
  Martina Colucci        : COVALED                                       
  Sebastian Ehlert       : rSCAN, r2SCAN, r2SCAN-3c, D4, dhf basis sets  
  Marvin Friede          : D4 for Fr, Ra, Ac-Lr                          
  Lars Goerigk           : TD-DFT with DH, B97 family of functionals     
  Stefan Grimme          : VdW corrections, initial TS optimization, DFT functionals, gCP, sTDA/sTD-DF 
  Waldemar Hujo          : DFT-NL                                        
  H. Jonsson             : NEB                                           
  Holger Kruse           : gCP                                           
  Marcel Mueller         : wB97X-3c, vDZP basis set                      
  Hagen Neugebauer       : wr2SCAN, Native XTB                           
  Gianluca Regni         : ADLD/ADEX                                     
  Tobias Risthaus        : pre 6.0 range-separated hybrid DFT and stability analysis
  Lukas Wittmann         : regularized MP2, r2SCAN double-hybrids, wr2SCAN        
                                                                         
We gratefully acknowledge several colleagues who have allowed us to      
interface, adapt or use parts of their codes:                            
  Ed Valeev, F. Pavosevic, A. Kumar             : LibInt (2-el integral package), F12 methods 
  Garnet Chan, S. Sharma, J. Yang, R. Olivares  : DMRG                   
  Ulf Ekstrom                                   : XCFun DFT Library      
  Mihaly Kallay                                 : mrcc  (arbitrary order and MRCC methods)
  Frank Weinhold                                : gennbo (NPA and NBO analysis)           
  Simon Mueller                                 : openCOSMO-RS                            
  Christopher J. Cramer and Donald G. Truhlar   : smd solvation model                     
  S Lehtola, MJT Oliveira, MAL Marques          : LibXC Library                           
  Liviu Ungur et al                             : ANISO software                          


 Your calculation uses the libint2 library for the computation of 2-el integrals
 For citations please refer to: http://libint.valeyev.net

 Your ORCA version has been built with support for libXC version: 7.0.0
 For citations please refer to: https://libxc.gitlab.io

 This ORCA versions uses:
   CBLAS   interface :  Fast vector & matrix operations
   LAPACKE interface :  Fast linear algebra routines
   SCALAPACK package :  Parallel linear algebra routines
   Shared memory     :  Shared parallel matrices
   BLAS/LAPACK       :  OpenBLAS 0.3.29  USE64BITINT DYNAMIC_ARCH NO_AFFINITY Cooperlake SINGLE_THREADED
        Core in use  :  Cooperlake
   Copyright (c) 2011-2014, The OpenBLAS Project


  ***********************************
  * Starting time: Tue Mar  3 21:27:20 2026
  * Host name:     c01b01n07
  * Process ID:    61557
  * Working dir.:  /lustre1/jiangy/jiangy_liuxy/NMR/B9D7C2-SRSS-NMR/opt_conf
  ***********************************

NOTE: MaxCore=5000 MB was set to SCF,MP2,MDCI,CIPSI,MRCI,RASCI and CIS
      => If you want to overwrite this, your respective input block should be placed after the MaxCore statement


***************************************
The coordinates will be read from file: opt-conf-8.xyz
***************************************



Warning: The global flag for NMR shieldings has been found
         but shieldings for certain elements have also been explicitly requested in the EPRNMR block
         ==>> only the requested shieldings will be calculated

================================================================================

----- Orbital basis set information -----
Your calculation utilizes the basis: pcSseg-2
   F. Jensen, J. Chem. Theory Comput. 11, 132 (2015).

----- AuxJ basis set information -----
Your calculation utilizes the AutoAux generation procedure.
  G. L. Stoychev, A. A. Auer, F. Neese, J. Chem. Theory Comput. 13, 554 (2017)

----- AuxC basis set information -----
Your calculation utilizes the AutoAux generation procedure.
  G. L. Stoychev, A. A. Auer, F. Neese, J. Chem. Theory Comput. 13, 554 (2017)

----- AuxJK basis set information -----
Your calculation utilizes the AutoAux generation procedure.
  G. L. Stoychev, A. A. Auer, F. Neese, J. Chem. Theory Comput. 13, 554 (2017)

----- AuxX basis set information -----
Your calculation utilizes the AutoAux generation procedure.
  G. L. Stoychev, A. A. Auer, F. Neese, J. Chem. Theory Comput. 13, 554 (2017)

================================================================================
                                        WARNINGS
                       Please study these warnings very carefully!
================================================================================


================================================================================
                                       INPUT FILE
================================================================================
NAME = nmr-conf-8.inp
|  1> !TPSS PCSSEG-2 AUTOAUX NMR CPCM(Methanol)
|  2> 
|  3> %pal nprocs 60 end
|  4> %maxcore 5000
|  5> 
|  6> *XYZFILE 0 1 opt-conf-8.xyz
|  7> 
|  8> %EPRNMR
|  9>    NUCLEI = ALL C {SHIFT}
| 10>    NUCLEI = ALL H {SHIFT}
| 11>    TAU DOBSON
| 12> END
| 13> 
| 14> 
| 15>                          ****END OF INPUT****
================================================================================

                       ****************************
                       * Single Point Calculation *
                       ****************************

---------------------------------
CARTESIAN COORDINATES (ANGSTROEM)
---------------------------------
  C     10.521490   -7.894298   -2.178597
  C     11.098265   -9.058642   -2.686637
  C     10.395646  -10.265152   -2.596426
  C      9.143948  -10.296632   -1.989037
  C      8.567621   -9.127970   -1.495444
  C      9.255209   -7.923142   -1.600430
  C      7.219908   -9.200281   -0.824424
  C      7.296073   -9.735576    0.621602
  C      5.981837  -10.386352    1.102571
  C      5.817561  -11.810375    0.535792
  C      6.926187  -12.767875    0.897243
  C      7.298996  -12.948863    2.234993
  C      8.302025  -13.842019    2.575044
  C      8.945058  -14.593503    1.578408
  C      8.589755  -14.412742    0.255751
  C      7.589238  -13.500146   -0.079894
  C      7.809102   -8.647714    1.566843
  C      4.708542   -9.598229    0.792620
  O     11.015704  -11.353660   -3.122504
  O     11.298233   -6.772481   -2.264133
  O     12.314170   -8.963592   -3.319880
  O      9.918375  -15.490296    1.914370
  O      8.756895  -14.080324    3.841079
  C     13.457741   -9.629732   -2.754039
  C     13.846635   -9.036149   -1.387578
  C     12.932814   -9.499992   -0.261897
  C     14.548368   -9.457730   -3.807595
  O     15.711623  -10.218426   -3.492294
  C     12.750968  -10.872520   -0.057770
  C     11.895143  -11.331025    0.929439
  C     11.215077  -10.412351    1.741705
  C     11.424690   -9.058916    1.572594
  C     12.282191   -8.603849    0.572092
  C     10.805904   -5.563810   -1.682199
  C     10.365113  -12.617679   -3.005632
  C      8.185589  -13.335003    4.915559
  O     13.969768   -7.625422   -1.465491
  O      8.046038   -9.122143    2.894203
  O      4.663149   -8.288563    1.366933
  O     11.627508  -12.637417    1.204860
  O     10.350840  -10.860419    2.708220
  C     12.320399  -13.640834    0.462841
  H      8.604912  -11.228299   -1.901113
  H      8.809572   -7.021032   -1.209001
  H      6.576286   -9.857717   -1.412318
  H      6.749676   -8.214017   -0.827514
  H      8.052393  -10.526343    0.629484
  H      6.047639  -10.469790    2.191825
  H      4.864594  -12.212467    0.896712
  H      5.734641  -11.766524   -0.553444
  H      6.802296  -12.382426    3.009399
  H      9.101844  -14.983022   -0.509039
  H      7.325930  -13.363521   -1.121609
  H      8.727434   -8.218764    1.154462
  H      7.076651   -7.846467    1.655251
  H      4.596757   -9.449121   -0.282632
  H      3.844959  -10.182418    1.131421
  H     10.041930  -15.460989    2.875130
  H     13.247664  -10.692553   -2.641390
  H     14.851376   -9.410032   -1.169134
  H     14.788772   -8.398988   -3.929303
  H     14.166990   -9.835307   -4.757168
  H     16.290073   -9.690910   -2.929466
  H     13.271482  -11.584028   -0.682085
  H     10.909819   -8.360183    2.219217
  H     12.425529   -7.541270    0.440881
  H     10.614464   -5.694058   -0.615122
  H     11.590297   -4.825500   -1.828282
  H      9.893501   -5.234924   -2.183286
  H      9.413921  -12.621352   -3.543366
  H     11.041341  -13.341978   -3.452795
  H     10.190724  -12.874027   -1.958978
  H      8.702047  -13.662005    5.814332
  H      8.339721  -12.263474    4.769386
  H      7.116899  -13.541977    5.007845
  H     13.131480   -7.264790   -1.805391
  H      8.764608   -9.775065    2.862042
  H      4.715691   -8.377672    2.326832
  H     10.298367  -11.827183    2.653924
  H     12.102098  -13.557146   -0.603289
  H     13.398374  -13.560401    0.621973
  H     11.954183  -14.590644    0.839265

----------------------------
CARTESIAN COORDINATES (A.U.)
----------------------------
  NO LB      ZA    FRAG     MASS         X           Y           Z
   0 C     6.0000    0    12.011   19.882735  -14.918061   -4.116951
   1 C     6.0000    0    12.011   20.972681  -17.118352   -5.077009
   2 C     6.0000    0    12.011   19.644924  -19.398327   -4.906534
   3 C     6.0000    0    12.011   17.279558  -19.457815   -3.758735
   4 C     6.0000    0    12.011   16.190457  -17.249363   -2.825980
   5 C     6.0000    0    12.011   17.489811  -14.972568   -3.024374
   6 C     6.0000    0    12.011   13.643648  -17.386012   -1.557936
   7 C     6.0000    0    12.011   13.787580  -18.397573    1.174657
   8 C     6.0000    0    12.011   11.304033  -19.627361    2.083558
   9 C     6.0000    0    12.011   10.993598  -22.318374    1.012500
  10 C     6.0000    0    12.011   13.088596  -24.127787    1.695543
  11 C     6.0000    0    12.011   13.793103  -24.469804    4.223525
  12 C     6.0000    0    12.011   15.688554  -26.157625    4.866129
  13 C     6.0000    0    12.011   16.903709  -27.577723    2.982759
  14 C     6.0000    0    12.011   16.232285  -27.236135    0.483299
  15 C     6.0000    0    12.011   14.341582  -25.511579   -0.150977
  16 C     6.0000    0    12.011   14.757065  -16.341810    2.960903
  17 C     6.0000    0    12.011    8.897855  -18.138025    1.497834
  18 O     8.0000    0    15.999   20.816664  -21.455309   -5.900678
  19 O     8.0000    0    15.999   21.350566  -12.798134   -4.278591
  20 O     8.0000    0    15.999   23.270410  -16.938733   -6.273664
  21 O     8.0000    0    15.999   18.743013  -29.272417    3.617635
  22 O     8.0000    0    15.999   16.548132  -26.607956    7.258588
  23 C     6.0000    0    12.011   25.431444  -18.197557   -5.204380
  24 C     6.0000    0    12.011   26.166348  -17.075847   -2.622142
  25 C     6.0000    0    12.011   24.439476  -17.952384   -0.494914
  26 C     6.0000    0    12.011   27.492432  -17.872519   -7.195312
  27 O     8.0000    0    15.999   29.690665  -19.310026   -6.599479
  28 C     6.0000    0    12.011   24.095837  -20.546086   -0.109170
  29 C     6.0000    0    12.011   22.478563  -21.412534    1.756386
  30 C     6.0000    0    12.011   21.193424  -19.676492    3.291346
  31 C     6.0000    0    12.011   21.589535  -17.118871    2.971771
  32 C     6.0000    0    12.011   23.209977  -16.258919    1.081097
  33 C     6.0000    0    12.011   20.420199  -10.514077   -3.178895
  34 C     6.0000    0    12.011   19.587224  -23.843957   -5.679822
  35 C     6.0000    0    12.011   15.468521  -25.199504    9.289061
  36 O     8.0000    0    15.999   26.399037  -14.409959   -2.769378
  37 O     8.0000    0    15.999   15.204808  -17.238353    5.469250
  38 O     8.0000    0    15.999    8.812075  -15.663113    2.583128
  39 O     8.0000    0    15.999   21.972805  -23.881257    2.276856
  40 O     8.0000    0    15.999   19.560253  -20.523217    5.117795
  41 C     6.0000    0    12.011   23.282180  -25.777441    0.874643
  42 H     1.0000    0     1.008   16.260928  -21.218410   -3.592583
  43 H     1.0000    0     1.008   16.647678  -13.267828   -2.284680
  44 H     1.0000    0     1.008   12.427380  -18.628386   -2.668894
  45 H     1.0000    0     1.008   12.755038  -15.522242   -1.563775
  46 H     1.0000    0     1.008   15.216818  -19.891905    1.189552
  47 H     1.0000    0     1.008   11.428381  -19.785036    4.141949
  48 H     1.0000    0     1.008    9.192750  -23.078217    1.694539
  49 H     1.0000    0     1.008   10.836901  -22.235507   -1.045858
  50 H     1.0000    0     1.008   12.854477  -23.399394    5.686940
  51 H     1.0000    0     1.008   17.199992  -28.313809   -0.961944
  52 H     1.0000    0     1.008   13.844001  -25.253394   -2.119534
  53 H     1.0000    0     1.008   16.492460  -15.531213    2.181616
  54 H     1.0000    0     1.008   13.372932  -14.827674    3.127971
  55 H     1.0000    0     1.008    8.686611  -17.856251   -0.534096
  56 H     1.0000    0     1.008    7.265919  -19.241981    2.138075
  57 H     1.0000    0     1.008   18.976497  -29.217035    5.433209
  58 H     1.0000    0     1.008   25.034456  -20.205996   -4.991504
  59 H     1.0000    0     1.008   28.065033  -17.782384   -2.209343
  60 H     1.0000    0     1.008   27.946729  -15.871787   -7.425307
  61 H     1.0000    0     1.008   26.771731  -18.586037   -8.989744
  62 H     1.0000    0     1.008   30.783777  -18.313165   -5.535888
  63 H     1.0000    0     1.008   25.079467  -21.890640   -1.288954
  64 H     1.0000    0     1.008   20.616570  -15.798457    4.193712
  65 H     1.0000    0     1.008   23.480847  -14.250935    0.833144
  66 H     1.0000    0     1.008   20.058430  -10.760210   -1.162412
  67 H     1.0000    0     1.008   21.902487   -9.118873   -3.454953
  68 H     1.0000    0     1.008   18.696008   -9.892573   -4.125813
  69 H     1.0000    0     1.008   17.789733  -23.850898   -6.695991
  70 H     1.0000    0     1.008   20.865111  -25.212685   -6.524837
  71 H     1.0000    0     1.008   19.257677  -24.328385   -3.701932
  72 H     1.0000    0     1.008   16.444486  -25.817447   10.987496
  73 H     1.0000    0     1.008   15.759789  -23.174607    9.012834
  74 H     1.0000    0     1.008   13.448991  -25.590629    9.463456
  75 H     1.0000    0     1.008   24.814902  -13.728464   -3.411695
  76 H     1.0000    0     1.008   16.562709  -18.472196    5.408475
  77 H     1.0000    0     1.008    8.911365  -15.831507    4.397075
  78 H     1.0000    0     1.008   19.461093  -22.350137    5.015190
  79 H     1.0000    0     1.008   22.869651  -25.619292   -1.140052
  80 H     1.0000    0     1.008   25.319258  -25.625445    1.175359
  81 H     1.0000    0     1.008   22.590131  -27.572321    1.585980

--------------------------------
INTERNAL COORDINATES (ANGSTROEM)
--------------------------------
 C      0   0   0     0.000000000000     0.00000000     0.00000000
 C      1   0   0     1.395159583494     0.00000000     0.00000000
 C      2   1   0     1.399099617739   119.24787004     0.00000000
 C      3   2   1     1.391639264725   119.95650837   359.15006476
 C      4   3   2     1.393398095003   120.50786679     1.49936427
 C      5   4   3     1.391190381969   119.68310283   359.41382554
 C      5   4   3     1.507258519453   119.16308260   180.92558884
 C      7   5   4     1.543804873821   112.92442734    77.85336044
 C      8   7   5     1.543391496955   113.33371263   205.06161924
 C      9   8   7     1.541449553142   111.45041850    78.23964932
 C     10   9   8     1.508808418794   114.82653364    58.84805896
 C     11  10   9     1.400471054394   120.42709011    52.82788582
 C     12  11  10     1.385435296238   120.69675620   178.99033490
 C     13  12  11     1.404102087717   120.15722712   359.05485020
 C     14  13  12     1.381425774935   119.45802844     1.42985118
 C     11  10   9     1.389479830568   121.10470880   232.07026339
 C      8   7   5     1.529746398957   110.41016537    76.96174351
 C      9   8   7     1.529210958039   115.37531257   314.29509026
 O      3   2   1     1.358705398281   115.89428062   179.46725237
 O      1   2   3     1.367157399473   115.28589484   177.65552293
 O      2   1   3     1.374211566598   118.41556088   176.80617265
 O     14  13  12     1.365450880087   120.21946849   181.08960499
 O     13  12  11     1.366213575650   125.51684256   178.94329020
 C     21   2   1     1.439330463132   119.32892564   116.19355098
 C     24  21   2     1.539739312530   111.78593295   294.88037555
 C     25  24  21     1.522293071687   112.77823920    77.25278026
 C     24  21   2     1.526116974162   104.13671683   172.71586170
 O     27  24  21     1.425214151371   111.74065157   187.98410746
 C     26  25  24     1.399488722263   118.99201617    54.43092969
 C     29  26  25     1.384645881439   120.60124540   182.01214675
 C     30  29  26     1.402222421164   119.72392200   359.31885080
 C     31  30  29     1.379971632898   119.86119724   358.57218730
 C     26  25  24     1.386333191994   121.97898567   234.01846672
 C     20   1   2     1.428958081776   118.21790560   184.11617771
 C     19   3   2     1.426418825885   118.03786544   177.43094642
 C     23  13  12     1.427024982497   118.25173574   358.46847892
 O     25  24  21     1.418232628278   110.89414471   308.94896031
 O     17   8   7     1.429372729971   113.16380976   186.63142554
 O     18   9   8     1.430776956338   114.63345966   300.14783155
 O     30  29  26     1.361670180283   125.68904906   179.04541235
 O     31  30  29     1.371795261945   119.97925047   179.03523163
 C     40  30  29     1.427422805151   118.28563089     2.86331223
 H      4   3   2     1.079950594491   120.26412547   181.08333788
 H      6   5   4     1.079634955676   119.48983128   180.54515541
 H      7   5   4     1.091828244594   108.43727806   317.01976634
 H      7   5   4     1.092632522080   109.89194371   200.67223063
 H      8   7   5     1.094255141486   106.94284228   321.93413669
 H      9   8   7     1.094424736919   106.92431547   195.53931797
 H     10   9   8     1.095485205615   108.09843353   180.89558440
 H     10   9   8     1.093267428943   109.71642090   296.15256895
 H     12  11  10     1.080400492934   119.63924178   358.69541524
 H     15  14  13     1.082754388146   119.06012272   178.93952795
 H     16  11  10     1.083129246247   119.59511871     1.66168700
 H     17   8   7     1.094252905168   109.10834865   309.36365729
 H     17   8   7     1.089172656086   110.35113688    67.69496174
 H     18   9   8     1.091281383218   110.81928371    59.41128007
 H     18   9   8     1.096283798062   108.58028695   176.96740450
 H     22  14  13     0.969115830659   108.35719305   358.95873555
 H     24  21   2     1.089224453610   109.81684371    56.57037741
 H     25  24  21     1.094079817249   106.10489587   194.59807946
 H     27  24  21     1.092493131218   110.08350074    63.85302032
 H     27  24  21     1.090734634960   108.18668148   305.58306991
 H     28  27  24     0.964185185750   109.07410082   272.19508061
 H     29  26  25     1.080253659794   119.93742269     1.23068768
 H     32  31  30     1.082331416461   119.18918550   181.26714573
 H     33  26  25     1.080202367334   120.03426921   359.26710729
 H     34  20   1     1.091909805740   110.94626686    58.68882590
 H     34  20   1     1.087066945971   105.73218017   177.68678259
 H     34  20   1     1.091665150650   110.84599449   296.48064133
 H     35  19   3     1.092673619783   111.08184778    63.06088787
 H     35  19   3     1.087129165333   105.84197597   182.04926135
 H     35  19   3     1.091609671753   111.07086881   301.06614971
 H     36  23  13     1.086946136368   105.97680738   181.30564996
 H     36  23  13     1.092381811009   110.79825792   300.35877558
 H     36  23  13     1.092452349120   110.87273132    62.26663904
 H     37  25  24     0.973814100484   108.22840409    56.01783914
 H     38  17   8     0.971434254591   108.35823215    64.60273560
 H     39  18   9     0.965457559460   108.23266392   299.47535017
 H     41  31  30     0.969708318575   108.67973408   356.92410007
 H     42  40  30     1.091463840219   110.90257133   299.16457247
 H     42  40  30     1.092622224319   110.57600291    60.84608936
 H     42  40  30     1.085333044755   105.72965624   180.22492428

---------------------------
INTERNAL COORDINATES (A.U.)
---------------------------
 C      0   0   0     0.000000000000     0.00000000     0.00000000
 C      1   0   0     2.636469525920     0.00000000     0.00000000
 C      2   1   0     2.643915111600   119.24787004     0.00000000
 C      3   2   1     2.629817087541   119.95650837   359.15006476
 C      4   3   2     2.633140795083   120.50786679     1.49936427
 C      5   4   3     2.628968822067   119.68310283   359.41382554
 C      5   4   3     2.848305814786   119.16308260   180.92558884
 C      7   5   4     2.917368415734   112.92442734    77.85336044
 C      8   7   5     2.916587246668   113.33371263   205.06161924
 C      9   8   7     2.912917504693   111.45041850    78.23964932
 C     10   9   8     2.851234700075   114.82653364    58.84805896
 C     11  10   9     2.646506751289   120.42709011    52.82788582
 C     12  11  10     2.618093286158   120.69675620   178.99033490
 C     13  12  11     2.653368409853   120.15722712   359.05485020
 C     14  13  12     2.610516388966   119.45802844     1.42985118
 C     11  10   9     2.625736348381   121.10470880   232.07026339
 C      8   7   5     2.890801748381   110.41016537    76.96174351
 C      9   8   7     2.889789911685   115.37531257   314.29509026
 O      3   2   1     2.567581099431   115.89428062   179.46725237
 O      1   2   3     2.583553066967   115.28589484   177.65552293
 O      2   1   3     2.596883510937   118.41556088   176.80617265
 O     14  13  12     2.580328212687   120.21946849   181.08960499
 O     13  12  11     2.581769498424   125.51684256   178.94329020
 C     21   2   1     2.719940391529   119.32892564   116.19355098
 C     24  21   2     2.909685618314   111.78593295   294.88037555
 C     25  24  21     2.876717001054   112.77823920    77.25278026
 C     24  21   2     2.883943129495   104.13671683   172.71586170
 O     27  24  21     2.693264428281   111.74065157   187.98410746
 C     26  25  24     2.644650412588   118.99201617    54.43092969
 C     29  26  25     2.616601508381   120.60124540   182.01214675
 C     30  29  26     2.649816354844   119.72392200   359.31885080
 C     31  30  29     2.607768458757   119.86119724   358.57218730
 C     26  25  24     2.619790063234   121.97898567   234.01846672
 C     20   1   2     2.700339431411   118.21790560   184.11617771
 C     19   3   2     2.695540933193   118.03786544   177.43094642
 C     23  13  12     2.696686403184   118.25173574   358.46847892
 O     25  24  21     2.680071261637   110.89414471   308.94896031
 O     17   8   7     2.701123002940   113.16380976   186.63142554
 O     18   9   8     2.703776606204   114.63345966   300.14783155
 O     30  29  26     2.573183725463   125.68904906   179.04541235
 O     31  30  29     2.592317356886   119.97925047   179.03523163
 C     40  30  29     2.697438179049   118.28563089     2.86331223
 H      4   3   2     2.040810861754   120.26412547   181.08333788
 H      6   5   4     2.040214390836   119.48983128   180.54515541
 H      7   5   4     2.063256367563   108.43727806   317.01976634
 H      7   5   4     2.064776231746   109.89194371   200.67223063
 H      8   7   5     2.067842538043   106.94284228   321.93413669
 H      9   8   7     2.068163026966   106.92431547   195.53931797
 H     10   9   8     2.070167022374   108.09843353   180.89558440
 H     10   9   8     2.065976031838   109.71642090   296.15256895
 H     12  11  10     2.041661046598   119.63924178   358.69541524
 H     15  14  13     2.046109263897   119.06012272   178.93952795
 H     16  11  10     2.046817643047   119.59511871     1.66168700
 H     17   8   7     2.067838312015   109.10834865   309.36365729
 H     17   8   7     2.058238032558   110.35113688    67.69496174
 H     18   9   8     2.062222949328   110.81928371    59.41128007
 H     18   9   8     2.071676143391   108.58028695   176.96740450
 H     22  14  13     1.831363511993   108.35719305   358.95873555
 H     24  21   2     2.058335915693   109.81684371    56.57037741
 H     25  24  21     2.067511223252   106.10489587   194.59807946
 H     27  24  21     2.064512821192   110.08350074    63.85302032
 H     27  24  21     2.061189744856   108.18668148   305.58306991
 H     28  27  24     1.822045943451   109.07410082   272.19508061
 H     29  26  25     2.041383572177   119.93742269     1.23068768
 H     32  31  30     2.045309963251   119.18918550   181.26714573
 H     33  26  25     2.041286643475   120.03426921   359.26710729
 H     34  20   1     2.063410495791   110.94626686    58.68882590
 H     34  20   1     2.054258817124   105.73218017   177.68678259
 H     34  20   1     2.062948164675   110.84599449   296.48064133
 H     35  19   3     2.064853895150   111.08184778    63.06088787
 H     35  19   3     2.054376394678   105.84197597   182.04926135
 H     35  19   3     2.062843324754   111.07086881   301.06614971
 H     36  23  13     2.054030520059   105.97680738   181.30564996
 H     36  23  13     2.064302456483   110.79825792   300.35877558
 H     36  23  13     2.064435754195   110.87273132    62.26663904
 H     37  25  24     1.840241955266   108.22840409    56.01783914
 H     38  17   8     1.835744698287   108.35823215    64.60273560
 H     39  18   9     1.824450381303   108.23266392   299.47535017
 H     41  31  30     1.832483151891   108.67973408   356.92410007
 H     42  40  30     2.062567743093   110.90257133   299.16457247
 H     42  40  30     2.064756771799   110.57600291    60.84608936
 H     42  40  30     2.050982218682   105.72965624   180.22492428

---------------------
BASIS SET INFORMATION
---------------------
There are 3 groups of distinct atoms

 Group   1 Type C   : 11s7p2d1f contracted to 4s5p2d1f pattern {7211/31111/11/1}
 Group   2 Type O   : 11s7p2d1f contracted to 4s5p2d1f pattern {7211/31111/11/1}
 Group   3 Type H   : 6s3p1d contracted to 3s2p1d pattern {411/21/1}

Atom   0C    basis set group =>   1
Atom   1C    basis set group =>   1
Atom   2C    basis set group =>   1
Atom   3C    basis set group =>   1
Atom   4C    basis set group =>   1
Atom   5C    basis set group =>   1
Atom   6C    basis set group =>   1
Atom   7C    basis set group =>   1
Atom   8C    basis set group =>   1
Atom   9C    basis set group =>   1
Atom  10C    basis set group =>   1
Atom  11C    basis set group =>   1
Atom  12C    basis set group =>   1
Atom  13C    basis set group =>   1
Atom  14C    basis set group =>   1
Atom  15C    basis set group =>   1
Atom  16C    basis set group =>   1
Atom  17C    basis set group =>   1
Atom  18O    basis set group =>   2
Atom  19O    basis set group =>   2
Atom  20O    basis set group =>   2
Atom  21O    basis set group =>   2
Atom  22O    basis set group =>   2
Atom  23C    basis set group =>   1
Atom  24C    basis set group =>   1
Atom  25C    basis set group =>   1
Atom  26C    basis set group =>   1
Atom  27O    basis set group =>   2
Atom  28C    basis set group =>   1
Atom  29C    basis set group =>   1
Atom  30C    basis set group =>   1
Atom  31C    basis set group =>   1
Atom  32C    basis set group =>   1
Atom  33C    basis set group =>   1
Atom  34C    basis set group =>   1
Atom  35C    basis set group =>   1
Atom  36O    basis set group =>   2
Atom  37O    basis set group =>   2
Atom  38O    basis set group =>   2
Atom  39O    basis set group =>   2
Atom  40O    basis set group =>   2
Atom  41C    basis set group =>   1
Atom  42H    basis set group =>   3
Atom  43H    basis set group =>   3
Atom  44H    basis set group =>   3
Atom  45H    basis set group =>   3
Atom  46H    basis set group =>   3
Atom  47H    basis set group =>   3
Atom  48H    basis set group =>   3
Atom  49H    basis set group =>   3
Atom  50H    basis set group =>   3
Atom  51H    basis set group =>   3
Atom  52H    basis set group =>   3
Atom  53H    basis set group =>   3
Atom  54H    basis set group =>   3
Atom  55H    basis set group =>   3
Atom  56H    basis set group =>   3
Atom  57H    basis set group =>   3
Atom  58H    basis set group =>   3
Atom  59H    basis set group =>   3
Atom  60H    basis set group =>   3
Atom  61H    basis set group =>   3
Atom  62H    basis set group =>   3
Atom  63H    basis set group =>   3
Atom  64H    basis set group =>   3
Atom  65H    basis set group =>   3
Atom  66H    basis set group =>   3
Atom  67H    basis set group =>   3
Atom  68H    basis set group =>   3
Atom  69H    basis set group =>   3
Atom  70H    basis set group =>   3
Atom  71H    basis set group =>   3
Atom  72H    basis set group =>   3
Atom  73H    basis set group =>   3
Atom  74H    basis set group =>   3
Atom  75H    basis set group =>   3
Atom  76H    basis set group =>   3
Atom  77H    basis set group =>   3
Atom  78H    basis set group =>   3
Atom  79H    basis set group =>   3
Atom  80H    basis set group =>   3
Atom  81H    basis set group =>   3
---------------------------------
AUXILIARY/J BASIS SET INFORMATION
---------------------------------
There are 3 groups of distinct atoms

 Group   1 Type C   : 15s13p12d5f5g contracted to 15s13p12d5f5g pattern {111111111111111/1111111111111/111111111111/11111/11111}
 Group   2 Type O   : 15s13p12d5f5g contracted to 15s13p12d5f5g pattern {111111111111111/1111111111111/111111111111/11111/11111}
 Group   3 Type H   : 12s4p3d2f contracted to 12s4p3d2f pattern {111111111111/1111/111/11}

Atom   0C    basis set group =>   1
Atom   1C    basis set group =>   1
Atom   2C    basis set group =>   1
Atom   3C    basis set group =>   1
Atom   4C    basis set group =>   1
Atom   5C    basis set group =>   1
Atom   6C    basis set group =>   1
Atom   7C    basis set group =>   1
Atom   8C    basis set group =>   1
Atom   9C    basis set group =>   1
Atom  10C    basis set group =>   1
Atom  11C    basis set group =>   1
Atom  12C    basis set group =>   1
Atom  13C    basis set group =>   1
Atom  14C    basis set group =>   1
Atom  15C    basis set group =>   1
Atom  16C    basis set group =>   1
Atom  17C    basis set group =>   1
Atom  18O    basis set group =>   2
Atom  19O    basis set group =>   2
Atom  20O    basis set group =>   2
Atom  21O    basis set group =>   2
Atom  22O    basis set group =>   2
Atom  23C    basis set group =>   1
Atom  24C    basis set group =>   1
Atom  25C    basis set group =>   1
Atom  26C    basis set group =>   1
Atom  27O    basis set group =>   2
Atom  28C    basis set group =>   1
Atom  29C    basis set group =>   1
Atom  30C    basis set group =>   1
Atom  31C    basis set group =>   1
Atom  32C    basis set group =>   1
Atom  33C    basis set group =>   1
Atom  34C    basis set group =>   1
Atom  35C    basis set group =>   1
Atom  36O    basis set group =>   2
Atom  37O    basis set group =>   2
Atom  38O    basis set group =>   2
Atom  39O    basis set group =>   2
Atom  40O    basis set group =>   2
Atom  41C    basis set group =>   1
Atom  42H    basis set group =>   3
Atom  43H    basis set group =>   3
Atom  44H    basis set group =>   3
Atom  45H    basis set group =>   3
Atom  46H    basis set group =>   3
Atom  47H    basis set group =>   3
Atom  48H    basis set group =>   3
Atom  49H    basis set group =>   3
Atom  50H    basis set group =>   3
Atom  51H    basis set group =>   3
Atom  52H    basis set group =>   3
Atom  53H    basis set group =>   3
Atom  54H    basis set group =>   3
Atom  55H    basis set group =>   3
Atom  56H    basis set group =>   3
Atom  57H    basis set group =>   3
Atom  58H    basis set group =>   3
Atom  59H    basis set group =>   3
Atom  60H    basis set group =>   3
Atom  61H    basis set group =>   3
Atom  62H    basis set group =>   3
Atom  63H    basis set group =>   3
Atom  64H    basis set group =>   3
Atom  65H    basis set group =>   3
Atom  66H    basis set group =>   3
Atom  67H    basis set group =>   3
Atom  68H    basis set group =>   3
Atom  69H    basis set group =>   3
Atom  70H    basis set group =>   3
Atom  71H    basis set group =>   3
Atom  72H    basis set group =>   3
Atom  73H    basis set group =>   3
Atom  74H    basis set group =>   3
Atom  75H    basis set group =>   3
Atom  76H    basis set group =>   3
Atom  77H    basis set group =>   3
Atom  78H    basis set group =>   3
Atom  79H    basis set group =>   3
Atom  80H    basis set group =>   3
Atom  81H    basis set group =>   3
---------------------------------
AUXILIARY/C BASIS SET INFORMATION
---------------------------------
There are 3 groups of distinct atoms

 Group   1 Type C   : 15s13p12d5f5g contracted to 15s13p12d5f5g pattern {111111111111111/1111111111111/111111111111/11111/11111}
 Group   2 Type O   : 15s13p12d5f5g contracted to 15s13p12d5f5g pattern {111111111111111/1111111111111/111111111111/11111/11111}
 Group   3 Type H   : 12s4p3d2f contracted to 12s4p3d2f pattern {111111111111/1111/111/11}

Atom   0C    basis set group =>   1
Atom   1C    basis set group =>   1
Atom   2C    basis set group =>   1
Atom   3C    basis set group =>   1
Atom   4C    basis set group =>   1
Atom   5C    basis set group =>   1
Atom   6C    basis set group =>   1
Atom   7C    basis set group =>   1
Atom   8C    basis set group =>   1
Atom   9C    basis set group =>   1
Atom  10C    basis set group =>   1
Atom  11C    basis set group =>   1
Atom  12C    basis set group =>   1
Atom  13C    basis set group =>   1
Atom  14C    basis set group =>   1
Atom  15C    basis set group =>   1
Atom  16C    basis set group =>   1
Atom  17C    basis set group =>   1
Atom  18O    basis set group =>   2
Atom  19O    basis set group =>   2
Atom  20O    basis set group =>   2
Atom  21O    basis set group =>   2
Atom  22O    basis set group =>   2
Atom  23C    basis set group =>   1
Atom  24C    basis set group =>   1
Atom  25C    basis set group =>   1
Atom  26C    basis set group =>   1
Atom  27O    basis set group =>   2
Atom  28C    basis set group =>   1
Atom  29C    basis set group =>   1
Atom  30C    basis set group =>   1
Atom  31C    basis set group =>   1
Atom  32C    basis set group =>   1
Atom  33C    basis set group =>   1
Atom  34C    basis set group =>   1
Atom  35C    basis set group =>   1
Atom  36O    basis set group =>   2
Atom  37O    basis set group =>   2
Atom  38O    basis set group =>   2
Atom  39O    basis set group =>   2
Atom  40O    basis set group =>   2
Atom  41C    basis set group =>   1
Atom  42H    basis set group =>   3
Atom  43H    basis set group =>   3
Atom  44H    basis set group =>   3
Atom  45H    basis set group =>   3
Atom  46H    basis set group =>   3
Atom  47H    basis set group =>   3
Atom  48H    basis set group =>   3
Atom  49H    basis set group =>   3
Atom  50H    basis set group =>   3
Atom  51H    basis set group =>   3
Atom  52H    basis set group =>   3
Atom  53H    basis set group =>   3
Atom  54H    basis set group =>   3
Atom  55H    basis set group =>   3
Atom  56H    basis set group =>   3
Atom  57H    basis set group =>   3
Atom  58H    basis set group =>   3
Atom  59H    basis set group =>   3
Atom  60H    basis set group =>   3
Atom  61H    basis set group =>   3
Atom  62H    basis set group =>   3
Atom  63H    basis set group =>   3
Atom  64H    basis set group =>   3
Atom  65H    basis set group =>   3
Atom  66H    basis set group =>   3
Atom  67H    basis set group =>   3
Atom  68H    basis set group =>   3
Atom  69H    basis set group =>   3
Atom  70H    basis set group =>   3
Atom  71H    basis set group =>   3
Atom  72H    basis set group =>   3
Atom  73H    basis set group =>   3
Atom  74H    basis set group =>   3
Atom  75H    basis set group =>   3
Atom  76H    basis set group =>   3
Atom  77H    basis set group =>   3
Atom  78H    basis set group =>   3
Atom  79H    basis set group =>   3
Atom  80H    basis set group =>   3
Atom  81H    basis set group =>   3
----------------------------------
AUXILIARY/JK BASIS SET INFORMATION
----------------------------------
There are 3 groups of distinct atoms

 Group   1 Type C   : 15s13p12d5f5g contracted to 15s13p12d5f5g pattern {111111111111111/1111111111111/111111111111/11111/11111}
 Group   2 Type O   : 15s13p12d5f5g contracted to 15s13p12d5f5g pattern {111111111111111/1111111111111/111111111111/11111/11111}
 Group   3 Type H   : 12s4p3d2f contracted to 12s4p3d2f pattern {111111111111/1111/111/11}

Atom   0C    basis set group =>   1
Atom   1C    basis set group =>   1
Atom   2C    basis set group =>   1
Atom   3C    basis set group =>   1
Atom   4C    basis set group =>   1
Atom   5C    basis set group =>   1
Atom   6C    basis set group =>   1
Atom   7C    basis set group =>   1
Atom   8C    basis set group =>   1
Atom   9C    basis set group =>   1
Atom  10C    basis set group =>   1
Atom  11C    basis set group =>   1
Atom  12C    basis set group =>   1
Atom  13C    basis set group =>   1
Atom  14C    basis set group =>   1
Atom  15C    basis set group =>   1
Atom  16C    basis set group =>   1
Atom  17C    basis set group =>   1
Atom  18O    basis set group =>   2
Atom  19O    basis set group =>   2
Atom  20O    basis set group =>   2
Atom  21O    basis set group =>   2
Atom  22O    basis set group =>   2
Atom  23C    basis set group =>   1
Atom  24C    basis set group =>   1
Atom  25C    basis set group =>   1
Atom  26C    basis set group =>   1
Atom  27O    basis set group =>   2
Atom  28C    basis set group =>   1
Atom  29C    basis set group =>   1
Atom  30C    basis set group =>   1
Atom  31C    basis set group =>   1
Atom  32C    basis set group =>   1
Atom  33C    basis set group =>   1
Atom  34C    basis set group =>   1
Atom  35C    basis set group =>   1
Atom  36O    basis set group =>   2
Atom  37O    basis set group =>   2
Atom  38O    basis set group =>   2
Atom  39O    basis set group =>   2
Atom  40O    basis set group =>   2
Atom  41C    basis set group =>   1
Atom  42H    basis set group =>   3
Atom  43H    basis set group =>   3
Atom  44H    basis set group =>   3
Atom  45H    basis set group =>   3
Atom  46H    basis set group =>   3
Atom  47H    basis set group =>   3
Atom  48H    basis set group =>   3
Atom  49H    basis set group =>   3
Atom  50H    basis set group =>   3
Atom  51H    basis set group =>   3
Atom  52H    basis set group =>   3
Atom  53H    basis set group =>   3
Atom  54H    basis set group =>   3
Atom  55H    basis set group =>   3
Atom  56H    basis set group =>   3
Atom  57H    basis set group =>   3
Atom  58H    basis set group =>   3
Atom  59H    basis set group =>   3
Atom  60H    basis set group =>   3
Atom  61H    basis set group =>   3
Atom  62H    basis set group =>   3
Atom  63H    basis set group =>   3
Atom  64H    basis set group =>   3
Atom  65H    basis set group =>   3
Atom  66H    basis set group =>   3
Atom  67H    basis set group =>   3
Atom  68H    basis set group =>   3
Atom  69H    basis set group =>   3
Atom  70H    basis set group =>   3
Atom  71H    basis set group =>   3
Atom  72H    basis set group =>   3
Atom  73H    basis set group =>   3
Atom  74H    basis set group =>   3
Atom  75H    basis set group =>   3
Atom  76H    basis set group =>   3
Atom  77H    basis set group =>   3
Atom  78H    basis set group =>   3
Atom  79H    basis set group =>   3
Atom  80H    basis set group =>   3
Atom  81H    basis set group =>   3
---------------------------------
AUXILIARY/X BASIS SET INFORMATION
---------------------------------
There are 3 groups of distinct atoms

 Group   1 Type C   : 15s13p12d5f5g contracted to 15s13p12d5f5g pattern {111111111111111/1111111111111/111111111111/11111/11111}
 Group   2 Type O   : 15s13p12d5f5g contracted to 15s13p12d5f5g pattern {111111111111111/1111111111111/111111111111/11111/11111}
 Group   3 Type H   : 12s4p3d2f contracted to 12s4p3d2f pattern {111111111111/1111/111/11}

Atom   0C    basis set group =>   1
Atom   1C    basis set group =>   1
Atom   2C    basis set group =>   1
Atom   3C    basis set group =>   1
Atom   4C    basis set group =>   1
Atom   5C    basis set group =>   1
Atom   6C    basis set group =>   1
Atom   7C    basis set group =>   1
Atom   8C    basis set group =>   1
Atom   9C    basis set group =>   1
Atom  10C    basis set group =>   1
Atom  11C    basis set group =>   1
Atom  12C    basis set group =>   1
Atom  13C    basis set group =>   1
Atom  14C    basis set group =>   1
Atom  15C    basis set group =>   1
Atom  16C    basis set group =>   1
Atom  17C    basis set group =>   1
Atom  18O    basis set group =>   2
Atom  19O    basis set group =>   2
Atom  20O    basis set group =>   2
Atom  21O    basis set group =>   2
Atom  22O    basis set group =>   2
Atom  23C    basis set group =>   1
Atom  24C    basis set group =>   1
Atom  25C    basis set group =>   1
Atom  26C    basis set group =>   1
Atom  27O    basis set group =>   2
Atom  28C    basis set group =>   1
Atom  29C    basis set group =>   1
Atom  30C    basis set group =>   1
Atom  31C    basis set group =>   1
Atom  32C    basis set group =>   1
Atom  33C    basis set group =>   1
Atom  34C    basis set group =>   1
Atom  35C    basis set group =>   1
Atom  36O    basis set group =>   2
Atom  37O    basis set group =>   2
Atom  38O    basis set group =>   2
Atom  39O    basis set group =>   2
Atom  40O    basis set group =>   2
Atom  41C    basis set group =>   1
Atom  42H    basis set group =>   3
Atom  43H    basis set group =>   3
Atom  44H    basis set group =>   3
Atom  45H    basis set group =>   3
Atom  46H    basis set group =>   3
Atom  47H    basis set group =>   3
Atom  48H    basis set group =>   3
Atom  49H    basis set group =>   3
Atom  50H    basis set group =>   3
Atom  51H    basis set group =>   3
Atom  52H    basis set group =>   3
Atom  53H    basis set group =>   3
Atom  54H    basis set group =>   3
Atom  55H    basis set group =>   3
Atom  56H    basis set group =>   3
Atom  57H    basis set group =>   3
Atom  58H    basis set group =>   3
Atom  59H    basis set group =>   3
Atom  60H    basis set group =>   3
Atom  61H    basis set group =>   3
Atom  62H    basis set group =>   3
Atom  63H    basis set group =>   3
Atom  64H    basis set group =>   3
Atom  65H    basis set group =>   3
Atom  66H    basis set group =>   3
Atom  67H    basis set group =>   3
Atom  68H    basis set group =>   3
Atom  69H    basis set group =>   3
Atom  70H    basis set group =>   3
Atom  71H    basis set group =>   3
Atom  72H    basis set group =>   3
Atom  73H    basis set group =>   3
Atom  74H    basis set group =>   3
Atom  75H    basis set group =>   3
Atom  76H    basis set group =>   3
Atom  77H    basis set group =>   3
Atom  78H    basis set group =>   3
Atom  79H    basis set group =>   3
Atom  80H    basis set group =>   3
Atom  81H    basis set group =>   3
--------------------------------------------------------------------------
WARNING: There was an error initializing an OpenFabrics device.

  Local host:   c01b01n07
  Local device: mlx5_0
--------------------------------------------------------------------------
--------------------------------------------------------------------------
WARNING: There is at least one non-excluded one OpenFabrics device found,
but there are no active ports detected (or Open MPI was unable to use
them).  This is most certainly not what you wanted.  Check your
cables, subnet manager configuration, etc.  The openib BTL will be
ignored for this job.

  Local host: c01b01n07
--------------------------------------------------------------------------
[c01b01n07:61558] 53 more processes have sent help message help-mpi-btl-openib.txt / error in device init
[c01b01n07:61558] Set MCA parameter "orte_base_help_aggregate" to 0 to see all help / error messages
[c01b01n07:61558] 5 more processes have sent help message help-mpi-btl-openib.txt / no active ports found


           ************************************************************
           *        Program running with 60 parallel MPI-processes    *
           *              working on a common directory               *
           ************************************************************
------------------------------------------------------------------------------
                             ORCA STARTUP CALCULATIONS
                           -- RI-GTO INTEGRALS CHOSEN --
------------------------------------------------------------------------------
------------------------------------------------------------------------------
                   ___                                                        
                  /   \      - P O W E R E D   B Y -                         
                 /     \                                                     
                 |  |  |   _    _      __       _____    __    __             
                 |  |  |  | |  | |    /  \     |  _  \  |  |  /  |          
                  \  \/   | |  | |   /    \    | | | |  |  | /  /          
                 / \  \   | |__| |  /  /\  \   | |_| |  |  |/  /          
                |  |  |   |  __  | /  /__\  \  |    /   |      \           
                |  |  |   | |  | | |   __   |  |    \   |  |\   \          
                \     /   | |  | | |  |  |  |  | |\  \  |  | \   \       
                 \___/    |_|  |_| |__|  |__|  |_| \__\ |__|  \__/        
                                                                              
                      - O R C A' S   B I G   F R I E N D -                    
                                      &                                       
                       - I N T E G R A L  F E E D E R -                       
                                                                              
 v1 FN, 2020, v2 2021, v3 2022-2024                                           
------------------------------------------------------------------------------


----------------------
SHARK INTEGRAL PACKAGE
----------------------

Number of atoms                             ...     82
Number of basis functions                   ...   2072
Number of shells                            ...    744
Maximum angular momentum                    ...      3
Integral batch strategy                     ... SHARK/LIBINT Hybrid
RI-J (if used) integral strategy            ... SPLIT-RIJ (Revised 2003 algorithm where possible)
Printlevel                                  ...      1
Contraction scheme used                     ... SEGMENTED contraction
Prescreening option                         ... SCHWARTZ
   Thresh                                   ... 1.000e-10
   Tcut                                     ... 1.000e-11
   Tpresel                                  ... 1.000e-11 
Coulomb Range Separation                    ... NOT USED
Exchange Range Separation                   ... NOT USED
Multipole approximations                    ... NOT USED
Finite Nucleus Model                        ... NOT USED
CABS basis                                  ... NOT available
Auxiliary Coulomb fitting basis             ... AVAILABLE
   # of basis functions in Aux-J            ...  10268
   # of shells in Aux-J                     ...   2940
   Maximum angular momentum in Aux-J        ...      4
Auxiliary J/K fitting basis                 ... AVAILABLE
   # of basis functions in Aux-JK           ...  10268
   # of shells in Aux-JK                    ...   2940
   Maximum angular momentum in Aux-JK       ...      4
Auxiliary Correlation fitting basis         ... AVAILABLE
   # of basis functions in Aux-C            ...  10268
   # of shells in Aux-C                     ...   2940
   Maximum angular momentum in Aux-C        ...      4
Auxiliary 'external' fitting basis          ... NOT available

Checking pre-screening integrals            ... done (  0.0 sec) Dimension = 744
   => SHARK Basis and OBASIS are compatible. Storing Pre-screening
Shell pair information
Shell pair cut-off parameter TPreSel        ...   1.0e-11
Total number of shell pairs                 ...    277140
Shell pairs after pre-screening             ...    151006
Total number of primitive shell pairs       ...    823733
Primitive shell pairs kept                  ...    276436
          la=0 lb=0:  28727 shell pairs
          la=1 lb=0:  50181 shell pairs
          la=1 lb=1:  20528 shell pairs
          la=2 lb=0:  19810 shell pairs
          la=2 lb=1:  14977 shell pairs
          la=2 lb=2:   2669 shell pairs
          la=3 lb=0:   6834 shell pairs
          la=3 lb=1:   5145 shell pairs
          la=3 lb=2:   1793 shell pairs
          la=3 lb=3:    342 shell pairs

Checking whether 4 symmetric matrices of dimension 2072 fit in memory
:Max Core in MB      =   5000.00
 MB in use           =    186.44
 MB left             =   4813.56
 MB needed           =     65.54
 Data fit in memory  = YES
Calculating RI/J V-Matrix + Cholesky decomp.... done (  8.8 sec)
Calculating RI/JK V-Matrix + Cholesky decomp.... done (  4.0 sec)
Calculating RI/C V-Matrix + Cholesky decomp.... done (  3.9 sec)
Calculating Nuclear repulsion               ... done (  0.0 sec) ENN=   5714.513986687683 Eh

Diagonalization of the overlap matrix:
Smallest eigenvalue                        ... 7.560e-06
Time for diagonalization                   ...    8.485 sec
Threshold for overlap eigenvalues          ... 1.000e-07
Number of eigenvalues below threshold      ... 0
Time for construction of square roots      ...    1.528 sec
Total time needed                          ...   10.078 sec

-------------------
DFT GRID GENERATION
-------------------

General Integration Accuracy     IntAcc      ... 4.388
Radial Grid Type                 RadialGrid  ... OptM3 with GC (2021)
Angular Grid (max. ang.)         AngularGrid ... 4 (Lebedev-302)
Angular grid pruning method      GridPruning ... 4 (adaptive)
Weight generation scheme         WeightScheme... mBecke (2022)
Basis function cutoff            BFCut       ... 1.0000e-10
Integration weight cutoff        WCut        ... 1.0000e-14
Partially contracted basis set               ... off
Rotationally invariant grid construction     ... off
Angular grids for H and He will be reduced by one unit
Diffuse basis detected: some atoms will have their outermost
                        angular grid increased by 1.

Total number of grid points                  ...   376701
Total number of batches                      ...     5924
Average number of points per batch           ...       63
Average number of grid points per atom       ...     4594
Grids setup in   7.0 sec
Initializing property integral containers    ... done (  0.1 sec)

SHARK setup successfully completed in  54.5 seconds

Maximum memory used throughout the entire STARTUP-calculation: 258.5 MB
--------------------------------------------------------------------------
WARNING: There is at least one non-excluded one OpenFabrics device found,
but there are no active ports detected (or Open MPI was unable to use
them).  This is most certainly not what you wanted.  Check your
cables, subnet manager configuration, etc.  The openib BTL will be
ignored for this job.

  Local host: c01b01n07
--------------------------------------------------------------------------
--------------------------------------------------------------------------
WARNING: There was an error initializing an OpenFabrics device.

  Local host:   c01b01n07
  Local device: mlx5_0
--------------------------------------------------------------------------


           ************************************************************
           *        Program running with 60 parallel MPI-processes    *
           *              working on a common directory               *
           ************************************************************
-------------------------------------------------------------------------------
                                 ORCA GUESS
                   Start orbitals & Density for SCF / CASSCF
-------------------------------------------------------------------------------

------------
SCF SETTINGS
------------
Hamiltonian:
 Density Functional     Method          .... DFT(GTOs)
 Exchange Functional    Exchange        .... TPSS
 Correlation Functional Correlation     .... TPSS
 LDA part of GGA corr.  LDAOpt          .... PW91-LDA
 Gradients option       PostSCFGGA      .... off
   NL short-range parameter             ....  5.000000
 RI-approximation to the Coulomb term is turned on
   Number of AuxJ basis functions       .... 10268


General Settings:
 Integral files         IntName         .... nmr-conf-8
 Hartree-Fock type      HFTyp           .... RHF
 Total Charge           Charge          ....    0
 Multiplicity           Mult            ....    1
 Number of Electrons    NEL             ....  314
 Basis Dimension        Dim             .... 2072
 Nuclear Repulsion      ENuc            ....   5714.5139866877 Eh

Convergence Acceleration:
 AO-DIIS                CNVDIIS         .... on
   Start iteration      DIISMaxIt       ....    12
   Startup error        DIISStart       ....  0.200000
   # of expansion vecs  DIISMaxEq       ....     5
   Bias factor          DIISBfac        ....   1.050
   Max. coefficient     DIISMaxC        ....  10.000
 MO-DIIS                CNVKDIIS        .... off
 Trust-Rad. Augm. Hess. CNVTRAH         .... auto
   Auto Start mean grad. ratio tolernc. ....  1.125000
   Auto Start start iteration           ....    50
   Auto Start num. interpolation iter.  ....    10
   Max. Number of Micro iterations      ....    24
   Max. Number of Macro iterations      .... Maxiter - #DIIS iter
   Number of Davidson start vectors     ....     2
   Converg. threshold    (grad. norm)   ....   5.000e-05
   Grad. Scal. Fac. for Micro threshold ....   0.100
   Minimum threshold for Micro iter.    ....   1.000e-02
   NR start threshold (gradient norm)   ....   1.000e-04
   Initial trust radius                 ....   0.400
   Minimum AH scaling param. (alpha)    ....   1.000
   Maximum AH scaling param. (alpha)    .... 1000.000
   Quad. conv. algorithm                .... NR
   White noise on init. David. guess    .... on
   Maximum white noise                  ....   0.010
   Pseudo random numbers                .... off
   Inactive MOs                         .... canonical
   Orbital update algorithm             .... Taylor
   Preconditioner                       .... Diag
   Full preconditioner red. dimension   ....   250
 SOSCF                 CNVSOSCF           .... on
   Start iteration     SOSCFMaxIt         ....   150
   Startup grad/error  SOSCFStart         ....  0.003300
   Hessian update      SOSCFHessUp        .... L-BFGS
   Autom. constraints  SOSCFAutoConstrain .... off
 Level Shifting         CNVShift        .... on
   Level shift para.    LevelShift      ....    0.2500
   Turn off err/grad.   ShiftErr        ....    0.0010
 Zerner damping         CNVZerner       .... off
 Static damping         CNVDamp         .... on
   Fraction old density DampFac         ....    0.7000
   Max. Damping (<1)    DampMax         ....    0.9800
   Min. Damping (>=0)   DampMin         ....    0.0000
   Turn off err/grad.   DampErr         ....    0.1000

SCF Procedure:
 Maximum # iterations   MaxIter         ....   125
 SCF integral mode      SCFMode         .... Direct
   Integral package                     .... SHARK and LIBINT hybrid scheme
 Reset frequency        DirectResetFreq ....    20
 Integral Threshold     Thresh          ....  1.000e-10 Eh
 Primitive CutOff       TCut            ....  1.000e-11 Eh

Convergence Tolerance:
 Convergence Check Mode ConvCheckMode   .... Total+1el-Energy
 Convergence forced     ConvForced      .... 0
 Energy Change          TolE            ....  1.000e-06 Eh
 1-El. energy change                    ....  1.000e-03 Eh
 Orbital Gradient       TolG            ....  5.000e-05
 Orbital Rotation angle TolX            ....  5.000e-05
 DIIS Error             TolErr          ....  1.000e-06

------------------------------
INITIAL GUESS: MODEL POTENTIAL
------------------------------
Loading Hartree-Fock densities                     ... done
Calculating cut-offs                               ... done
Initializing the effective Hamiltonian             ... done
Setting up the integral package (SHARK)            ... done
Starting the Coulomb interaction                   ... done (   0.7 sec)
Making the grid                                    ... done (   0.6 sec)
Mapping shells                                     ... done
Starting the XC term evaluation                    ... done (   0.1 sec)
  promolecular density results
     # of electrons  =    313.989648070
     EX              =   -260.296818128
     EC              =    -10.639058378
     EX+EC           =   -270.935876506
Transforming the Hamiltonian                       ... done (   0.4 sec)
Diagonalizing the Hamiltonian                      ... done (   0.5 sec)
Back transforming the eigenvectors                 ... done (   0.2 sec)
[c01b01n07:62000] 5 more processes have sent help message help-mpi-btl-openib.txt / no active ports found
[c01b01n07:62000] Set MCA parameter "orte_base_help_aggregate" to 0 to see all help / error messages
[c01b01n07:62000] 53 more processes have sent help message help-mpi-btl-openib.txt / error in device init
Now organizing SCF variables                       ... done
                      ------------------
                      INITIAL GUESS DONE (   3.1 sec)
                      ------------------
             **** ENERGY FILE WAS UPDATED (nmr-conf-8.en.tmp) ****
Finished Guess after   6.9 sec
Maximum memory used throughout the entire GUESS-calculation: 290.2 MB
--------------------------------------------------------------------------
WARNING: There was an error initializing an OpenFabrics device.

  Local host:   c01b01n07
  Local device: mlx5_0
--------------------------------------------------------------------------
--------------------------------------------------------------------------
WARNING: There is at least one non-excluded one OpenFabrics device found,
but there are no active ports detected (or Open MPI was unable to use
them).  This is most certainly not what you wanted.  Check your
cables, subnet manager configuration, etc.  The openib BTL will be
ignored for this job.

  Local host: c01b01n07
--------------------------------------------------------------------------


           ************************************************************
           *        Program running with 60 parallel MPI-processes    *
           *              working on a common directory               *
           ************************************************************

-------------------------------------------------------------------------------------------
                                      ORCA LEAN-SCF
                              memory conserving SCF solver
-------------------------------------------------------------------------------------------

[c01b01n07:62419] 53 more processes have sent help message help-mpi-btl-openib.txt / error in device init
[c01b01n07:62419] Set MCA parameter "orte_base_help_aggregate" to 0 to see all help / error messages
[c01b01n07:62419] 5 more processes have sent help message help-mpi-btl-openib.txt / no active ports found
--------------------
CPCM SOLVATION MODEL
--------------------
CPCM parameters:
  Epsilon                                         ...      33.4280
  Refrac                                          ...       1.3288
  Rsolv                                           ...       1.3000
  Surface type                                    ... GAUSSIAN VDW
  Discretization scheme                           ... Constant charge density
    Threshold for H atoms                         ...       5.0000 (charges/Ang^2)
    Threshold for non-H atoms                     ...       5.0000 (charges/Ang^2)
  Epsilon function type                           ...         CPCM
Solvent:                                          ... METHANOL
Radii:
  Scheme                                          ... Element-dependent radii
  Radius for C  used is    3.8550 Bohr (=   2.0400 Ang.)
  Radius for O  used is    3.4469 Bohr (=   1.8240 Ang.)
  Radius for H  used is    2.4944 Bohr (=   1.3200 Ang.)
Calculating surface                               ...        done! (  0.7s)
Cavity surface points                             ...         6192
Cavity Volume                                     ...    4552.4605
Cavity Surface-area                               ...    2090.2589
Calculating surface distance matrix               ...        done! (  0.2s)
Performing Cholesky decomposition & store         ...        done! (  0.7s)
Overall time for CPCM initialization              ...                 1.9s

----------------------------------------D-I-I-S--------------------------------------------
Iteration    Energy (Eh)           Delta-E    RMSDP     MaxDP     DIISErr   Damp  Time(sec)
-------------------------------------------------------------------------------------------
               ***  Starting incremental Fock matrix formation  ***
    1    -2033.0210529738187688     0.00e+00  8.00e-03  2.79e-01  2.36e-01  0.700  17.2
    2    -2033.4286317258856798    -4.08e-01  6.54e-03  2.17e-01  8.30e-02  0.700   9.5
                               ***Turning on AO-DIIS***
    3    -2033.5810642468277365    -1.52e-01  2.83e-03  7.23e-02  2.44e-02  0.700   7.5
    4    -2033.6731225778557928    -9.21e-02  4.77e-03  7.33e-02  1.15e-02  0.000   6.9
    5    -2033.8769367834747754    -2.04e-01  1.22e-03  2.79e-02  4.69e-03  0.000   6.9
                              *** Initializing SOSCF ***
---------------------------------------S-O-S-C-F--------------------------------------
Iteration    Energy (Eh)           Delta-E    RMSDP     MaxDP     MaxGrad    Time(sec)
--------------------------------------------------------------------------------------
    6    -2033.8783140527712021    -1.38e-03  3.91e-04  8.09e-03  1.31e-03     7.8
               *** Restarting incremental Fock matrix formation ***
    7    -2033.8784193929805042    -1.05e-04  3.15e-04  5.96e-03  1.37e-04     7.2
    8    -2033.8783966038290600     2.28e-05  7.27e-05  1.70e-03  6.16e-04     5.7
    9    -2033.8784352265884081    -3.86e-05  7.25e-05  1.34e-03  1.14e-04     5.4
   10    -2033.8784356204250798    -3.94e-07  2.01e-05  5.29e-04  1.01e-04     5.6
                 **** Energy Check signals convergence ****

               *****************************************************
               *                     SUCCESS                       *
               *           SCF CONVERGED AFTER  10 CYCLES          *
               *****************************************************

             **** ENERGY FILE WAS UPDATED (nmr-conf-8.en.tmp) ****

----------------
TOTAL SCF ENERGY
----------------

Total Energy       :      -2033.87843642685584 Eh          -55344.64592 eV

Components:
Nuclear Repulsion  :       5714.51398668768343 Eh          155499.83104 eV
Electronic Energy  :      -7748.34656474402527 Eh         -210843.22909 eV
One Electron Energy:     -14157.42095627698654 Eh         -385243.00960 eV
Two Electron Energy:       6409.07439153296127 Eh          174399.78051 eV
CPCM Dielectric    :         -0.04585837051417 Eh              -1.24787 eV

Virial components:
Potential Energy   :      -4061.11824543478360 Eh         -110508.64561 eV
Kinetic Energy     :       2027.23980900792776 Eh           55163.99969 eV
Virial Ratio       :          2.00327471243877

DFT components:
N(Alpha)           :      157.000539297035 electrons
N(Beta)            :      157.000539297035 electrons
N(Total)           :      314.001078594071 electrons
E(X)               :     -268.094510796448 Eh       
E(C)               :      -10.603398941314 Eh       
E(XC)              :     -278.697909737761 Eh       

CPCM Solvation Model Properties:
Surface-charge          :         -0.04241805622932
Corrected charge        :          0.00000000000000
Outlying charge corr.   :          0.00007764049114 Eh               0.00211 eV
Free-energy (cav+disp)  :  This term is not implemented in the current solvation scheme

---------------
SCF CONVERGENCE
---------------

  Last Energy change         ...    3.9384e-07  Tolerance :   1.0000e-06
  Last MAX-Density change    ...    5.2854e-04  Tolerance :   1.0000e-05
  Last RMS-Density change    ...    2.0129e-05  Tolerance :   1.0000e-06
  Last DIIS Error            ...    1.3099e-03  Tolerance :   1.0000e-06
  Last Orbital Gradient      ...    1.0140e-04  Tolerance :   5.0000e-05
  Last Orbital Rotation      ...    2.0478e-04  Tolerance :   5.0000e-05


----------------
ORBITAL ENERGIES
----------------

  NO   OCC          E(Eh)            E(eV) 
   0   2.0000     -18.919816      -514.8344 
   1   2.0000     -18.919099      -514.8149 
   2   2.0000     -18.919081      -514.8144 
   3   2.0000     -18.917965      -514.7840 
   4   2.0000     -18.913333      -514.6579 
   5   2.0000     -18.909920      -514.5651 
   6   2.0000     -18.903255      -514.3837 
   7   2.0000     -18.886257      -513.9212 
   8   2.0000     -18.877488      -513.6826 
   9   2.0000     -18.876658      -513.6600 
  10   2.0000     -18.867152      -513.4013 
  11   2.0000     -10.046020      -273.3661 
  12   2.0000     -10.045195      -273.3437 
  13   2.0000     -10.045153      -273.3425 
  14   2.0000     -10.044646      -273.3287 
  15   2.0000     -10.044323      -273.3199 
  16   2.0000     -10.042191      -273.2619 
  17   2.0000     -10.041987      -273.2564 
  18   2.0000     -10.039276      -273.1826 
  19   2.0000     -10.036749      -273.1138 
  20   2.0000     -10.035999      -273.0934 
  21   2.0000     -10.034382      -273.0494 
  22   2.0000     -10.033352      -273.0214 
  23   2.0000     -10.033008      -273.0120 
  24   2.0000     -10.031654      -272.9752 
  25   2.0000     -10.024769      -272.7878 
  26   2.0000     -10.016354      -272.5589 
  27   2.0000      -9.992468      -271.9089 
  28   2.0000      -9.990074      -271.8437 
  29   2.0000      -9.987947      -271.7859 
  30   2.0000      -9.985666      -271.7238 
  31   2.0000      -9.985099      -271.7084 
  32   2.0000      -9.983833      -271.6739 
  33   2.0000      -9.983539      -271.6659 
  34   2.0000      -9.983300      -271.6594 
  35   2.0000      -9.982990      -271.6510 
  36   2.0000      -9.982896      -271.6484 
  37   2.0000      -9.981663      -271.6149 
  38   2.0000      -9.980073      -271.5716 
  39   2.0000      -9.979364      -271.5523 
  40   2.0000      -9.977920      -271.5130 
  41   2.0000      -9.976467      -271.4735 
  42   2.0000      -1.014433       -27.6041 
  43   2.0000      -1.011898       -27.5351 
  44   2.0000      -1.011706       -27.5299 
  45   2.0000      -1.001018       -27.2391 
  46   2.0000      -0.988614       -26.9016 
  47   2.0000      -0.983907       -26.7735 
  48   2.0000      -0.982944       -26.7473 
  49   2.0000      -0.957915       -26.0662 
  50   2.0000      -0.952001       -25.9053 
  51   2.0000      -0.949407       -25.8347 
  52   2.0000      -0.939578       -25.5672 
  53   2.0000      -0.798477       -21.7277 
  54   2.0000      -0.796550       -21.6752 
  55   2.0000      -0.795459       -21.6455 
  56   2.0000      -0.759425       -20.6650 
  57   2.0000      -0.734078       -19.9753 
  58   2.0000      -0.718453       -19.5501 
  59   2.0000      -0.703420       -19.1410 
  60   2.0000      -0.700402       -19.0589 
  61   2.0000      -0.699091       -19.0232 
  62   2.0000      -0.696408       -18.9502 
  63   2.0000      -0.685912       -18.6646 
  64   2.0000      -0.670758       -18.2523 
  65   2.0000      -0.652369       -17.7519 
  66   2.0000      -0.648987       -17.6598 
  67   2.0000      -0.648689       -17.6517 
  68   2.0000      -0.640261       -17.4224 
  69   2.0000      -0.627094       -17.0641 
  70   2.0000      -0.615042       -16.7361 
  71   2.0000      -0.611959       -16.6522 
  72   2.0000      -0.576352       -15.6833 
  73   2.0000      -0.566647       -15.4192 
  74   2.0000      -0.560435       -15.2502 
  75   2.0000      -0.558875       -15.2078 
  76   2.0000      -0.548241       -14.9184 
  77   2.0000      -0.546396       -14.8682 
  78   2.0000      -0.538961       -14.6659 
  79   2.0000      -0.535615       -14.5748 
  80   2.0000      -0.512518       -13.9463 
  81   2.0000      -0.510983       -13.9046 
  82   2.0000      -0.504936       -13.7400 
  83   2.0000      -0.499295       -13.5865 
  84   2.0000      -0.482084       -13.1182 
  85   2.0000      -0.480530       -13.0759 
  86   2.0000      -0.474773       -12.9192 
  87   2.0000      -0.471379       -12.8269 
  88   2.0000      -0.465034       -12.6542 
  89   2.0000      -0.457893       -12.4599 
  90   2.0000      -0.452110       -12.3025 
  91   2.0000      -0.449202       -12.2234 
  92   2.0000      -0.444541       -12.0966 
  93   2.0000      -0.442798       -12.0491 
  94   2.0000      -0.434360       -11.8195 
  95   2.0000      -0.431459       -11.7406 
  96   2.0000      -0.429019       -11.6742 
  97   2.0000      -0.427319       -11.6279 
  98   2.0000      -0.425805       -11.5867 
  99   2.0000      -0.424131       -11.5412 
 100   2.0000      -0.420953       -11.4547 
 101   2.0000      -0.416308       -11.3283 
 102   2.0000      -0.410952       -11.1826 
 103   2.0000      -0.404399       -11.0042 
 104   2.0000      -0.402559       -10.9542 
 105   2.0000      -0.400639       -10.9019 
 106   2.0000      -0.399210       -10.8631 
 107   2.0000      -0.391298       -10.6478 
 108   2.0000      -0.389994       -10.6123 
 109   2.0000      -0.384341       -10.4584 
 110   2.0000      -0.383242       -10.4285 
 111   2.0000      -0.382308       -10.4031 
 112   2.0000      -0.379509       -10.3270 
 113   2.0000      -0.376442       -10.2435 
 114   2.0000      -0.374108       -10.1800 
 115   2.0000      -0.371019       -10.0959 
 116   2.0000      -0.370461       -10.0808 
 117   2.0000      -0.364490        -9.9183 
[...]
 
 sDSO            -6.848           20.514           42.198  iso=      18.622
 sPSO            29.773            5.173           -8.646  iso=       8.766
        ---------------  ---------------  ---------------
 Total           22.925           25.687           33.551  iso=      27.388

 Orientation: 
  X           0.7881607   -0.6135439    0.0486472
  Y           0.6153797    0.7869308   -0.0452532
  Z          -0.0105172    0.0656033    0.9977904

 --------------
 Nucleus  73H :
 --------------

Diamagnetic contribution to the shielding tensor (ppm) : 
            48.499         -8.155        -8.093
            11.790         34.436         1.241
            21.203        -22.348        67.925

Paramagnetic contribution to the shielding tensor (ppm): 
           -24.599          7.748         8.262
           -11.950         -3.525        -0.101
           -22.708         24.651       -39.299

Total shielding tensor (ppm): 
            23.900         -0.407         0.169
            -0.160         30.911         1.140
            -1.505          2.302        28.626


 Diagonalized sT*s matrix:
 
 sDSO            50.887           67.509           32.464  iso=      50.287
 sPSO           -27.079          -39.755           -0.590  iso=     -22.475
        ---------------  ---------------  ---------------
 Total           23.808           27.754           31.874  iso=      27.812

 Orientation: 
  X           0.9886231    0.1288690   -0.0775703
  Y           0.0069659    0.4759321    0.8794545
  Z           0.1502526   -0.8699893    0.4696197

 --------------
 Nucleus  74H :
 --------------

Diamagnetic contribution to the shielding tensor (ppm) : 
            24.449         35.355       -16.978
            -9.097         43.855        -6.324
             7.700        -31.245        44.339

Paramagnetic contribution to the shielding tensor (ppm): 
             4.729        -35.709        13.082
             8.046        -19.037         4.699
           -13.120         30.769       -15.019

Total shielding tensor (ppm): 
            29.178         -0.354        -3.897
            -1.051         24.819        -1.625
            -5.420         -0.476        29.321


 Diagonalized sT*s matrix:
 
 sDSO            32.102           40.394           40.147  iso=      37.548
 sPSO            -8.642          -14.451           -6.233  iso=      -9.775
        ---------------  ---------------  ---------------
 Total           23.460           25.944           33.914  iso=      27.772

 Orientation: 
  X           0.5016565    0.4975182   -0.7076838
  Y           0.6858545   -0.7273047   -0.0251297
  Z           0.5272043    0.4727616    0.7060822

 --------------
 Nucleus  75H :
 --------------

Diamagnetic contribution to the shielding tensor (ppm) : 
            60.367        -13.856        21.992
             0.505         34.953         7.154
           -22.881        -22.650        50.543

Paramagnetic contribution to the shielding tensor (ppm): 
           -23.389          4.406       -16.443
            -8.943         -8.538        -9.182
            29.915         20.869       -32.163

Total shielding tensor (ppm): 
            36.978         -9.451         5.549
            -8.438         26.414        -2.028
             7.034         -1.781        18.380


 Diagonalized sT*s matrix:
 
 sDSO            52.826           31.981           61.056  iso=      48.621
 sPSO           -36.471          -10.271          -17.349  iso=     -21.363
        ---------------  ---------------  ---------------
 Total           16.355           21.711           43.707  iso=      27.257

 Orientation: 
  X          -0.3257098   -0.4158462    0.8491084
  Y          -0.1154554   -0.8738660   -0.4722587
  Z           0.9383939   -0.2518535    0.2366151

 --------------
 Nucleus  76H :
 --------------

Diamagnetic contribution to the shielding tensor (ppm) : 
            70.930        -42.130        -4.126
             3.985         21.954        -5.234
            49.262        -13.964        61.656

Paramagnetic contribution to the shielding tensor (ppm): 
           -36.602         29.780         4.928
           -17.721          8.320         4.817
           -48.250         11.828       -40.196

Total shielding tensor (ppm): 
            34.328        -12.350         0.802
           -13.736         30.274        -0.416
             1.011         -2.136        21.460


 Diagonalized sT*s matrix:
 
 sDSO            26.714           55.935           71.890  iso=      51.513
 sPSO            -7.672          -34.507          -26.299  iso=     -22.826
        ---------------  ---------------  ---------------
 Total           19.042           21.428           45.591  iso=      28.687

 Orientation: 
  X           0.6262135   -0.1545426    0.7641814
  Y           0.7591219   -0.1025871   -0.6428139
  Z           0.1777373    0.9826456    0.0530752

 --------------
 Nucleus  77H :
 --------------

Diamagnetic contribution to the shielding tensor (ppm) : 
            64.656         24.339        -6.603
            18.437         47.109         0.416
            11.579        -26.702        95.091

Paramagnetic contribution to the shielding tensor (ppm): 
           -40.168        -27.017         5.361
           -20.735        -20.007         2.655
           -12.576         27.834       -55.140

Total shielding tensor (ppm): 
            24.488         -2.678        -1.242
            -2.299         27.101         3.070
            -0.997          1.132        39.950


 Diagonalized sT*s matrix:
 
 sDSO            78.906           39.524           88.425  iso=      68.952
 sPSO           -55.923          -11.395          -47.998  iso=     -38.439
        ---------------  ---------------  ---------------
 Total           22.983           28.129           40.427  iso=      30.513

 Orientation: 
  X           0.8565847   -0.5074396   -0.0936363
  Y           0.5160038    0.8417704    0.1586277
  Z          -0.0016737   -0.1841947    0.9828883

 --------------
 Nucleus  78H :
 --------------

Diamagnetic contribution to the shielding tensor (ppm) : 
            47.024        -32.309       -16.785
            -0.571         30.981       -16.883
            26.757        -17.270        41.371

Paramagnetic contribution to the shielding tensor (ppm): 
           -24.323         35.280        12.701
             3.194          5.279        18.883
           -32.542         16.122       -20.838

Total shielding tensor (ppm): 
            22.700          2.971        -4.083
             2.623         36.260         2.000
            -5.786         -1.147        20.532


 Diagonalized sT*s matrix:
 
 sDSO            54.182           39.965           25.229  iso=      39.792
 sPSO           -37.828          -13.646           11.591  iso=     -13.294
        ---------------  ---------------  ---------------
 Total           16.354           26.319           36.819  iso=      26.497

 Orientation: 
  X           0.6264574   -0.7513177   -0.2075401
  Y          -0.1271099    0.1642268   -0.9781987
  Z           0.7690216    0.6391802    0.0073812

 --------------
 Nucleus  79H :
 --------------

Diamagnetic contribution to the shielding tensor (ppm) : 
             7.074        -47.538       -16.364
           -33.178          8.308       -16.375
           -38.649         18.228        -0.006

Paramagnetic contribution to the shielding tensor (ppm): 
            18.911         46.835        14.635
            32.949         18.590        18.711
            38.101        -17.524        30.654

Total shielding tensor (ppm): 
            25.985         -0.703        -1.729
            -0.229         26.899         2.335
            -0.547          0.704        30.649


 Diagonalized sT*s matrix:
 
 sDSO           -14.374           12.202           17.549  iso=       5.125
 sPSO            40.079           14.165           13.913  iso=      22.719
        ---------------  ---------------  ---------------
 Total           25.705           26.366           31.461  iso=      27.844

 Orientation: 
  X           0.9734597   -0.0964432   -0.2075450
  Y           0.1601400    0.9349202    0.3166694
  Z           0.1634974   -0.3415011    0.9255515

 --------------
 Nucleus  80H :
 --------------

Diamagnetic contribution to the shielding tensor (ppm) : 
            25.491        -67.751       -15.317
           -29.123        -19.822       -19.304
             0.271        -15.760       -53.497

Paramagnetic contribution to the shielding tensor (ppm): 
             6.935         63.717        14.373
            24.913         47.161        19.243
            -1.467         13.998        78.175

Total shielding tensor (ppm): 
            32.425         -4.033        -0.943
            -4.209         27.340        -0.061
            -1.196         -1.762        24.678


 Diagonalized sT*s matrix:
 
 sDSO           -70.863          -32.285           55.320  iso=     -15.943
 sPSO            94.381           58.460          -20.570  iso=      44.090
        ---------------  ---------------  ---------------
 Total           23.518           26.175           34.749  iso=      28.148

 Orientation: 
  X           0.3445923    0.3375348   -0.8759717
  Y           0.5426468    0.6898083    0.4792692
  Z           0.7660226   -0.6404957    0.0545404

 --------------
 Nucleus  81H :
 --------------

Diamagnetic contribution to the shielding tensor (ppm) : 
           -11.171        -55.990       -13.304
           -39.780          5.633       -15.749
             2.189         -8.923        -9.531

Paramagnetic contribution to the shielding tensor (ppm): 
            38.130         54.262        10.154
            41.309         24.870        14.081
            -4.896          8.662        32.995

Total shielding tensor (ppm): 
            26.959         -1.727        -3.150
             1.529         30.502        -1.668
            -2.707         -0.261        23.464


 Diagonalized sT*s matrix:
 
 sDSO           -21.089            9.531           -3.511  iso=      -5.023
 sPSO            42.801           19.019           34.175  iso=      31.998
        ---------------  ---------------  ---------------
 Total           21.712           28.549           30.664  iso=      26.975

 Orientation: 
  X           0.4926975    0.8587999    0.1403992
  Y           0.0957658   -0.2138723    0.9721561
  Z           0.8649151   -0.4655334   -0.1876180



--------------------------------
CHEMICAL SHIELDING SUMMARY (ppm)
--------------------------------


  Nucleus  Element    Isotropic     Anisotropy
  -------  -------  ------------   ------------
      0       C           25.651        121.537 
      1       C           46.143         92.609 
      2       C           24.235        121.850 
      3       C           76.189        133.767 
      4       C           38.222        196.057 
      5       C           75.978        127.960 
      6       C          147.170         31.806 
      7       C          132.565         21.014 
      8       C          138.929         25.254 
      9       C          143.541         36.333 
     10       C           44.596        181.826 
     11       C           70.846        155.942 
     12       C           30.215        117.807 
     13       C           32.016        123.545 
     14       C           66.926        143.890 
     15       C           55.978        147.259 
     16       C          112.806         64.767 
     17       C          107.704         72.536 
     23       C           95.047         40.490 
     24       C          105.928         51.876 
     25       C           41.459        172.138 
     26       C          115.254         69.366 
     28       C           74.329        152.504 
     29       C           31.865        118.581 
     30       C           34.751        117.133 
     31       C           67.737        147.314 
     32       C           64.302        175.522 
     33       C          123.931         78.338 
     34       C          123.684         74.679 
     35       C          124.161         78.791 
     41       C          124.271         77.224 
     42       H           25.730          9.071 
     43       H           25.593          9.634 
     44       H           29.025          4.477 
     45       H           29.764          6.745 
     46       H           30.785          4.505 
     47       H           28.693          3.907 
     48       H           28.966          8.324 
     49       H           29.235          4.389 
     50       H           24.577         10.082 
     51       H           24.683          3.207 
     52       H           24.616          5.694 
     53       H           27.977          7.099 
     54       H           27.858          4.790 
     55       H           27.922          4.120 
     56       H           27.619          6.400 
     57       H           25.273         13.049 
     58       H           26.329          4.831 
     59       H           26.749          5.502 
     60       H           27.539          3.720 
     61       H           27.885          4.545 
     62       H           29.713         17.993 
     63       H           25.033         10.371 
     64       H           25.164          5.518 
     65       H           24.957          6.957 
     66       H           27.855          6.763 
     67       H           27.451          9.527 
     68       H           27.916          9.946 
     69       H           27.952          8.118 
     70       H           27.470          7.560 
     71       H           28.155          9.172 
     72       H           27.388          9.246 
     73       H           27.812          6.093 
     74       H           27.772          9.212 
     75       H           27.257         24.675 
     76       H           28.687         25.356 
     77       H           30.513         14.870 
     78       H           26.497         15.483 
     79       H           27.844          5.425 
     80       H           28.148          9.902 
     81       H           26.975          5.533 


NMR shielding tensor and spin rotation calculation done in   2.8 sec 

Maximum memory used throughout the entire PROP-calculation: 367.4 MB
--------------------------------------------------------------------------
WARNING: There was an error initializing an OpenFabrics device.

  Local host:   c01b01n07
  Local device: mlx5_0
--------------------------------------------------------------------------
--------------------------------------------------------------------------
WARNING: There is at least one non-excluded one OpenFabrics device found,
but there are no active ports detected (or Open MPI was unable to use
them).  This is most certainly not what you wanted.  Check your
cables, subnet manager configuration, etc.  The openib BTL will be
ignored for this job.

  Local host: c01b01n07
--------------------------------------------------------------------------
[c01b01n07:64082] 47 more processes have sent help message help-mpi-btl-openib.txt / error in device init
[c01b01n07:64082] Set MCA parameter "orte_base_help_aggregate" to 0 to see all help / error messages
[c01b01n07:64082] 11 more processes have sent help message help-mpi-btl-openib.txt / no active ports found

--------------------------------
SUGGESTED CITATIONS FOR THIS RUN
--------------------------------

Below you find a list of papers that are relevant to this ORCA run
We neither can nor want to force you to cite these papers, but we appreciate if you do
You receive ORCA, which is the product of decades of hard work by many enthusiastic individuals, for free
The only thing we kindly ask in return is that you cite our papers,
We deeply appreciate it, if you show your appreciation for ORCA by not just citing the generic ORCA reference.

Please note that relegating all ORCA citations to the supporting information does *not* help us.
SI sections are not indexed - citations you put there will not count into any citation statistics
But we need these citations in order to attract the funding resources that allow us to do what we are doing

Therefore, if you are a happy ORCA user, please consider citing a few of the papers listed below in the main body of your paper

In addition to the list printed below, the program has created the file nmr-conf-8.bibtex that contains the list in bibtex format
You can import this file easily into all common literature databanks and citation aid programs


List of essential papers. We consider these as the minimum necessary citations

  1. Neese, F.
     Software update: the ORCA program system, version 6.0
     WIRES Comput. Molec. Sci. 2025 15(1), e70019
     doi.org/10.1002/wcms.7019

List of papers to cite with high priority. The work reported in these papers was absolutely
necessary for this run to complete.
Our perspective: the developers of density functionals and basis sets usually get cited in chemistry papers
Good! But without the algorithms to do something with them, the functionals or basis sets would not do anything.
Hence, in our opinion, the algorithm design and method developments papers are equally worthy of getting cited

  1. Neese, F.
     An improvement of the resolution of the identity approximation for the formation of the Coulomb matrix
     J. Comp. Chem. 2003 24(14), 1740-1747
     doi.org/10.1002/jcc.10318
  2. Stoychev, G.L.; Auer, A.A.; Neese, F.
     Automatic Generation of Auxiliary Basis Sets
     J. Theo. Comp. Chem. 2017 13 , 554-562
     doi.org/10.1021/acs.jctc.6b01041
  3. Stoychev, G.L.; Auer, A.A.; Izsak, R.; Neese, F.
     Self-Consistent Field Calculation of Nuclear Magnetic Resonance Chemical Shielding Constants Using Gauge-Including Atomic Orbitals and Approximate Two-Electron Integrals
     J. Chem. Theory Comput. 2018 14(2), 619-637
     doi.org/10.1021/acs.jctc.7b01006
  4. Garcia-Rates, M.; Neese, F.
     Effect of the Solute Cavity on the Solvation Energy and its Derivatives within the Framework of the Gaussian Charge Scheme
     J. Comput. Chem. 2020 41 , 922-939
     doi.org/10.1002/jcc.26139
  5. Neese, F.
     The SHARK Integral Generation and Digestion System
     J. Comp. Chem. 2022 44(3), 381
     doi.org/10.1002/jcc.26942

List of suggested additional citations. These are papers that are important in the 'surrounding' of 
of this run, or papers that preceded the highly important papers. If you like your results we are grateful for a citation.

  1. Neese, F.
     The ORCA program system
     WIRES Comput. Molec. Sci. 2012 2(1), 73-78
     doi.org/10.1002/wcms.81
  2. Neese, F.
     Software update: the ORCA program system, version 4.0
     WIRES Comput. Molec. Sci. 2018 8(1), 1-6
     doi.org/10.1002/wcms.1327
  3. Neese, F.; Wennmohs, F.; Becker, U.; Riplinger, C.
     The ORCA quantum chemistry program package
     J. Chem. Phys. 2020 152(22), 224108
     doi.org/10.1063/5.0004608
  4. Neese, F.
     Software update: The ORCA program system—Version 5.0
     WIRES Comput. Molec. Sci. 2022 12(1), e1606
     doi.org/10.1002/wcms.1606

List of optional additional citations

  1. Neese, F.
     Approximate second-order SCF convergence for spin unrestricted wavefunctions
     Chem. Phys. Lett. 2000 325(1-3), 93-98
     doi.org/10.1016/s0009-2614(00)00662-x

Timings for individual modules:

Sum of individual times          ...      289.727 sec (=   4.829 min)
Startup calculation              ...      109.918 sec (=   1.832 min)  37.9 %
SCF iterations                   ...      105.992 sec (=   1.767 min)  36.6 %
Property integrals               ...       49.502 sec (=   0.825 min)  17.1 %
SCF Response                     ...       16.763 sec (=   0.279 min)   5.8 %
Property calculations            ...        7.552 sec (=   0.126 min)   2.6 %
                             ****ORCA TERMINATED NORMALLY****
TOTAL RUN TIME: 0 days 0 hours 5 minutes 5 seconds 863 msec
