
                                 *****************
                                 * O   R   C   A *
                                 *****************

                                            #,                                       
                                            ###                                      
                                            ####                                     
                                            #####                                    
                                            ######                                   
                                           ########,                                 
                                     ,,################,,,,,                         
                               ,,#################################,,                 
                          ,,##########################################,,             
                       ,#########################################, ''#####,          
                    ,#############################################,,   '####,        
                  ,##################################################,,,,####,       
                ,###########''''           ''''###############################       
              ,#####''   ,,,,##########,,,,          '''####'''          '####       
            ,##' ,,,,###########################,,,                        '##       
           ' ,,###''''                  '''############,,,                           
         ,,##''                                '''############,,,,        ,,,,,,###''
      ,#''                                            '''#######################'''  
     '                                                          ''''####''''         
             ,#######,   #######,   ,#######,      ##                                
            ,#'     '#,  ##    ##  ,#'     '#,    #''#        ,####,    ,#,          
            ##       ##  ##   ,#'  ##            #'  '#       #'       ,# #          
            ##       ##  #######   ##           ,######,      #####,      #          
            '#,     ,#'  ##    ##  '#,     ,#' ,#      #,     #,   #      #          
             '#######'   ##     ##  '#######'  #'      '#     '####' #    #          



                #########################################################
                #                        -***-                          #
                #          Department of theory and spectroscopy        #
                #                                                       #
                #                      Frank Neese                      #
                #                                                       #
                #     Directorship, Architecture, Infrastructure        #
                #                    SHARK, DRIVERS                     #
                #        Core code/Algorithms in most modules           #
                #                                                       #
                #        Max Planck Institute fuer Kohlenforschung      #
                #                Kaiser Wilhelm Platz 1                 #
                #                 D-45470 Muelheim/Ruhr                 #
                #                      Germany                          #
                #                                                       #
                #                  All rights reserved                  #
                #                        -***-                          #
                #########################################################


                         Program Version 6.1.0-f.0  -   RELEASE   -


 With contributions from (in alphabetic order):
[Max-Planck-Institut fuer Kohlenforschung]                               
  Daniel Aravena         : Magnetic Suceptibility                        
  Michael Atanasov       : Ab Initio Ligand Field Theory (pilot matlab implementation)
  Alexander A. Auer      : GIAO ZORA, VPT2 properties, NMR spectrum      
  Ute Becker             : All parallelization in ORCA, NUMFREQ, NUMCALC 
  Giovanni Bistoni       : ED, misc. LED, open-shell LED, HFLD           
  Dmytro Bykov           : pre 5.0 version of the SCF Hessian            
  Marcos Casanova-Páez   : Triplet and SCS-CIS(D). UHF-(DLPNO)-IP/EA/STEOM-CCSD. UHF-CVS-IP/STEOM-CCSD   
  Vijay G. Chilkuri      : MRCI spin determinant printing, contributions to CSF-ICE 
  Pauline Colinet        : FMM embedding                                 
  Dipayan Datta          : RHF DLPNO-CCSD density                        
  Achintya Kumar Dutta   : EOM-CC, STEOM-CC                              
  Nicolas Foglia         : Exact transition moments, OPA infrastructure, MCD improvements    
  Dmitry Ganyushin       : Spin-Orbit,Spin-Spin,Magnetic field MRCI      
  Miquel Garcia-Rates    : C-PCM and meta-GGA Hessian, CCSD/C-PCM, Gaussian charge scheme 
  Tiago L. C. Gouveia    : GS-ROHF, GS-ROCIS                             
  Yang Guo               : DLPNO-NEVPT2, F12-NEVPT2, CIM, IAO-localization        
  Andreas Hansen         : Spin unrestricted coupled pair/coupled cluster methods 
  Ingolf Harden          : AUTO-CI MPn and infrastructure                
  Benjamin Helmich-Paris : MC-RPA, TRAH-(SCF,CASSCF), AVAS, COSX integrals, SCF dyn. polar., MC-PDFT, srDFT 
  Lee Huntington         : MR-EOM, pCC                                   
  Robert Izsak           : Overlap fitted RIJCOSX, COSX-SCS-MP3, EOM     
  Riya Kayal             : Wick's Theorem for AUTO-CI, AUTO-CI UHF-CCSDT 
  Emily Kempfer          : AUTO-CI RHF CISDT and CCSDT, approximate NEVPT4
  Christian Kollmar      : KDIIS, OOCD, Brueckner-CCSD(T), CCSD density, CASPT2, CASPT2-K, improved NEVPT2 
  Axel Koslowski         : Symmetry handling                             
  Simone Kossmann        : meta-GGA functionals, TD-DFT gradient, OOMP2, (MP2 Hessian; deprecated post 5.0) 
  Lucas Lang             : DCDCAS, Hyperfine gauge corrections, ICE-SOC+SSC
  Marvin Lechner         : AUTO-CI (C++ implementation), FIC-MRCC        
  Spencer Leger          : CASSCF response                               
  Dagmar Lenk            : GEPOL surface, SMD, ORCA-2-JSON               
  Dimitrios Liakos       : Extrapolation schemes; Compound Job, Property file
  Dimitrios Manganas     : Further ROCIS development; embedding schemes. LFT, Crystal Embedding 
  Dimitrios Pantazis     : SARC Basis sets                               
  Anastasios Papadopoulos: AUTO-CI, single reference methods and gradients 
  Taras Petrenko         : pre 6.0 DFT Hessian and TD-DFT gradient,  ECA, NRVS 
  Petra Pikulova         : Analytic Raman intensities                    
  Peter Pinski           : DLPNO-MP2, DLPNO-MP2 Gradient                 
  Shashank Vittal Rao    : ES-AILFT, MagRelax                            
  Christoph Reimann      : Effective Core Potentials                     
  Marius Retegan         : Local ZFS, SOC                                
  Christoph Riplinger    : Optimizer, TS searches, QM/MM, DLPNO-CCSD(T), (RO)-DLPNO pert. Triples 
  Michael Roemelt        : Original ROCIS implementation, recursive CI coupling coefficients
  Masaaki Saitow         : Open-shell DLPNO-CCSD energy and density      
  Barbara Sandhoefer     : DKH picture change effects                    
  Yorick L. A. Schmerwitz: GMF and freeze-and-release deltaSCF, NEB S-IDPP initial path                    
  Kantharuban Sivalingam : CASSCF convergence/infrastructure, NEVPT2, NEVPT3, NEVPT4(SD), FIC-MRCI and CEPA variants
  Bernardo de Souza      : ESD, SOC TD-DFT                               
  Georgi L. Stoychev     : AutoAux, RI-MP2 NMR, DLPNO-MP2 response, X2C  
  Van Anh Tran           : RI-MP2 g-tensors                              
  Willem Van den Heuvel  : Paramagnetic NMR                              
  Zikuan Wang            : NOTCH, Electric field optimization            
  Frank Wennmohs         : Technical directorship and infrastructure     
  Hang Xu                : AUTO-CI-Response properties                   
                                                                         
[FACCTs GmbH]                                                            
  Markus Bursch, Nicolas Foglia, Miquel Garcia-Rates, Ingolf Harden, Hagen Neugebauer, Anastasios Papadopoulos, 
  Christoph Riplinger, Bernardo de Souza, Georgi L. Stoychev                                                    
                                                                 
  APM, various basis sets, CI-OPT, improved COSX, DLPNO-Multilevel,           
  DOCKER, DRACO, updates on ESD, Fragmentator, GOAT, IRC, LR-CPCM, L-BFGS, MBIS, meta-GGA TD-DFT gradient, ML-optimized integration grids, 
  MM, NACMEs, nearIR, NEB, NEB-TS, NL-DFT gradient (VV10), 2- and 3-layer-ONIOM, interface openCOSMO-RS, QMMM,   
  Crystal-QMMM, RESP, rigid body optimization, SF, symmetry and pop. for TD-DFT, various functionals, SOLVATOR                                   
                                                                         
[Other institutions]                                                     
  V. Asgeirsson          : NEB                                           
  Christoph Bannwarth    : sTDA-DFT, sTD-DFT, PBEh-3c, B97-3c, D3        
  Giovanni Bistoni       : ETS/NOCV, ADLD/ADEX, COVALED                  
  Martin Brehm           : Molecular dynamics                            
  Ronald Cardenas        : ETS/NOCV                                      
  Martina Colucci        : COVALED                                       
  Sebastian Ehlert       : rSCAN, r2SCAN, r2SCAN-3c, D4, dhf basis sets  
  Marvin Friede          : D4 for Fr, Ra, Ac-Lr                          
  Lars Goerigk           : TD-DFT with DH, B97 family of functionals     
  Stefan Grimme          : VdW corrections, initial TS optimization, DFT functionals, gCP, sTDA/sTD-DF 
  Waldemar Hujo          : DFT-NL                                        
  H. Jonsson             : NEB                                           
  Holger Kruse           : gCP                                           
  Marcel Mueller         : wB97X-3c, vDZP basis set                      
  Hagen Neugebauer       : wr2SCAN, Native XTB                           
  Gianluca Regni         : ADLD/ADEX                                     
  Tobias Risthaus        : pre 6.0 range-separated hybrid DFT and stability analysis
  Lukas Wittmann         : regularized MP2, r2SCAN double-hybrids, wr2SCAN        
                                                                         
We gratefully acknowledge several colleagues who have allowed us to      
interface, adapt or use parts of their codes:                            
  Ed Valeev, F. Pavosevic, A. Kumar             : LibInt (2-el integral package), F12 methods 
  Garnet Chan, S. Sharma, J. Yang, R. Olivares  : DMRG                   
  Ulf Ekstrom                                   : XCFun DFT Library      
  Mihaly Kallay                                 : mrcc  (arbitrary order and MRCC methods)
  Frank Weinhold                                : gennbo (NPA and NBO analysis)           
  Simon Mueller                                 : openCOSMO-RS                            
  Christopher J. Cramer and Donald G. Truhlar   : smd solvation model                     
  S Lehtola, MJT Oliveira, MAL Marques          : LibXC Library                           
  Liviu Ungur et al                             : ANISO software                          


 Your calculation uses the libint2 library for the computation of 2-el integrals
 For citations please refer to: http://libint.valeyev.net

 Your ORCA version has been built with support for libXC version: 7.0.0
 For citations please refer to: https://libxc.gitlab.io

 This ORCA versions uses:
   CBLAS   interface :  Fast vector & matrix operations
   LAPACKE interface :  Fast linear algebra routines
   SCALAPACK package :  Parallel linear algebra routines
   Shared memory     :  Shared parallel matrices
   BLAS/LAPACK       :  OpenBLAS 0.3.29  USE64BITINT DYNAMIC_ARCH NO_AFFINITY Cooperlake SINGLE_THREADED
        Core in use  :  Cooperlake
   Copyright (c) 2011-2014, The OpenBLAS Project


  ***********************************
  * Starting time: Tue Mar  3 21:23:51 2026
  * Host name:     c01b01n04
  * Process ID:    1939043
  * Working dir.:  /lustre1/jiangy/jiangy_liuxy/NMR/B9D7C2-SRSS-NMR/opt_conf
  ***********************************

NOTE: MaxCore=5000 MB was set to SCF,MP2,MDCI,CIPSI,MRCI,RASCI and CIS
      => If you want to overwrite this, your respective input block should be placed after the MaxCore statement


***************************************
The coordinates will be read from file: opt-conf-6.xyz
***************************************



Warning: The global flag for NMR shieldings has been found
         but shieldings for certain elements have also been explicitly requested in the EPRNMR block
         ==>> only the requested shieldings will be calculated

================================================================================

----- Orbital basis set information -----
Your calculation utilizes the basis: pcSseg-2
   F. Jensen, J. Chem. Theory Comput. 11, 132 (2015).

----- AuxJ basis set information -----
Your calculation utilizes the AutoAux generation procedure.
  G. L. Stoychev, A. A. Auer, F. Neese, J. Chem. Theory Comput. 13, 554 (2017)

----- AuxC basis set information -----
Your calculation utilizes the AutoAux generation procedure.
  G. L. Stoychev, A. A. Auer, F. Neese, J. Chem. Theory Comput. 13, 554 (2017)

----- AuxJK basis set information -----
Your calculation utilizes the AutoAux generation procedure.
  G. L. Stoychev, A. A. Auer, F. Neese, J. Chem. Theory Comput. 13, 554 (2017)

----- AuxX basis set information -----
Your calculation utilizes the AutoAux generation procedure.
  G. L. Stoychev, A. A. Auer, F. Neese, J. Chem. Theory Comput. 13, 554 (2017)

================================================================================
                                        WARNINGS
                       Please study these warnings very carefully!
================================================================================


================================================================================
                                       INPUT FILE
================================================================================
NAME = nmr-conf-6.inp
|  1> !TPSS PCSSEG-2 AUTOAUX NMR CPCM(Methanol)
|  2> 
|  3> %pal nprocs 60 end
|  4> %maxcore 5000
|  5> 
|  6> *XYZFILE 0 1 opt-conf-6.xyz
|  7> 
|  8> %EPRNMR
|  9>    NUCLEI = ALL C {SHIFT}
| 10>    NUCLEI = ALL H {SHIFT}
| 11>    TAU DOBSON
| 12> END
| 13> 
| 14> 
| 15>                          ****END OF INPUT****
================================================================================

                       ****************************
                       * Single Point Calculation *
                       ****************************

---------------------------------
CARTESIAN COORDINATES (ANGSTROEM)
---------------------------------
  C     10.591173   -7.956883   -2.189576
  C     11.161587   -9.130017   -2.683911
  C     10.448145  -10.329645   -2.585707
  C      9.190154  -10.344165   -1.991084
  C      8.619279   -9.165277   -1.515418
  C      9.319641   -7.968127   -1.623252
  C      7.263567   -9.217945   -0.859000
  C      7.318312   -9.738809    0.593358
  C      5.992526  -10.371721    1.066512
  C      5.817722  -11.798128    0.509083
  C      6.912457  -12.764435    0.888874
  C      7.268411  -12.940429    2.231874
  C      8.259737  -13.840111    2.588632
  C      8.907330  -14.603144    1.603778
  C      8.568163  -14.427945    0.276187
  C      7.579562  -13.508764   -0.076268
  C      7.830869   -8.645566    1.532749
  C      4.730811   -9.571823    0.739564
  O     11.066683  -11.428602   -3.091138
  O     11.381495   -6.843056   -2.272614
  O     12.378725   -9.052697   -3.316418
  O      9.869617  -15.505610    1.956010
  O      8.698422  -14.074562    3.861102
  C     13.522033   -9.702111   -2.729852
  C     13.877521   -9.106656   -1.350480
  C     12.946319   -9.554433   -0.235631
  C     14.659794   -9.559695   -3.728162
  O     15.052468   -8.214152   -3.986091
  C     12.746969  -10.924364   -0.030992
  C     11.880675  -11.370732    0.952380
  C     11.207075  -10.442317    1.759210
  C     11.433974   -9.091827    1.589292
  C     12.302516   -8.648567    0.593254
  C     10.886788   -5.619729   -1.722206
  C     10.400105  -12.684669   -2.977122
  C      8.121157  -13.318314    4.924716
  O     14.002488   -7.688061   -1.439025
  O      8.047328   -9.107381    2.868040
  O      4.693065   -8.258972    1.307167
  O     11.596816  -12.672783    1.229377
  O     10.332310  -10.878025    2.720931
  C     12.293367  -13.686654    0.504833
  H      8.641622  -11.269867   -1.899059
  H      8.879180   -7.058551   -1.243496
  H      6.620238   -9.875101   -1.447515
  H      6.802825   -8.227375   -0.877165
  H      8.066748  -10.536773    0.618186
  H      6.047738  -10.447970    2.156886
  H      4.856972  -12.186833    0.863968
  H      5.745737  -11.762136   -0.581200
  H      6.767512  -12.365104    2.997036
  H      9.083704  -15.007536   -0.479215
  H      7.328858  -13.376367   -1.121623
  H      8.758109   -8.229954    1.126672
  H      7.105094   -7.836601    1.603767
  H      4.631225   -9.426803   -0.337460
  H      3.857803  -10.145343    1.072365
  H      9.983136  -15.470951    2.917822
  H     13.320906  -10.767969   -2.617066
  H     14.882131   -9.470480   -1.115651
  H     14.351812   -9.992646   -4.681765
  H     15.506105  -10.145059   -3.347855
  H     14.958717   -7.724312   -3.152185
  H     13.262125  -11.643572   -0.650841
  H     10.924329   -8.385839    2.232053
  H     12.459188   -7.587525    0.464745
  H     11.679082   -4.889897   -1.867869
  H      9.986344   -5.295452   -2.246961
  H     10.674853   -5.728762   -0.656753
  H     10.205164  -12.932167   -1.932021
  H      9.457984  -12.680950   -3.530568
  H     11.075450  -13.419403   -3.408245
  H      7.049646  -13.515264    5.005404
  H      8.623999  -13.644975    5.831302
  H      8.286577  -12.249013    4.774634
  H     13.152209   -7.324662   -1.752781
  H      8.756295   -9.771150    2.851173
  H      4.734802   -8.343961    2.267982
  H     10.269434  -11.844406    2.669268
  H     11.917637  -14.630945    0.885650
  H     12.088215  -13.611778   -0.564459
  H     13.369670  -13.609874    0.676378

----------------------------
CARTESIAN COORDINATES (A.U.)
----------------------------
  NO LB      ZA    FRAG     MASS         X           Y           Z
   0 C     6.0000    0    12.011   20.014417  -15.036330   -4.137700
   1 C     6.0000    0    12.011   21.092343  -17.253231   -5.071856
   2 C     6.0000    0    12.011   19.744133  -19.520201   -4.886278
   3 C     6.0000    0    12.011   17.366875  -19.547639   -3.762603
   4 C     6.0000    0    12.011   16.288077  -17.319864   -2.863725
   5 C     6.0000    0    12.011   17.611568  -15.057578   -3.067502
   6 C     6.0000    0    12.011   13.726152  -17.419391   -1.623275
   7 C     6.0000    0    12.011   13.829605  -18.403683    1.121285
   8 C     6.0000    0    12.011   11.324233  -19.599713    2.015416
   9 C     6.0000    0    12.011   10.993901  -22.295232    0.962028
  10 C     6.0000    0    12.011   13.062651  -24.121287    1.679728
  11 C     6.0000    0    12.011   13.735306  -24.453866    4.217631
  12 C     6.0000    0    12.011   15.608641  -26.154020    4.891805
  13 C     6.0000    0    12.011   16.832415  -27.595943    3.030701
  14 C     6.0000    0    12.011   16.191481  -27.264866    0.521917
  15 C     6.0000    0    12.011   14.323296  -25.527864   -0.144126
  16 C     6.0000    0    12.011   14.798198  -16.337752    2.896477
  17 C     6.0000    0    12.011    8.939936  -18.088125    1.397574
  18 O     8.0000    0    15.999   20.913000  -21.596928   -5.841404
  19 O     8.0000    0    15.999   21.507908  -12.931502   -4.294618
  20 O     8.0000    0    15.999   23.392400  -17.107118   -6.267122
  21 O     8.0000    0    15.999   18.650874  -29.301357    3.696324
  22 O     8.0000    0    15.999   16.437636  -26.597068    7.296426
  23 C     6.0000    0    12.011   25.552939  -18.334333   -5.158673
  24 C     6.0000    0    12.011   26.224715  -17.209086   -2.552038
  25 C     6.0000    0    12.011   24.464998  -18.055262   -0.445278
  26 C     6.0000    0    12.011   27.702995  -18.065206   -7.045206
  27 O     8.0000    0    15.999   28.445042  -15.522497   -7.532620
  28 C     6.0000    0    12.011   24.088281  -20.644055   -0.058566
  29 C     6.0000    0    12.011   22.451222  -21.487570    1.799737
  30 C     6.0000    0    12.011   21.178302  -19.733119    3.324426
  31 C     6.0000    0    12.011   21.607079  -17.181064    3.003326
  32 C     6.0000    0    12.011   23.248386  -16.343422    1.121088
  33 C     6.0000    0    12.011   20.573047  -10.619749   -3.254498
  34 C     6.0000    0    12.011   19.653351  -23.970550   -5.625945
  35 C     6.0000    0    12.011   15.346762  -25.167967    9.306364
  36 O     8.0000    0    15.999   26.460868  -14.528330   -2.719363
  37 O     8.0000    0    15.999   15.207247  -17.210457    5.419811
  38 O     8.0000    0    15.999    8.868608  -15.607196    2.470187
  39 O     8.0000    0    15.999   21.914807  -23.948089    2.323187
  40 O     8.0000    0    15.999   19.525236  -20.556488    5.141815
  41 C     6.0000    0    12.011   23.231097  -25.864027    0.953996
  42 H     1.0000    0     1.008   16.330298  -21.296961   -3.588702
  43 H     1.0000    0     1.008   16.779218  -13.338729   -2.349868
  44 H     1.0000    0     1.008   12.510437  -18.661236   -2.735406
  45 H     1.0000    0     1.008   12.855476  -15.547486   -1.657601
  46 H     1.0000    0     1.008   15.243944  -19.911616    1.168203
  47 H     1.0000    0     1.008   11.428569  -19.743801    4.075923
  48 H     1.0000    0     1.008    9.178348  -23.029778    1.632663
  49 H     1.0000    0     1.008   10.857869  -22.227216   -1.098309
  50 H     1.0000    0     1.008   12.788745  -23.366661    5.663577
  51 H     1.0000    0     1.008   17.165714  -28.360133   -0.905586
  52 H     1.0000    0     1.008   13.849534  -25.277670   -2.119560
  53 H     1.0000    0     1.008   16.550428  -15.552359    2.129102
  54 H     1.0000    0     1.008   13.426682  -14.809030    3.030681
  55 H     1.0000    0     1.008    8.751746  -17.814077   -0.637707
  56 H     1.0000    0     1.008    7.290191  -19.171919    2.026477
  57 H     1.0000    0     1.008   18.865393  -29.235860    5.513884
  58 H     1.0000    0     1.008   25.172863  -20.348512   -4.945539
  59 H     1.0000    0     1.008   28.123152  -17.896614   -2.108275
  60 H     1.0000    0     1.008   27.120994  -18.883365   -8.847254
  61 H     1.0000    0     1.008   29.302292  -19.171383   -6.326529
  62 H     1.0000    0     1.008   28.267879  -14.596835   -5.956767
  63 H     1.0000    0     1.008   25.061785  -22.003163   -1.229912
  64 H     1.0000    0     1.008   20.643990  -15.846939    4.217969
  65 H     1.0000    0     1.008   23.544452  -14.338344    0.878241
  66 H     1.0000    0     1.008   22.070266   -9.240566   -3.529761
  67 H     1.0000    0     1.008   18.871455  -10.006953   -4.246141
  68 H     1.0000    0     1.008   20.172549  -10.825791   -1.241084
  69 H     1.0000    0     1.008   19.284965  -24.438253   -3.650991
  70 H     1.0000    0     1.008   17.872999  -23.963523   -6.671807
  71 H     1.0000    0     1.008   20.929567  -25.358996   -6.440649
  72 H     1.0000    0     1.008   13.321901  -25.540147    9.458843
  73 H     1.0000    0     1.008   16.296996  -25.785266   11.019564
  74 H     1.0000    0     1.008   15.659361  -23.147280    9.022751
  75 H     1.0000    0     1.008   24.854074  -13.841606   -3.312275
  76 H     1.0000    0     1.008   16.547000  -18.464797    5.387936
  77 H     1.0000    0     1.008    8.947480  -15.767801    4.285864
  78 H     1.0000    0     1.008   19.406418  -22.382684    5.044185
  79 H     1.0000    0     1.008   22.521070  -27.648479    1.673635
  80 H     1.0000    0     1.008   22.843416  -25.722532   -1.066672
  81 H     1.0000    0     1.008   25.265014  -25.718934    1.278170

--------------------------------
INTERNAL COORDINATES (ANGSTROEM)
--------------------------------
 C      0   0   0     0.000000000000     0.00000000     0.00000000
 C      1   0   0     1.394984366248     0.00000000     0.00000000
 C      2   1   0     1.399197401152   119.18617062     0.00000000
 C      3   2   1     1.391519910236   119.99355334   359.49954253
 C      4   3   2     1.393532668587   120.48968628     1.35761467
 C      5   4   3     1.391151661785   119.68943746   359.29078109
 C      5   4   3     1.507187441117   119.18220148   180.85616870
 C      7   5   4     1.543904817722   112.92926016    77.88242528
 C      8   7   5     1.543424626683   113.34515997   205.03916098
 C      9   8   7     1.541402174832   111.47082637    78.03992129
 C     10   9   8     1.508786123249   114.79400988    58.85407943
 C     11  10   9     1.400473706177   120.41699447    52.95408963
 C     12  11  10     1.385435662546   120.69109004   179.08002439
 C     13  12  11     1.404112739191   120.15163811   359.04997398
 C     14  13  12     1.381386283079   119.46752103     1.39903084
 C     11  10   9     1.389443215157   121.10493526   232.25250492
 C      8   7   5     1.529820921904   110.39142928    76.96857969
 C      9   8   7     1.529267154845   115.38343182   314.04697407
 O      3   2   1     1.358585519877   115.80234510   179.86794727
 O      1   2   3     1.368252332803   115.27061305   177.20063393
 O      2   1   3     1.373851395167   118.55993127   176.56693233
 O     14  13  12     1.365470363929   120.21580988   181.04533723
 O     13  12  11     1.366232993711   125.52246103   178.93001473
 C     21   2   1     1.439774733826   119.37732518   115.13803569
 C     24  21   2     1.543892998035   111.89249124   297.11659779
 C     25  24  21     1.520043117487   113.61591011    76.10465548
 C     24  21   2     1.520330573833   106.52891842   174.13001345
 O     27  24  21     1.425204463681   114.42267662    62.84313294
 C     26  25  24     1.399402527996   118.87492866    53.86221894
 C     29  26  25     1.384460108767   120.57252675   181.62202762
 C     30  29  26     1.402379474369   119.71979502   359.36835072
 C     31  30  29     1.379919172420   119.87343292   358.53017640
 C     26  25  24     1.386407883527   122.03896644   233.06557721
 C     20   1   2     1.429759581154   118.24834320   183.14959902
 C     19   3   2     1.426544179072   118.01866956   178.01837996
 C     23  13  12     1.427031885486   118.25215342   358.50753978
 O     25  24  21     1.426838433397   110.37593584   307.87350456
 O     17   8   7     1.429381082812   113.17149387   186.57731365
 O     18   9   8     1.430795167715   114.63871239   300.00824703
 O     30  29  26     1.361117204116   125.69472873   179.13097544
 O     31  30  29     1.371117200805   119.97439730   178.99584617
 C     40  30  29     1.427614233918   118.31563971     3.57720532
 H      4   3   2     1.079944695518   120.30103800   180.93916292
 H      6   5   4     1.079605547292   119.49551187   180.69682316
 H      7   5   4     1.091821728471   108.43823119   317.02592719
 H      7   5   4     1.092630069955   109.90008301   200.67785423
 H      8   7   5     1.094312307291   106.95381971   321.91910649
 H      9   8   7     1.094429853318   106.89744895   195.30678689
 H     10   9   8     1.095479153927   108.09897115   180.89717980
 H     10   9   8     1.093249904662   109.73421985   296.16536251
 H     12  11  10     1.080448967676   119.62870135   358.80280222
 H     15  14  13     1.082746970325   119.05875102   178.95721299
 H     16  11  10     1.083119600234   119.59006546     1.58231910
 H     17   8   7     1.094260677596   109.11424995   309.32673971
 H     17   8   7     1.089136025614   110.33848058    67.66666992
 H     18   9   8     1.091297496673   110.84216502    59.29163577
 H     18   9   8     1.096276880347   108.57065473   176.84277420
 H     22  14  13     0.969107271334   108.35645066   358.94516679
 H     24  21   2     1.090516439809   109.66575055    58.30700700
 H     25  24  21     1.093962202877   105.95986682   194.38106623
 H     27  24  21     1.091630559011   108.98527968   302.98931694
 H     27  24  21     1.097053534073   107.43977233   186.21756990
 H     28  27  24     0.971663700432   107.10026252    35.31753810
 H     29  26  25     1.080213064679   119.99551955     0.88653778
 H     32  31  30     1.082266040285   119.19939762   181.29977114
 H     33  26  25     1.080217626052   120.21963246   359.53598711
 H     34  20   1     1.087015263007   105.70522772   178.16901947
 H     34  20   1     1.091476925393   110.76710974   296.95031999
 H     34  20   1     1.091785100414   110.94055104    59.15683645
 H     35  19   3     1.091555622061   111.07656372   300.90037359
 H     35  19   3     1.092661625225   111.06402534    62.86658514
 H     35  19   3     1.087102319090   105.84988089   181.86800637
 H     36  23  13     1.092444370527   110.87196017    62.20099389
 H     36  23  13     1.086947761826   105.97710603   181.24025950
 H     36  23  13     1.092379888317   110.79899583   300.29488490
 H     37  25  24     0.976460421638   108.28138921    59.38833421
 H     38  17   8     0.971342531749   108.36628466    64.29470953
 H     39  18   9     0.965468969352   108.23283210   299.48423566
 H     41  31  30     0.969801376487   108.70243238   357.02753100
 H     42  40  30     1.085302036957   105.71876820   179.77518963
 H     42  40  30     1.091365220456   110.90476074   298.71047261
 H     42  40  30     1.092588635814   110.55140502    60.39545268

---------------------------
INTERNAL COORDINATES (A.U.)
---------------------------
 C      0   0   0     0.000000000000     0.00000000     0.00000000
 C      1   0   0     2.636138413311     0.00000000     0.00000000
 C      2   1   0     2.644099895471   119.18617062     0.00000000
 C      3   2   1     2.629591540246   119.99355334   359.49954253
 C      4   3   2     2.633395102302   120.48968628     1.35761467
 C      5   4   3     2.628895651523   119.68943746   359.29078109
 C      5   4   3     2.848171496196   119.18220148   180.85616870
 C      7   5   4     2.917557282337   112.92926016    77.88242528
 C      8   7   5     2.916649852781   113.34515997   205.03916098
 C      9   8   7     2.912827972663   111.47082637    78.03992129
 C     10   9   8     2.851192567601   114.79400988    58.85407943
 C     11  10   9     2.646511762433   120.41699447    52.95408963
 C     12  11  10     2.618093978380   120.69109004   179.08002439
 C     13  12  11     2.653388538220   120.15163811   359.04997398
 C     14  13  12     2.610441760175   119.46752103     1.39903084
 C     11  10   9     2.625667155283   121.10493526   232.25250492
 C      8   7   5     2.890942576341   110.39142928    76.96857969
 C      9   8   7     2.889896108257   115.38343182   314.04697407
 O      3   2   1     2.567354562078   115.80234510   179.86794727
 O      1   2   3     2.585622191096   115.27061305   177.20063393
 O      2   1   3     2.596202885572   118.55993127   176.56693233
 O     14  13  12     2.580365031812   120.21580988   181.04533723
 O     13  12  11     2.581806193241   125.52246103   178.93001473
 C     21   2   1     2.720779941470   119.37732518   115.13803569
 C     24  21   2     2.917534946365   111.89249124   297.11659779
 C     25  24  21     2.872465203802   113.61591011    76.10465548
 C     24  21   2     2.873008417573   106.52891842   174.13001345
 O     27  24  21     2.693246121200   114.42267662    62.84313294
 C     26  25  24     2.644487529030   118.87492866    53.86221894
 C     29  26  25     2.616250448909   120.57252675   181.62202762
 C     30  29  26     2.650113142390   119.71979502   359.36835072
 C     31  30  29     2.607669322822   119.87343292   358.53017640
 C     26  25  24     2.619931209776   122.03896644   233.06557721
 C     20   1   2     2.701854045731   118.24834320   183.14959902
 C     19   3   2     2.695777816386   118.01866956   178.01837996
 C     23  13  12     2.696699447942   118.25215342   358.50753978
 O     25  24  21     2.696333876474   110.37593584   307.87350456
 O     17   8   7     2.701138787522   113.17149387   186.57731365
 O     18   9   8     2.703811020719   114.63871239   300.00824703
 O     30  29  26     2.572138751948   125.69472873   179.13097544
 O     31  30  29     2.591036007030   119.97439730   178.99584617
 C     40  30  29     2.697799926992   118.31563971     3.57720532
 H      4   3   2     2.040799714310   120.30103800   180.93916292
 H      6   5   4     2.040158817045   119.49551187   180.69682316
 H      7   5   4     2.063244053874   108.43823119   317.02592719
 H      7   5   4     2.064771597901   109.90008301   200.67785423
 H      8   7   5     2.067950565760   106.95381971   321.91910649
 H      9   8   7     2.068172695559   106.89744895   195.30678689
 H     10   9   8     2.070155586341   108.09897115   180.89717980
 H     10   9   8     2.065942915747   109.73421985   296.16536251
 H     12  11  10     2.041752650585   119.62870135   358.80280222
 H     15  14  13     2.046095246248   119.05875102   178.95721299
 H     16  11  10     2.046799414725   119.59006546     1.58231910
 H     17   8   7     2.067852999775   109.11424995   309.32673971
 H     17   8   7     2.058168810998   110.33848058    67.66666992
 H     18   9   8     2.062253399346   110.84216502    59.29163577
 H     18   9   8     2.071663070805   108.57065473   176.84277420
 H     22  14  13     1.831347337213   108.35645066   358.94516679
 H     24  21   2     2.060777415778   109.66575055    58.30700700
 H     25  24  21     2.067288964298   105.95986682   194.38106623
 H     27  24  21     2.062882795949   108.98527968   302.98931694
 H     27  24  21     2.073130733648   107.43977233   186.21756990
 H     28  27  24     1.836178288090   107.10026252    35.31753810
 H     29  26  25     2.041306858527   119.99551955     0.88653778
 H     32  31  30     2.045186420182   119.19939762   181.29977114
 H     33  26  25     2.041315478273   120.21963246   359.53598711
 H     34  20   1     2.054161150476   105.70522772   178.16901947
 H     34  20   1     2.062592470488   110.76710974   296.95031999
 H     34  20   1     2.063174836879   110.94055104    59.15683645
 H     35  19   3     2.062741185637   111.07656372   300.90037359
 H     35  19   3     2.064831228721   111.06402534    62.86658514
 H     35  19   3     2.054325662630   105.84988089   181.86800637
 H     36  23  13     2.064420676840   110.87196017    62.20099389
 H     36  23  13     2.054033591731   105.97710603   181.24025950
 H     36  23  13     2.064298823123   110.79899583   300.29488490
 H     37  25  24     1.845242777510   108.28138921    59.38833421
 H     38  17   8     1.835571367235   108.36628466    64.29470953
 H     39  18   9     1.824471942875   108.23283210   299.48423566
 H     41  31  30     1.832659005861   108.70243238   357.02753100
 H     42  40  30     2.050923622435   105.71876820   179.77518963
 H     42  40  30     2.062381378749   110.90476074   298.71047261
 H     42  40  30     2.064693298724   110.55140502    60.39545268

---------------------
BASIS SET INFORMATION
---------------------
There are 3 groups of distinct atoms

 Group   1 Type C   : 11s7p2d1f contracted to 4s5p2d1f pattern {7211/31111/11/1}
 Group   2 Type O   : 11s7p2d1f contracted to 4s5p2d1f pattern {7211/31111/11/1}
 Group   3 Type H   : 6s3p1d contracted to 3s2p1d pattern {411/21/1}

Atom   0C    basis set group =>   1
Atom   1C    basis set group =>   1
Atom   2C    basis set group =>   1
Atom   3C    basis set group =>   1
Atom   4C    basis set group =>   1
Atom   5C    basis set group =>   1
Atom   6C    basis set group =>   1
Atom   7C    basis set group =>   1
Atom   8C    basis set group =>   1
Atom   9C    basis set group =>   1
Atom  10C    basis set group =>   1
Atom  11C    basis set group =>   1
Atom  12C    basis set group =>   1
Atom  13C    basis set group =>   1
Atom  14C    basis set group =>   1
Atom  15C    basis set group =>   1
Atom  16C    basis set group =>   1
Atom  17C    basis set group =>   1
Atom  18O    basis set group =>   2
Atom  19O    basis set group =>   2
Atom  20O    basis set group =>   2
Atom  21O    basis set group =>   2
Atom  22O    basis set group =>   2
Atom  23C    basis set group =>   1
Atom  24C    basis set group =>   1
Atom  25C    basis set group =>   1
Atom  26C    basis set group =>   1
Atom  27O    basis set group =>   2
Atom  28C    basis set group =>   1
Atom  29C    basis set group =>   1
Atom  30C    basis set group =>   1
Atom  31C    basis set group =>   1
Atom  32C    basis set group =>   1
Atom  33C    basis set group =>   1
Atom  34C    basis set group =>   1
Atom  35C    basis set group =>   1
Atom  36O    basis set group =>   2
Atom  37O    basis set group =>   2
Atom  38O    basis set group =>   2
Atom  39O    basis set group =>   2
Atom  40O    basis set group =>   2
Atom  41C    basis set group =>   1
Atom  42H    basis set group =>   3
Atom  43H    basis set group =>   3
Atom  44H    basis set group =>   3
Atom  45H    basis set group =>   3
Atom  46H    basis set group =>   3
Atom  47H    basis set group =>   3
Atom  48H    basis set group =>   3
Atom  49H    basis set group =>   3
Atom  50H    basis set group =>   3
Atom  51H    basis set group =>   3
Atom  52H    basis set group =>   3
Atom  53H    basis set group =>   3
Atom  54H    basis set group =>   3
Atom  55H    basis set group =>   3
Atom  56H    basis set group =>   3
Atom  57H    basis set group =>   3
Atom  58H    basis set group =>   3
Atom  59H    basis set group =>   3
Atom  60H    basis set group =>   3
Atom  61H    basis set group =>   3
Atom  62H    basis set group =>   3
Atom  63H    basis set group =>   3
Atom  64H    basis set group =>   3
Atom  65H    basis set group =>   3
Atom  66H    basis set group =>   3
Atom  67H    basis set group =>   3
Atom  68H    basis set group =>   3
Atom  69H    basis set group =>   3
Atom  70H    basis set group =>   3
Atom  71H    basis set group =>   3
Atom  72H    basis set group =>   3
Atom  73H    basis set group =>   3
Atom  74H    basis set group =>   3
Atom  75H    basis set group =>   3
Atom  76H    basis set group =>   3
Atom  77H    basis set group =>   3
Atom  78H    basis set group =>   3
Atom  79H    basis set group =>   3
Atom  80H    basis set group =>   3
Atom  81H    basis set group =>   3
---------------------------------
AUXILIARY/J BASIS SET INFORMATION
---------------------------------
There are 3 groups of distinct atoms

 Group   1 Type C   : 15s13p12d5f5g contracted to 15s13p12d5f5g pattern {111111111111111/1111111111111/111111111111/11111/11111}
 Group   2 Type O   : 15s13p12d5f5g contracted to 15s13p12d5f5g pattern {111111111111111/1111111111111/111111111111/11111/11111}
 Group   3 Type H   : 12s4p3d2f contracted to 12s4p3d2f pattern {111111111111/1111/111/11}

Atom   0C    basis set group =>   1
Atom   1C    basis set group =>   1
Atom   2C    basis set group =>   1
Atom   3C    basis set group =>   1
Atom   4C    basis set group =>   1
Atom   5C    basis set group =>   1
Atom   6C    basis set group =>   1
Atom   7C    basis set group =>   1
Atom   8C    basis set group =>   1
Atom   9C    basis set group =>   1
Atom  10C    basis set group =>   1
Atom  11C    basis set group =>   1
Atom  12C    basis set group =>   1
Atom  13C    basis set group =>   1
Atom  14C    basis set group =>   1
Atom  15C    basis set group =>   1
Atom  16C    basis set group =>   1
Atom  17C    basis set group =>   1
Atom  18O    basis set group =>   2
Atom  19O    basis set group =>   2
Atom  20O    basis set group =>   2
Atom  21O    basis set group =>   2
Atom  22O    basis set group =>   2
Atom  23C    basis set group =>   1
Atom  24C    basis set group =>   1
Atom  25C    basis set group =>   1
Atom  26C    basis set group =>   1
Atom  27O    basis set group =>   2
Atom  28C    basis set group =>   1
Atom  29C    basis set group =>   1
Atom  30C    basis set group =>   1
Atom  31C    basis set group =>   1
Atom  32C    basis set group =>   1
Atom  33C    basis set group =>   1
Atom  34C    basis set group =>   1
Atom  35C    basis set group =>   1
Atom  36O    basis set group =>   2
Atom  37O    basis set group =>   2
Atom  38O    basis set group =>   2
Atom  39O    basis set group =>   2
Atom  40O    basis set group =>   2
Atom  41C    basis set group =>   1
Atom  42H    basis set group =>   3
Atom  43H    basis set group =>   3
Atom  44H    basis set group =>   3
Atom  45H    basis set group =>   3
Atom  46H    basis set group =>   3
Atom  47H    basis set group =>   3
Atom  48H    basis set group =>   3
Atom  49H    basis set group =>   3
Atom  50H    basis set group =>   3
Atom  51H    basis set group =>   3
Atom  52H    basis set group =>   3
Atom  53H    basis set group =>   3
Atom  54H    basis set group =>   3
Atom  55H    basis set group =>   3
Atom  56H    basis set group =>   3
Atom  57H    basis set group =>   3
Atom  58H    basis set group =>   3
Atom  59H    basis set group =>   3
Atom  60H    basis set group =>   3
Atom  61H    basis set group =>   3
Atom  62H    basis set group =>   3
Atom  63H    basis set group =>   3
Atom  64H    basis set group =>   3
Atom  65H    basis set group =>   3
Atom  66H    basis set group =>   3
Atom  67H    basis set group =>   3
Atom  68H    basis set group =>   3
Atom  69H    basis set group =>   3
Atom  70H    basis set group =>   3
Atom  71H    basis set group =>   3
Atom  72H    basis set group =>   3
Atom  73H    basis set group =>   3
Atom  74H    basis set group =>   3
Atom  75H    basis set group =>   3
Atom  76H    basis set group =>   3
Atom  77H    basis set group =>   3
Atom  78H    basis set group =>   3
Atom  79H    basis set group =>   3
Atom  80H    basis set group =>   3
Atom  81H    basis set group =>   3
---------------------------------
AUXILIARY/C BASIS SET INFORMATION
---------------------------------
There are 3 groups of distinct atoms

 Group   1 Type C   : 15s13p12d5f5g contracted to 15s13p12d5f5g pattern {111111111111111/1111111111111/111111111111/11111/11111}
 Group   2 Type O   : 15s13p12d5f5g contracted to 15s13p12d5f5g pattern {111111111111111/1111111111111/111111111111/11111/11111}
 Group   3 Type H   : 12s4p3d2f contracted to 12s4p3d2f pattern {111111111111/1111/111/11}

Atom   0C    basis set group =>   1
Atom   1C    basis set group =>   1
Atom   2C    basis set group =>   1
Atom   3C    basis set group =>   1
Atom   4C    basis set group =>   1
Atom   5C    basis set group =>   1
Atom   6C    basis set group =>   1
Atom   7C    basis set group =>   1
Atom   8C    basis set group =>   1
Atom   9C    basis set group =>   1
Atom  10C    basis set group =>   1
Atom  11C    basis set group =>   1
Atom  12C    basis set group =>   1
Atom  13C    basis set group =>   1
Atom  14C    basis set group =>   1
Atom  15C    basis set group =>   1
Atom  16C    basis set group =>   1
Atom  17C    basis set group =>   1
Atom  18O    basis set group =>   2
Atom  19O    basis set group =>   2
Atom  20O    basis set group =>   2
Atom  21O    basis set group =>   2
Atom  22O    basis set group =>   2
Atom  23C    basis set group =>   1
Atom  24C    basis set group =>   1
Atom  25C    basis set group =>   1
Atom  26C    basis set group =>   1
Atom  27O    basis set group =>   2
Atom  28C    basis set group =>   1
Atom  29C    basis set group =>   1
Atom  30C    basis set group =>   1
Atom  31C    basis set group =>   1
Atom  32C    basis set group =>   1
Atom  33C    basis set group =>   1
Atom  34C    basis set group =>   1
Atom  35C    basis set group =>   1
Atom  36O    basis set group =>   2
Atom  37O    basis set group =>   2
Atom  38O    basis set group =>   2
Atom  39O    basis set group =>   2
Atom  40O    basis set group =>   2
Atom  41C    basis set group =>   1
Atom  42H    basis set group =>   3
Atom  43H    basis set group =>   3
Atom  44H    basis set group =>   3
Atom  45H    basis set group =>   3
Atom  46H    basis set group =>   3
Atom  47H    basis set group =>   3
Atom  48H    basis set group =>   3
Atom  49H    basis set group =>   3
Atom  50H    basis set group =>   3
Atom  51H    basis set group =>   3
Atom  52H    basis set group =>   3
Atom  53H    basis set group =>   3
Atom  54H    basis set group =>   3
Atom  55H    basis set group =>   3
Atom  56H    basis set group =>   3
Atom  57H    basis set group =>   3
Atom  58H    basis set group =>   3
Atom  59H    basis set group =>   3
Atom  60H    basis set group =>   3
Atom  61H    basis set group =>   3
Atom  62H    basis set group =>   3
Atom  63H    basis set group =>   3
Atom  64H    basis set group =>   3
Atom  65H    basis set group =>   3
Atom  66H    basis set group =>   3
Atom  67H    basis set group =>   3
Atom  68H    basis set group =>   3
Atom  69H    basis set group =>   3
Atom  70H    basis set group =>   3
Atom  71H    basis set group =>   3
Atom  72H    basis set group =>   3
Atom  73H    basis set group =>   3
Atom  74H    basis set group =>   3
Atom  75H    basis set group =>   3
Atom  76H    basis set group =>   3
Atom  77H    basis set group =>   3
Atom  78H    basis set group =>   3
Atom  79H    basis set group =>   3
Atom  80H    basis set group =>   3
Atom  81H    basis set group =>   3
----------------------------------
AUXILIARY/JK BASIS SET INFORMATION
----------------------------------
There are 3 groups of distinct atoms

 Group   1 Type C   : 15s13p12d5f5g contracted to 15s13p12d5f5g pattern {111111111111111/1111111111111/111111111111/11111/11111}
 Group   2 Type O   : 15s13p12d5f5g contracted to 15s13p12d5f5g pattern {111111111111111/1111111111111/111111111111/11111/11111}
 Group   3 Type H   : 12s4p3d2f contracted to 12s4p3d2f pattern {111111111111/1111/111/11}

Atom   0C    basis set group =>   1
Atom   1C    basis set group =>   1
Atom   2C    basis set group =>   1
Atom   3C    basis set group =>   1
Atom   4C    basis set group =>   1
Atom   5C    basis set group =>   1
Atom   6C    basis set group =>   1
Atom   7C    basis set group =>   1
Atom   8C    basis set group =>   1
Atom   9C    basis set group =>   1
Atom  10C    basis set group =>   1
Atom  11C    basis set group =>   1
Atom  12C    basis set group =>   1
Atom  13C    basis set group =>   1
Atom  14C    basis set group =>   1
Atom  15C    basis set group =>   1
Atom  16C    basis set group =>   1
Atom  17C    basis set group =>   1
Atom  18O    basis set group =>   2
Atom  19O    basis set group =>   2
Atom  20O    basis set group =>   2
Atom  21O    basis set group =>   2
Atom  22O    basis set group =>   2
Atom  23C    basis set group =>   1
Atom  24C    basis set group =>   1
Atom  25C    basis set group =>   1
Atom  26C    basis set group =>   1
Atom  27O    basis set group =>   2
Atom  28C    basis set group =>   1
Atom  29C    basis set group =>   1
Atom  30C    basis set group =>   1
Atom  31C    basis set group =>   1
Atom  32C    basis set group =>   1
Atom  33C    basis set group =>   1
Atom  34C    basis set group =>   1
Atom  35C    basis set group =>   1
Atom  36O    basis set group =>   2
Atom  37O    basis set group =>   2
Atom  38O    basis set group =>   2
Atom  39O    basis set group =>   2
Atom  40O    basis set group =>   2
Atom  41C    basis set group =>   1
Atom  42H    basis set group =>   3
Atom  43H    basis set group =>   3
Atom  44H    basis set group =>   3
Atom  45H    basis set group =>   3
Atom  46H    basis set group =>   3
Atom  47H    basis set group =>   3
Atom  48H    basis set group =>   3
Atom  49H    basis set group =>   3
Atom  50H    basis set group =>   3
Atom  51H    basis set group =>   3
Atom  52H    basis set group =>   3
Atom  53H    basis set group =>   3
Atom  54H    basis set group =>   3
Atom  55H    basis set group =>   3
Atom  56H    basis set group =>   3
Atom  57H    basis set group =>   3
Atom  58H    basis set group =>   3
Atom  59H    basis set group =>   3
Atom  60H    basis set group =>   3
Atom  61H    basis set group =>   3
Atom  62H    basis set group =>   3
Atom  63H    basis set group =>   3
Atom  64H    basis set group =>   3
Atom  65H    basis set group =>   3
Atom  66H    basis set group =>   3
Atom  67H    basis set group =>   3
Atom  68H    basis set group =>   3
Atom  69H    basis set group =>   3
Atom  70H    basis set group =>   3
Atom  71H    basis set group =>   3
Atom  72H    basis set group =>   3
Atom  73H    basis set group =>   3
Atom  74H    basis set group =>   3
Atom  75H    basis set group =>   3
Atom  76H    basis set group =>   3
Atom  77H    basis set group =>   3
Atom  78H    basis set group =>   3
Atom  79H    basis set group =>   3
Atom  80H    basis set group =>   3
Atom  81H    basis set group =>   3
---------------------------------
AUXILIARY/X BASIS SET INFORMATION
---------------------------------
There are 3 groups of distinct atoms

 Group   1 Type C   : 15s13p12d5f5g contracted to 15s13p12d5f5g pattern {111111111111111/1111111111111/111111111111/11111/11111}
 Group   2 Type O   : 15s13p12d5f5g contracted to 15s13p12d5f5g pattern {111111111111111/1111111111111/111111111111/11111/11111}
 Group   3 Type H   : 12s4p3d2f contracted to 12s4p3d2f pattern {111111111111/1111/111/11}

Atom   0C    basis set group =>   1
Atom   1C    basis set group =>   1
Atom   2C    basis set group =>   1
Atom   3C    basis set group =>   1
Atom   4C    basis set group =>   1
Atom   5C    basis set group =>   1
Atom   6C    basis set group =>   1
Atom   7C    basis set group =>   1
Atom   8C    basis set group =>   1
Atom   9C    basis set group =>   1
Atom  10C    basis set group =>   1
Atom  11C    basis set group =>   1
Atom  12C    basis set group =>   1
Atom  13C    basis set group =>   1
Atom  14C    basis set group =>   1
Atom  15C    basis set group =>   1
Atom  16C    basis set group =>   1
Atom  17C    basis set group =>   1
Atom  18O    basis set group =>   2
Atom  19O    basis set group =>   2
Atom  20O    basis set group =>   2
Atom  21O    basis set group =>   2
Atom  22O    basis set group =>   2
Atom  23C    basis set group =>   1
Atom  24C    basis set group =>   1
Atom  25C    basis set group =>   1
Atom  26C    basis set group =>   1
Atom  27O    basis set group =>   2
Atom  28C    basis set group =>   1
Atom  29C    basis set group =>   1
Atom  30C    basis set group =>   1
Atom  31C    basis set group =>   1
Atom  32C    basis set group =>   1
Atom  33C    basis set group =>   1
Atom  34C    basis set group =>   1
Atom  35C    basis set group =>   1
Atom  36O    basis set group =>   2
Atom  37O    basis set group =>   2
Atom  38O    basis set group =>   2
Atom  39O    basis set group =>   2
Atom  40O    basis set group =>   2
Atom  41C    basis set group =>   1
Atom  42H    basis set group =>   3
Atom  43H    basis set group =>   3
Atom  44H    basis set group =>   3
Atom  45H    basis set group =>   3
Atom  46H    basis set group =>   3
Atom  47H    basis set group =>   3
Atom  48H    basis set group =>   3
Atom  49H    basis set group =>   3
Atom  50H    basis set group =>   3
Atom  51H    basis set group =>   3
Atom  52H    basis set group =>   3
Atom  53H    basis set group =>   3
Atom  54H    basis set group =>   3
Atom  55H    basis set group =>   3
Atom  56H    basis set group =>   3
Atom  57H    basis set group =>   3
Atom  58H    basis set group =>   3
Atom  59H    basis set group =>   3
Atom  60H    basis set group =>   3
Atom  61H    basis set group =>   3
Atom  62H    basis set group =>   3
Atom  63H    basis set group =>   3
Atom  64H    basis set group =>   3
Atom  65H    basis set group =>   3
Atom  66H    basis set group =>   3
Atom  67H    basis set group =>   3
Atom  68H    basis set group =>   3
Atom  69H    basis set group =>   3
Atom  70H    basis set group =>   3
Atom  71H    basis set group =>   3
Atom  72H    basis set group =>   3
Atom  73H    basis set group =>   3
Atom  74H    basis set group =>   3
Atom  75H    basis set group =>   3
Atom  76H    basis set group =>   3
Atom  77H    basis set group =>   3
Atom  78H    basis set group =>   3
Atom  79H    basis set group =>   3
Atom  80H    basis set group =>   3
Atom  81H    basis set group =>   3
--------------------------------------------------------------------------
WARNING: There was an error initializing an OpenFabrics device.

  Local host:   c01b01n04
  Local device: mlx5_0
--------------------------------------------------------------------------
--------------------------------------------------------------------------
WARNING: There is at least one non-excluded one OpenFabrics device found,
but there are no active ports detected (or Open MPI was unable to use
them).  This is most certainly not what you wanted.  Check your
cables, subnet manager configuration, etc.  The openib BTL will be
ignored for this job.

  Local host: c01b01n04
--------------------------------------------------------------------------


           ************************************************************
           *        Program running with 60 parallel MPI-processes    *
           *              working on a common directory               *
           ************************************************************
------------------------------------------------------------------------------
                             ORCA STARTUP CALCULATIONS
                           -- RI-GTO INTEGRALS CHOSEN --
------------------------------------------------------------------------------
------------------------------------------------------------------------------
                   ___                                                        
                  /   \      - P O W E R E D   B Y -                         
                 /     \                                                     
                 |  |  |   _    _      __       _____    __    __             
                 |  |  |  | |  | |    /  \     |  _  \  |  |  /  |          
                  \  \/   | |  | |   /    \    | | | |  |  | /  /          
                 / \  \   | |__| |  /  /\  \   | |_| |  |  |/  /          
                |  |  |   |  __  | /  /__\  \  |    /   |      \           
                |  |  |   | |  | | |   __   |  |    \   |  |\   \          
                \     /   | |  | | |  |  |  |  | |\  \  |  | \   \       
                 \___/    |_|  |_| |__|  |__|  |_| \__\ |__|  \__/        
                                                                              
                      - O R C A' S   B I G   F R I E N D -                    
                                      &                                       
                       - I N T E G R A L  F E E D E R -                       
                                                                              
 v1 FN, 2020, v2 2021, v3 2022-2024                                           
------------------------------------------------------------------------------


----------------------
SHARK INTEGRAL PACKAGE
----------------------

Number of atoms                             ...     82
Number of basis functions                   ...   2072
Number of shells                            ...    744
Maximum angular momentum                    ...      3
Integral batch strategy                     ... SHARK/LIBINT Hybrid
RI-J (if used) integral strategy            ... SPLIT-RIJ (Revised 2003 algorithm where possible)
Printlevel                                  ...      1
Contraction scheme used                     ... SEGMENTED contraction
Prescreening option                         ... SCHWARTZ
   Thresh                                   ... 1.000e-10
   Tcut                                     ... 1.000e-11
   Tpresel                                  ... 1.000e-11 
Coulomb Range Separation                    ... NOT USED
Exchange Range Separation                   ... NOT USED
Multipole approximations                    ... NOT USED
Finite Nucleus Model                        ... NOT USED
CABS basis                                  ... NOT available
Auxiliary Coulomb fitting basis             ... AVAILABLE
   # of basis functions in Aux-J            ...  10268
   # of shells in Aux-J                     ...   2940
   Maximum angular momentum in Aux-J        ...      4
Auxiliary J/K fitting basis                 ... AVAILABLE
   # of basis functions in Aux-JK           ...  10268
   # of shells in Aux-JK                    ...   2940
   Maximum angular momentum in Aux-JK       ...      4
Auxiliary Correlation fitting basis         ... AVAILABLE
   # of basis functions in Aux-C            ...  10268
   # of shells in Aux-C                     ...   2940
   Maximum angular momentum in Aux-C        ...      4
Auxiliary 'external' fitting basis          ... NOT available

Checking pre-screening integrals            ... done (  0.0 sec) Dimension = 744
   => SHARK Basis and OBASIS are compatible. Storing Pre-screening
Shell pair information
Shell pair cut-off parameter TPreSel        ...   1.0e-11
Total number of shell pairs                 ...    277140
Shell pairs after pre-screening             ...    151289
Total number of primitive shell pairs       ...    823733
Primitive shell pairs kept                  ...    277163
          la=0 lb=0:  28772 shell pairs
          la=1 lb=0:  50264 shell pairs
          la=1 lb=1:  20557 shell pairs
          la=2 lb=0:  19855 shell pairs
          la=2 lb=1:  15006 shell pairs
          la=2 lb=2:   2679 shell pairs
          la=3 lb=0:   6843 shell pairs
          la=3 lb=1:   5159 shell pairs
          la=3 lb=2:   1811 shell pairs
          la=3 lb=3:    343 shell pairs

Checking whether 4 symmetric matrices of dimension 2072 fit in memory
:Max Core in MB      =   5000.00
 MB in use           =    186.83
 MB left             =   4813.17
 MB needed           =     65.54
 Data fit in memory  = YES
Calculating RI/J V-Matrix + Cholesky decomp.... [c01b01n04:1939044] 53 more processes have sent help message help-mpi-btl-openib.txt / error in device init
[c01b01n04:1939044] Set MCA parameter "orte_base_help_aggregate" to 0 to see all help / error messages
[c01b01n04:1939044] 5 more processes have sent help message help-mpi-btl-openib.txt / no active ports found
done (  6.0 sec)
Calculating RI/JK V-Matrix + Cholesky decomp.... done (  5.1 sec)
Calculating RI/C V-Matrix + Cholesky decomp.... done ( 15.9 sec)
Calculating Nuclear repulsion               ... done (  0.0 sec) ENN=   5724.878834936966 Eh

Diagonalization of the overlap matrix:
Smallest eigenvalue                        ... 7.561e-06
Time for diagonalization                   ...    2.563 sec
Threshold for overlap eigenvalues          ... 1.000e-07
Number of eigenvalues below threshold      ... 0
Time for construction of square roots      ...    0.331 sec
Total time needed                          ...    2.938 sec

-------------------
DFT GRID GENERATION
-------------------

General Integration Accuracy     IntAcc      ... 4.388
Radial Grid Type                 RadialGrid  ... OptM3 with GC (2021)
Angular Grid (max. ang.)         AngularGrid ... 4 (Lebedev-302)
Angular grid pruning method      GridPruning ... 4 (adaptive)
Weight generation scheme         WeightScheme... mBecke (2022)
Basis function cutoff            BFCut       ... 1.0000e-10
Integration weight cutoff        WCut        ... 1.0000e-14
Partially contracted basis set               ... off
Rotationally invariant grid construction     ... off
Angular grids for H and He will be reduced by one unit
Diffuse basis detected: some atoms will have their outermost
                        angular grid increased by 1.

Total number of grid points                  ...   376588
Total number of batches                      ...     5927
Average number of points per batch           ...       63
Average number of grid points per atom       ...     4593
Grids setup in   2.1 sec
Initializing property integral containers    ... done (  0.1 sec)

SHARK setup successfully completed in  34.7 seconds

Maximum memory used throughout the entire STARTUP-calculation: 258.8 MB
--------------------------------------------------------------------------
WARNING: There was an error initializing an OpenFabrics device.

  Local host:   c01b01n04
  Local device: mlx5_0
--------------------------------------------------------------------------
--------------------------------------------------------------------------
WARNING: There is at least one non-excluded one OpenFabrics device found,
but there are no active ports detected (or Open MPI was unable to use
them).  This is most certainly not what you wanted.  Check your
cables, subnet manager configuration, etc.  The openib BTL will be
ignored for this job.

  Local host: c01b01n04
--------------------------------------------------------------------------


           ************************************************************
           *        Program running with 60 parallel MPI-processes    *
           *              working on a common directory               *
           ************************************************************
-------------------------------------------------------------------------------
                                 ORCA GUESS
                   Start orbitals & Density for SCF / CASSCF
-------------------------------------------------------------------------------

------------
SCF SETTINGS
------------
Hamiltonian:
 Density Functional     Method          .... DFT(GTOs)
 Exchange Functional    Exchange        .... TPSS
 Correlation Functional Correlation     .... TPSS
 LDA part of GGA corr.  LDAOpt          .... PW91-LDA
 Gradients option       PostSCFGGA      .... off
   NL short-range parameter             ....  5.000000
 RI-approximation to the Coulomb term is turned on
   Number of AuxJ basis functions       .... 10268


General Settings:
 Integral files         IntName         .... nmr-conf-6
 Hartree-Fock type      HFTyp           .... RHF
 Total Charge           Charge          ....    0
 Multiplicity           Mult            ....    1
 Number of Electrons    NEL             ....  314
 Basis Dimension        Dim             .... 2072
 Nuclear Repulsion      ENuc            ....   5724.8788349370 Eh

Convergence Acceleration:
 AO-DIIS                CNVDIIS         .... on
   Start iteration      DIISMaxIt       ....    12
   Startup error        DIISStart       ....  0.200000
   # of expansion vecs  DIISMaxEq       ....     5
   Bias factor          DIISBfac        ....   1.050
   Max. coefficient     DIISMaxC        ....  10.000
 MO-DIIS                CNVKDIIS        .... off
 Trust-Rad. Augm. Hess. CNVTRAH         .... auto
   Auto Start mean grad. ratio tolernc. ....  1.125000
   Auto Start start iteration           ....    50
   Auto Start num. interpolation iter.  ....    10
   Max. Number of Micro iterations      ....    24
   Max. Number of Macro iterations      .... Maxiter - #DIIS iter
   Number of Davidson start vectors     ....     2
   Converg. threshold    (grad. norm)   ....   5.000e-05
   Grad. Scal. Fac. for Micro threshold ....   0.100
   Minimum threshold for Micro iter.    ....   1.000e-02
   NR start threshold (gradient norm)   ....   1.000e-04
   Initial trust radius                 ....   0.400
   Minimum AH scaling param. (alpha)    ....   1.000
   Maximum AH scaling param. (alpha)    .... 1000.000
   Quad. conv. algorithm                .... NR
   White noise on init. David. guess    .... on
   Maximum white noise                  ....   0.010
   Pseudo random numbers                .... off
   Inactive MOs                         .... canonical
   Orbital update algorithm             .... Taylor
   Preconditioner                       .... Diag
   Full preconditioner red. dimension   ....   250
 SOSCF                 CNVSOSCF           .... on
   Start iteration     SOSCFMaxIt         ....   150
   Startup grad/error  SOSCFStart         ....  0.003300
   Hessian update      SOSCFHessUp        .... L-BFGS
   Autom. constraints  SOSCFAutoConstrain .... off
 Level Shifting         CNVShift        .... on
   Level shift para.    LevelShift      ....    0.2500
   Turn off err/grad.   ShiftErr        ....    0.0010
 Zerner damping         CNVZerner       .... off
 Static damping         CNVDamp         .... on
   Fraction old density DampFac         ....    0.7000
   Max. Damping (<1)    DampMax         ....    0.9800
   Min. Damping (>=0)   DampMin         ....    0.0000
   Turn off err/grad.   DampErr         ....    0.1000

SCF Procedure:
 Maximum # iterations   MaxIter         ....   125
 SCF integral mode      SCFMode         .... Direct
   Integral package                     .... SHARK and LIBINT hybrid scheme
 Reset frequency        DirectResetFreq ....    20
 Integral Threshold     Thresh          ....  1.000e-10 Eh
 Primitive CutOff       TCut            ....  1.000e-11 Eh

Convergence Tolerance:
 Convergence Check Mode ConvCheckMode   .... Total+1el-Energy
 Convergence forced     ConvForced      .... 0
 Energy Change          TolE            ....  1.000e-06 Eh
 1-El. energy change                    ....  1.000e-03 Eh
 Orbital Gradient       TolG            ....  5.000e-05
 Orbital Rotation angle TolX            ....  5.000e-05
 DIIS Error             TolErr          ....  1.000e-06

------------------------------
INITIAL GUESS: MODEL POTENTIAL
------------------------------
Loading Hartree-Fock densities                     ... done
Calculating cut-offs                               ... done
Initializing the effective Hamiltonian             ... done
Setting up the integral package (SHARK)            ... done
Starting the Coulomb interaction                   ... done (   0.8 sec)
Making the grid                                    ... done (   0.6 sec)
Mapping shells                                     ... done
Starting the XC term evaluation                    ... done (   0.1 sec)
  promolecular density results
     # of electrons  =    313.991569674
     EX              =   -260.301000990
     EC              =    -10.643494956
     EX+EC           =   -270.944495946
Transforming the Hamiltonian                       ... done (   0.3 sec)
Diagonalizing the Hamiltonian                      ... done (   0.6 sec)
Back transforming the eigenvectors                 ... done (   0.2 sec)
Now organizing SCF variables                       ... [c01b01n04:1939519] 51 more processes have sent help message help-mpi-btl-openib.txt / error in device init
[c01b01n04:1939519] Set MCA parameter "orte_base_help_aggregate" to 0 to see all help / error messages
[c01b01n04:1939519] 7 more processes have sent help message help-mpi-btl-openib.txt / no active ports found
done
                      ------------------
                      INITIAL GUESS DONE (   3.0 sec)
                      ------------------
             **** ENERGY FILE WAS UPDATED (nmr-conf-6.en.tmp) ****
Finished Guess after   6.7 sec
Maximum memory used throughout the entire GUESS-calculation: 290.6 MB
--------------------------------------------------------------------------
WARNING: There was an error initializing an OpenFabrics device.

  Local host:   c01b01n04
  Local device: mlx5_0
--------------------------------------------------------------------------
--------------------------------------------------------------------------
WARNING: There is at least one non-excluded one OpenFabrics device found,
but there are no active ports detected (or Open MPI was unable to use
them).  This is most certainly not what you wanted.  Check your
cables, subnet manager configuration, etc.  The openib BTL will be
ignored for this job.

  Local host: c01b01n04
--------------------------------------------------------------------------


           ************************************************************
           *        Program running with 60 parallel MPI-processes    *
           *              working on a common directory               *
           ************************************************************

-------------------------------------------------------------------------------------------
                                      ORCA LEAN-SCF
                              memory conserving SCF solver
-------------------------------------------------------------------------------------------

--------------------
CPCM SOLVATION MODEL
--------------------
CPCM parameters:
  Epsilon                                         ...      33.4280
  Refrac                                          ...       1.3288
  Rsolv                                           ...       1.3000
  Surface type                                    ... GAUSSIAN VDW
  Discretization scheme                           ... Constant charge density
    Threshold for H atoms                         ...       5.0000 (charges/Ang^2)
    Threshold for non-H atoms                     ...       5.0000 (charges/Ang^2)
  Epsilon function type                           ...         CPCM
Solvent:                                          ... METHANOL
Radii:
  Scheme                                          ... Element-dependent radii
  Radius for C  used is    3.8550 Bohr (=   2.0400 Ang.)
  Radius for O  used is    3.4469 Bohr (=   1.8240 Ang.)
  Radius for H  used is    2.4944 Bohr (=   1.3200 Ang.)
Calculating surface                               ...        done! (  0.0s)
Cavity surface points                             ...         6157
Cavity Volume                                     ...    4534.6282
Cavity Surface-area                               ...    2070.5656
Calculating surface distance matrix               ...        done! (  0.2s)
Performing Cholesky decomposition & store         ...        done! (  0.7s)
Overall time for CPCM initialization              ...                 1.1s

[c01b01n04:1940071] 53 more processes have sent help message help-mpi-btl-openib.txt / error in device init
[c01b01n04:1940071] Set MCA parameter "orte_base_help_aggregate" to 0 to see all help / error messages
[c01b01n04:1940071] 5 more processes have sent help message help-mpi-btl-openib.txt / no active ports found
----------------------------------------D-I-I-S--------------------------------------------
Iteration    Energy (Eh)           Delta-E    RMSDP     MaxDP     DIISErr   Damp  Time(sec)
-------------------------------------------------------------------------------------------
               ***  Starting incremental Fock matrix formation  ***
    1    -2033.0256962674284296     0.00e+00  7.98e-03  2.81e-01  2.41e-01  0.700   8.3
    2    -2033.4316433151061574    -4.06e-01  6.49e-03  2.16e-01  8.30e-02  0.700   8.2
                               ***Turning on AO-DIIS***
    3    -2033.5836345502066251    -1.52e-01  2.81e-03  7.03e-02  2.44e-02  0.700   6.9
    4    -2033.6753809890278717    -9.17e-02  4.74e-03  7.25e-02  1.14e-02  0.000   6.6
    5    -2033.8784249521977472    -2.03e-01  1.21e-03  3.82e-02  4.73e-03  0.000   7.0
                              *** Initializing SOSCF ***
---------------------------------------S-O-S-C-F--------------------------------------
Iteration    Energy (Eh)           Delta-E    RMSDP     MaxDP     MaxGrad    Time(sec)
--------------------------------------------------------------------------------------
    6    -2033.8797939807509465    -1.37e-03  3.85e-04  6.28e-03  1.43e-03     8.0
               *** Restarting incremental Fock matrix formation ***
    7    -2033.8798975824865920    -1.04e-04  3.12e-04  7.41e-03  1.34e-04     7.0
    8    -2033.8798730369899204     2.45e-05  7.94e-05  2.43e-03  5.48e-04     6.2
    9    -2033.8799133695747514    -4.03e-05  6.20e-05  1.03e-03  1.03e-04     5.4
   10    -2033.8799133928805531    -2.33e-08  1.91e-05  4.78e-04  9.91e-05     5.5
                 **** Energy Check signals convergence ****

               *****************************************************
               *                     SUCCESS                       *
               *           SCF CONVERGED AFTER  10 CYCLES          *
               *****************************************************

             **** ENERGY FILE WAS UPDATED (nmr-conf-6.en.tmp) ****

----------------
TOTAL SCF ENERGY
----------------

Total Energy       :      -2033.87991466880067 Eh          -55344.68615 eV

Components:
Nuclear Repulsion  :       5724.87883493696609 Eh          155781.87290 eV
Electronic Energy  :      -7758.71066718389466 Eh         -211125.25065 eV
One Electron Energy:     -14177.39200314004120 Eh         -385786.44941 eV
Two Electron Energy:       6418.68133595614654 Eh          174661.19876 eV
CPCM Dielectric    :         -0.04808242187207 Eh              -1.30839 eV

Virial components:
Potential Energy   :      -4061.12462129647292 Eh         -110508.81911 eV
Kinetic Energy     :       2027.24470662767226 Eh           55164.13296 eV
Virial Ratio       :          2.00327301781548

DFT components:
N(Alpha)           :      157.000466673711 electrons
N(Beta)            :      157.000466673711 electrons
N(Total)           :      314.000933347422 electrons
E(X)               :     -268.095786952278 Eh       
E(C)               :      -10.606015409870 Eh       
E(XC)              :     -278.701802362148 Eh       

CPCM Solvation Model Properties:
Surface-charge          :         -0.04266409448424
Corrected charge        :         -0.00000000000000
Outlying charge corr.   :          0.00007872397532 Eh               0.00214 eV
Free-energy (cav+disp)  :  This term is not implemented in the current solvation scheme

---------------
SCF CONVERGENCE
---------------

  Last Energy change         ...    2.3306e-08  Tolerance :   1.0000e-06
  Last MAX-Density change    ...    4.7833e-04  Tolerance :   1.0000e-05
  Last RMS-Density change    ...    1.9111e-05  Tolerance :   1.0000e-06
  Last DIIS Error            ...    1.4330e-03  Tolerance :   1.0000e-06
  Last Orbital Gradient      ...    9.9098e-05  Tolerance :   5.0000e-05
  Last Orbital Rotation      ...    2.0531e-04  Tolerance :   5.0000e-05


----------------
ORBITAL ENERGIES
----------------

  NO   OCC          E(Eh)            E(eV) 
   0   2.0000     -18.921496      -514.8801 
   1   2.0000     -18.919867      -514.8358 
   2   2.0000     -18.919197      -514.8175 
   3   2.0000     -18.918698      -514.8039 
   4   2.0000     -18.913832      -514.6715 
   5   2.0000     -18.910051      -514.5686 
   6   2.0000     -18.902277      -514.3571 
   7   2.0000     -18.886858      -513.9375 
   8   2.0000     -18.877532      -513.6838 
   9   2.0000     -18.871752      -513.5265 
  10   2.0000     -18.867379      -513.4075 
  11   2.0000     -10.047942      -273.4184 
  12   2.0000     -10.047106      -273.3957 
  13   2.0000     -10.045760      -273.3590 
  14   2.0000     -10.045530      -273.3528 
  15   2.0000     -10.045489      -273.3516 
  16   2.0000     -10.044772      -273.3321 
  17   2.0000     -10.043884      -273.3080 
  18   2.0000     -10.042094      -273.2593 
  19   2.0000     -10.036832      -273.1161 
  20   2.0000     -10.036650      -273.1111 
  21   2.0000     -10.034458      -273.0515 
  22   2.0000     -10.033621      -273.0287 
  23   2.0000     -10.033471      -273.0246 
  24   2.0000     -10.030939      -272.9557 
  25   2.0000     -10.024849      -272.7900 
  26   2.0000     -10.016482      -272.5623 
  27   2.0000      -9.992946      -271.9219 
  28   2.0000      -9.992386      -271.9067 
  29   2.0000      -9.988038      -271.7883 
  30   2.0000      -9.987194      -271.7654 
  31   2.0000      -9.986146      -271.7368 
  32   2.0000      -9.983961      -271.6774 
  33   2.0000      -9.983623      -271.6682 
  34   2.0000      -9.983416      -271.6626 
  35   2.0000      -9.983215      -271.6571 
  36   2.0000      -9.982994      -271.6511 
  37   2.0000      -9.981921      -271.6219 
  38   2.0000      -9.981887      -271.6209 
  39   2.0000      -9.979471      -271.5552 
  40   2.0000      -9.978401      -271.5261 
  41   2.0000      -9.976899      -271.4852 
  42   2.0000      -1.015316       -27.6282 
  43   2.0000      -1.012860       -27.5613 
  44   2.0000      -1.011846       -27.5337 
  45   2.0000      -1.001731       -27.2585 
  46   2.0000      -0.989469       -26.9248 
  47   2.0000      -0.984572       -26.7916 
  48   2.0000      -0.984031       -26.7768 
  49   2.0000      -0.960721       -26.1425 
  50   2.0000      -0.949456       -25.8360 
  51   2.0000      -0.943347       -25.6698 
  52   2.0000      -0.939797       -25.5732 
  53   2.0000      -0.798788       -21.7361 
  54   2.0000      -0.798143       -21.7186 
  55   2.0000      -0.795747       -21.6534 
  56   2.0000      -0.759567       -20.6689 
  57   2.0000      -0.736006       -20.0278 
  58   2.0000      -0.720294       -19.6002 
  59   2.0000      -0.703733       -19.1496 
  60   2.0000      -0.700943       -19.0736 
  61   2.0000      -0.699955       -19.0468 
  62   2.0000      -0.696620       -18.9560 
  63   2.0000      -0.687116       -18.6974 
  64   2.0000      -0.671432       -18.2706 
  65   2.0000      -0.652927       -17.7670 
  66   2.0000      -0.649604       -17.6766 
  67   2.0000      -0.648977       -17.6596 
  68   2.0000      -0.640826       -17.4378 
  69   2.0000      -0.626020       -17.0349 
  70   2.0000      -0.615269       -16.7423 
  71   2.0000      -0.613444       -16.6927 
  72   2.0000      -0.577244       -15.7076 
  73   2.0000      -0.568529       -15.4705 
  74   2.0000      -0.561616       -15.2823 
  75   2.0000      -0.559270       -15.2185 
  76   2.0000      -0.550478       -14.9793 
  77   2.0000      -0.546741       -14.8776 
  78   2.0000      -0.540350       -14.7037 
  79   2.0000      -0.536488       -14.5986 
  80   2.0000      -0.512699       -13.9513 
  81   2.0000      -0.512191       -13.9374 
  82   2.0000      -0.505057       -13.7433 
  83   2.0000      -0.498068       -13.5531 
  84   2.0000      -0.486799       -13.2465 
  85   2.0000      -0.478510       -13.0209 
  86   2.0000      -0.477152       -12.9840 
  87   2.0000      -0.473634       -12.8882 
  88   2.0000      -0.461676       -12.5628 
  89   2.0000      -0.459649       -12.5077 
  90   2.0000      -0.452015       -12.3000 
  91   2.0000      -0.447869       -12.1871 
  92   2.0000      -0.443198       -12.0600 
  93   2.0000      -0.437358       -11.9011 
  94   2.0000      -0.433540       -11.7972 
  95   2.0000      -0.432697       -11.7743 
  96   2.0000      -0.429233       -11.6800 
  97   2.0000      -0.428428       -11.6581 
  98   2.0000      -0.426142       -11.5959 
  99   2.0000      -0.423382       -11.5208 
 100   2.0000      -0.417034       -11.3481 
 101   2.0000      -0.416230       -11.3262 
 102   2.0000      -0.410142       -11.1605 
 103   2.0000      -0.407514       -11.0890 
 104   2.0000      -0.403271       -10.9736 
 105   2.0000      -0.401128       -10.9152 
 106   2.0000      -0.399609       -10.8739 
 107   2.0000      -0.395268       -10.7558 
 108   2.0000      -0.388756       -10.5786 
 109   2.0000      -0.385143       -10.4803 
 110   2.0000      -0.383494       -10.4354 
 111   2.0000      -0.380607       -10.3568 
 112   2.0000      -0.379089       -10.3155 
 113   2.0000      -0.377075       -10.2607 
 114   2.0000      -0.374514       -10.1911 
 115   2.0000      -0.371998       -10.1226 
 116   2.0000      -0.370667       -10.0864 
 117   2.0000      -0.364839        -9.9278 
[...]
  X           0.5005077    0.4870628   -0.7157247
  Y           0.6862009   -0.7272563   -0.0150486
  Z           0.5278449    0.4835990    0.6982204

 --------------
 Nucleus  73H :
 --------------

Diamagnetic contribution to the shielding tensor (ppm) : 
             6.834        -16.391         2.554
           -13.305         10.962        -6.365
            30.879        -36.621        39.284

Paramagnetic contribution to the shielding tensor (ppm): 
            17.130         14.840        -2.943
            12.168         13.694         7.049
           -30.044         35.554        -5.736

Total shielding tensor (ppm): 
            23.963         -1.551        -0.389
            -1.137         24.656         0.685
             0.835         -1.067        33.548


 Diagonalized sT*s matrix:
 
 sDSO            -5.978           20.852           42.205  iso=      19.026
 sPSO            28.900            4.837           -8.649  iso=       8.363
        ---------------  ---------------  ---------------
 Total           22.921           25.689           33.556  iso=      27.389

 Orientation: 
  X           0.7935202   -0.6074031    0.0372439
  Y           0.6085224    0.7925188   -0.0401799
  Z          -0.0051111    0.0545473    0.9984981

 --------------
 Nucleus  74H :
 --------------

Diamagnetic contribution to the shielding tensor (ppm) : 
            49.043         -7.695        -7.965
            12.313         34.644         1.572
            20.962        -21.253        68.093

Paramagnetic contribution to the shielding tensor (ppm): 
           -25.138          7.317         8.105
           -12.429         -3.712        -0.440
           -22.490         23.565       -39.480

Total shielding tensor (ppm): 
            23.905         -0.378         0.139
            -0.116         30.932         1.132
            -1.528          2.312        28.613


 Diagonalized sT*s matrix:
 
 sDSO            51.554           67.062           33.164  iso=      50.593
 sPSO           -27.747          -39.303           -1.279  iso=     -22.776
        ---------------  ---------------  ---------------
 Total           23.806           27.759           31.885  iso=      27.817

 Orientation: 
  X           0.9873737    0.1396476   -0.0747780
  Y          -0.0001743    0.4730161    0.8810538
  Z           0.1584082   -0.8699163    0.4670680

 --------------
 Nucleus  75H :
 --------------

Diamagnetic contribution to the shielding tensor (ppm) : 
            55.060        -13.006        16.957
            -7.144         36.736         4.104
           -31.455        -23.808        32.551

Paramagnetic contribution to the shielding tensor (ppm): 
           -18.667          4.188       -12.066
            -1.185        -12.181        -6.027
            37.359         22.412       -14.850

Total shielding tensor (ppm): 
            36.393         -8.818         4.891
            -8.329         24.556        -1.924
             5.905         -1.397        17.700


 Diagonalized sT*s matrix:
 
 sDSO            40.101           26.901           57.346  iso=      41.449
 sPSO           -23.924           -6.583          -15.192  iso=     -15.233
        ---------------  ---------------  ---------------
 Total           16.177           20.318           42.154  iso=      26.216

 Orientation: 
  X          -0.2954129   -0.3982184    0.8684200
  Y          -0.1152824   -0.8874881   -0.4461781
  Z           0.9483887   -0.2319203    0.2162678

 --------------
 Nucleus  76H :
 --------------

Diamagnetic contribution to the shielding tensor (ppm) : 
            70.853        -41.959        -3.572
             4.392         22.439        -4.890
            49.222        -13.262        61.891

Paramagnetic contribution to the shielding tensor (ppm): 
           -36.912         29.616         4.642
           -18.113          8.208         4.226
           -47.952         10.908       -40.301

Total shielding tensor (ppm): 
            33.941        -12.343         1.071
           -13.721         30.646        -0.663
             1.269         -2.353        21.590


 Diagonalized sT*s matrix:
 
 sDSO            27.748           55.618           71.817  iso=      51.728
 sPSO            -8.642          -34.117          -26.246  iso=     -23.002
        ---------------  ---------------  ---------------
 Total           19.106           21.500           45.571  iso=      28.726

 Orientation: 
  X           0.6368816   -0.1606142    0.7540457
  Y           0.7526223   -0.0825341   -0.6532594
  Z           0.1671572    0.9835605    0.0683174

 --------------
 Nucleus  77H :
 --------------

Diamagnetic contribution to the shielding tensor (ppm) : 
            65.332         24.327        -6.391
            18.957         47.414         0.803
            11.043        -25.733        94.952

Paramagnetic contribution to the shielding tensor (ppm): 
           -40.874        -26.999         5.045
           -21.254        -20.245         2.312
           -12.181         26.906       -55.055

Total shielding tensor (ppm): 
            24.458         -2.672        -1.346
            -2.297         27.169         3.115
            -1.138          1.174        39.897


 Diagonalized sT*s matrix:
 
 sDSO            79.598           39.937           88.162  iso=      69.233
 sPSO           -56.614          -11.813          -47.747  iso=     -38.725
        ---------------  ---------------  ---------------
 Total           22.984           28.124           40.415  iso=      30.508

 Orientation: 
  X           0.8620783   -0.4964052   -0.1019943
  Y           0.5067515    0.8463416    0.1640393
  Z           0.0048921   -0.1931005    0.9811668

 --------------
 Nucleus  78H :
 --------------

Diamagnetic contribution to the shielding tensor (ppm) : 
            47.252        -32.583       -16.752
             0.038         30.442       -16.596
            26.709        -15.850        41.980

Paramagnetic contribution to the shielding tensor (ppm): 
           -24.444         35.673        12.722
             2.731          5.741        18.597
           -32.462         14.718       -21.527

Total shielding tensor (ppm): 
            22.807          3.090        -4.029
             2.769         36.182         2.001
            -5.753         -1.132        20.453


 Diagonalized sT*s matrix:
 
 sDSO            54.539           40.558           24.577  iso=      39.891
 sPSO           -38.166          -14.292           12.227  iso=     -13.410
        ---------------  ---------------  ---------------
 Total           16.373           26.266           36.804  iso=      26.481

 Orientation: 
  X           0.6199758   -0.7534524   -0.2189507
  Y          -0.1315781    0.1752634   -0.9756895
  Z           0.7735096    0.6337130    0.0095212

 --------------
 Nucleus  79H :
 --------------

Diamagnetic contribution to the shielding tensor (ppm) : 
           -11.625        -55.759       -12.814
           -39.702          5.512       -15.448
             1.717         -8.368        -9.191

Paramagnetic contribution to the shielding tensor (ppm): 
            38.644         53.981         9.711
            41.219         24.988        13.755
            -4.378          8.053        32.640

Total shielding tensor (ppm): 
            27.020         -1.777        -3.103
             1.517         30.500        -1.693
            -2.661         -0.315        23.449


 Diagonalized sT*s matrix:
 
 sDSO           -21.111            8.811           -3.004  iso=      -5.101
 sPSO            42.854           19.748           33.671  iso=      32.091
        ---------------  ---------------  ---------------
 Total           21.744           28.558           30.667  iso=      26.990

 Orientation: 
  X           0.4852437    0.8642400    0.1327697
  Y           0.1018255   -0.2066651    0.9730987
  Z           0.8684297   -0.4586707   -0.1882846

 --------------
 Nucleus  80H :
 --------------

Diamagnetic contribution to the shielding tensor (ppm) : 
             6.325        -47.886       -16.117
           -33.605          7.929       -15.905
           -39.826         19.681        -0.948

Paramagnetic contribution to the shielding tensor (ppm): 
            19.667         47.051        14.402
            33.296         19.035        18.253
            39.292        -18.961        31.593

Total shielding tensor (ppm): 
            25.992         -0.835        -1.715
            -0.309         26.964         2.348
            -0.534          0.720        30.644


 Diagonalized sT*s matrix:
 
 sDSO           -20.892           16.247           17.950  iso=       4.435
 sPSO            46.568           10.193           13.534  iso=      23.432
        ---------------  ---------------  ---------------
 Total           25.676           26.440           31.484  iso=      27.867

 Orientation: 
  X           0.9560593   -0.2036416   -0.2109047
  Y           0.2653258    0.9070248    0.3269683
  Z           0.1247114   -0.3685595    0.9212008

 --------------
 Nucleus  81H :
 --------------

Diamagnetic contribution to the shielding tensor (ppm) : 
            25.160        -68.105       -14.536
           -28.895        -20.519       -19.092
            -0.672        -14.087       -53.139

Paramagnetic contribution to the shielding tensor (ppm): 
             7.306         63.995        13.748
            24.594         47.932        18.994
            -0.341         12.317        77.824

Total shielding tensor (ppm): 
            32.466         -4.109        -0.788
            -4.301         27.413        -0.099
            -1.012         -1.770        24.685


 Diagonalized sT*s matrix:
 
 sDSO           -70.210          -33.619           55.330  iso=     -16.166
 sPSO            93.796           59.741          -20.474  iso=      44.354
        ---------------  ---------------  ---------------
 Total           23.586           26.122           34.855  iso=      28.188

 Orientation: 
  X           0.3387405    0.3521085   -0.8725104
  Y           0.5477591    0.6801788    0.4871517
  Z           0.7649934   -0.6429435    0.0375334

[c01b01n04:1941514] 49 more processes have sent help message help-mpi-btl-openib.txt / error in device init
[c01b01n04:1941514] Set MCA parameter "orte_base_help_aggregate" to 0 to see all help / error messages
[c01b01n04:1941514] 9 more processes have sent help message help-mpi-btl-openib.txt / no active ports found


--------------------------------
CHEMICAL SHIELDING SUMMARY (ppm)
--------------------------------


  Nucleus  Element    Isotropic     Anisotropy
  -------  -------  ------------   ------------
      0       C           25.517        120.844 
      1       C           46.032         93.434 
      2       C           23.756        122.281 
      3       C           76.036        134.041 
      4       C           38.018        196.380 
      5       C           75.903        127.991 
      6       C          147.170         31.731 
      7       C          132.615         21.031 
      8       C          138.857         25.424 
      9       C          143.567         36.303 
     10       C           44.584        181.850 
     11       C           70.833        155.894 
     12       C           30.213        117.735 
     13       C           32.013        123.552 
     14       C           66.916        143.938 
     15       C           55.989        147.255 
     16       C          112.808         64.846 
     17       C          107.718         72.548 
     23       C           96.761         40.633 
     24       C           98.877         39.889 
     25       C           42.744        169.970 
     26       C          107.060         47.093 
     28       C           74.357        152.697 
     29       C           31.780        119.064 
     30       C           34.520        117.807 
     31       C           67.596        147.903 
     32       C           65.416        176.095 
     33       C          123.845         78.489 
     34       C          123.636         74.727 
     35       C          124.156         78.766 
     41       C          124.298         77.333 
     42       H           25.717          9.005 
     43       H           25.567          9.696 
     44       H           29.018          4.472 
     45       H           29.754          6.737 
     46       H           30.789          4.516 
     47       H           28.693          3.902 
     48       H           28.969          8.313 
     49       H           29.236          4.384 
     50       H           24.576         10.082 
     51       H           24.686          3.223 
     52       H           24.615          5.694 
     53       H           27.984          7.115 
     54       H           27.846          4.766 
     55       H           27.921          4.116 
     56       H           27.620          6.389 
     57       H           25.277         13.072 
     58       H           26.297          5.537 
     59       H           26.423          4.886 
     60       H           27.407          6.501 
     61       H           27.256          6.669 
     62       H           27.409         22.628 
     63       H           25.107         10.090 
     64       H           25.151          5.536 
     65       H           25.057          7.007 
     66       H           27.412          9.477 
     67       H           27.888          9.916 
     68       H           27.811          6.852 
     69       H           28.154          9.213 
     70       H           27.964          8.104 
     71       H           27.499          7.638 
     72       H           27.770          9.206 
     73       H           27.389          9.251 
     74       H           27.817          6.102 
     75       H           26.216         23.907 
     76       H           28.726         25.268 
     77       H           30.508         14.861 
     78       H           26.481         15.485 
     79       H           26.990          5.516 
     80       H           27.867          5.426 
     81       H           28.188         10.001 


NMR shielding tensor and spin rotation calculation done in   2.4 sec 

Maximum memory used throughout the entire PROP-calculation: 367.8 MB
--------------------------------------------------------------------------
WARNING: There was an error initializing an OpenFabrics device.

  Local host:   c01b01n04
  Local device: mlx5_0
--------------------------------------------------------------------------
--------------------------------------------------------------------------
WARNING: There is at least one non-excluded one OpenFabrics device found,
but there are no active ports detected (or Open MPI was unable to use
them).  This is most certainly not what you wanted.  Check your
cables, subnet manager configuration, etc.  The openib BTL will be
ignored for this job.

  Local host: c01b01n04
--------------------------------------------------------------------------
[c01b01n04:1942086] 49 more processes have sent help message help-mpi-btl-openib.txt / error in device init
[c01b01n04:1942086] Set MCA parameter "orte_base_help_aggregate" to 0 to see all help / error messages
[c01b01n04:1942086] 9 more processes have sent help message help-mpi-btl-openib.txt / no active ports found

--------------------------------
SUGGESTED CITATIONS FOR THIS RUN
--------------------------------

Below you find a list of papers that are relevant to this ORCA run
We neither can nor want to force you to cite these papers, but we appreciate if you do
You receive ORCA, which is the product of decades of hard work by many enthusiastic individuals, for free
The only thing we kindly ask in return is that you cite our papers,
We deeply appreciate it, if you show your appreciation for ORCA by not just citing the generic ORCA reference.

Please note that relegating all ORCA citations to the supporting information does *not* help us.
SI sections are not indexed - citations you put there will not count into any citation statistics
But we need these citations in order to attract the funding resources that allow us to do what we are doing

Therefore, if you are a happy ORCA user, please consider citing a few of the papers listed below in the main body of your paper

In addition to the list printed below, the program has created the file nmr-conf-6.bibtex that contains the list in bibtex format
You can import this file easily into all common literature databanks and citation aid programs


List of essential papers. We consider these as the minimum necessary citations

  1. Neese, F.
     Software update: the ORCA program system, version 6.0
     WIRES Comput. Molec. Sci. 2025 15(1), e70019
     doi.org/10.1002/wcms.7019

List of papers to cite with high priority. The work reported in these papers was absolutely
necessary for this run to complete.
Our perspective: the developers of density functionals and basis sets usually get cited in chemistry papers
Good! But without the algorithms to do something with them, the functionals or basis sets would not do anything.
Hence, in our opinion, the algorithm design and method developments papers are equally worthy of getting cited

  1. Neese, F.
     An improvement of the resolution of the identity approximation for the formation of the Coulomb matrix
     J. Comp. Chem. 2003 24(14), 1740-1747
     doi.org/10.1002/jcc.10318
  2. Stoychev, G.L.; Auer, A.A.; Neese, F.
     Automatic Generation of Auxiliary Basis Sets
     J. Theo. Comp. Chem. 2017 13 , 554-562
     doi.org/10.1021/acs.jctc.6b01041
  3. Stoychev, G.L.; Auer, A.A.; Izsak, R.; Neese, F.
     Self-Consistent Field Calculation of Nuclear Magnetic Resonance Chemical Shielding Constants Using Gauge-Including Atomic Orbitals and Approximate Two-Electron Integrals
     J. Chem. Theory Comput. 2018 14(2), 619-637
     doi.org/10.1021/acs.jctc.7b01006
  4. Garcia-Rates, M.; Neese, F.
     Effect of the Solute Cavity on the Solvation Energy and its Derivatives within the Framework of the Gaussian Charge Scheme
     J. Comput. Chem. 2020 41 , 922-939
     doi.org/10.1002/jcc.26139
  5. Neese, F.
     The SHARK Integral Generation and Digestion System
     J. Comp. Chem. 2022 44(3), 381
     doi.org/10.1002/jcc.26942

List of suggested additional citations. These are papers that are important in the 'surrounding' of 
of this run, or papers that preceded the highly important papers. If you like your results we are grateful for a citation.

  1. Neese, F.
     The ORCA program system
     WIRES Comput. Molec. Sci. 2012 2(1), 73-78
     doi.org/10.1002/wcms.81
  2. Neese, F.
     Software update: the ORCA program system, version 4.0
     WIRES Comput. Molec. Sci. 2018 8(1), 1-6
     doi.org/10.1002/wcms.1327
  3. Neese, F.; Wennmohs, F.; Becker, U.; Riplinger, C.
     The ORCA quantum chemistry program package
     J. Chem. Phys. 2020 152(22), 224108
     doi.org/10.1063/5.0004608
  4. Neese, F.
     Software update: The ORCA program system—Version 5.0
     WIRES Comput. Molec. Sci. 2022 12(1), e1606
     doi.org/10.1002/wcms.1606

List of optional additional citations

  1. Neese, F.
     Approximate second-order SCF convergence for spin unrestricted wavefunctions
     Chem. Phys. Lett. 2000 325(1-3), 93-98
     doi.org/10.1016/s0009-2614(00)00662-x

Timings for individual modules:

Sum of individual times          ...      201.283 sec (=   3.355 min)
Startup calculation              ...       39.933 sec (=   0.666 min)  19.8 %
SCF iterations                   ...       94.102 sec (=   1.568 min)  46.8 %
Property integrals               ...       49.784 sec (=   0.830 min)  24.7 %
SCF Response                     ...       11.077 sec (=   0.185 min)   5.5 %
Property calculations            ...        6.387 sec (=   0.106 min)   3.2 %
                             ****ORCA TERMINATED NORMALLY****
TOTAL RUN TIME: 0 days 0 hours 3 minutes 28 seconds 66 msec
