
                                 *****************
                                 * O   R   C   A *
                                 *****************

                                            #,                                       
                                            ###                                      
                                            ####                                     
                                            #####                                    
                                            ######                                   
                                           ########,                                 
                                     ,,################,,,,,                         
                               ,,#################################,,                 
                          ,,##########################################,,             
                       ,#########################################, ''#####,          
                    ,#############################################,,   '####,        
                  ,##################################################,,,,####,       
                ,###########''''           ''''###############################       
              ,#####''   ,,,,##########,,,,          '''####'''          '####       
            ,##' ,,,,###########################,,,                        '##       
           ' ,,###''''                  '''############,,,                           
         ,,##''                                '''############,,,,        ,,,,,,###''
      ,#''                                            '''#######################'''  
     '                                                          ''''####''''         
             ,#######,   #######,   ,#######,      ##                                
            ,#'     '#,  ##    ##  ,#'     '#,    #''#        ,####,    ,#,          
            ##       ##  ##   ,#'  ##            #'  '#       #'       ,# #          
            ##       ##  #######   ##           ,######,      #####,      #          
            '#,     ,#'  ##    ##  '#,     ,#' ,#      #,     #,   #      #          
             '#######'   ##     ##  '#######'  #'      '#     '####' #    #          



                #########################################################
                #                        -***-                          #
                #          Department of theory and spectroscopy        #
                #                                                       #
                #                      Frank Neese                      #
                #                                                       #
                #     Directorship, Architecture, Infrastructure        #
                #                    SHARK, DRIVERS                     #
                #        Core code/Algorithms in most modules           #
                #                                                       #
                #        Max Planck Institute fuer Kohlenforschung      #
                #                Kaiser Wilhelm Platz 1                 #
                #                 D-45470 Muelheim/Ruhr                 #
                #                      Germany                          #
                #                                                       #
                #                  All rights reserved                  #
                #                        -***-                          #
                #########################################################


                         Program Version 6.1.0-f.0  -   RELEASE   -


 With contributions from (in alphabetic order):
[Max-Planck-Institut fuer Kohlenforschung]                               
  Daniel Aravena         : Magnetic Suceptibility                        
  Michael Atanasov       : Ab Initio Ligand Field Theory (pilot matlab implementation)
  Alexander A. Auer      : GIAO ZORA, VPT2 properties, NMR spectrum      
  Ute Becker             : All parallelization in ORCA, NUMFREQ, NUMCALC 
  Giovanni Bistoni       : ED, misc. LED, open-shell LED, HFLD           
  Dmytro Bykov           : pre 5.0 version of the SCF Hessian            
  Marcos Casanova-Páez   : Triplet and SCS-CIS(D). UHF-(DLPNO)-IP/EA/STEOM-CCSD. UHF-CVS-IP/STEOM-CCSD   
  Vijay G. Chilkuri      : MRCI spin determinant printing, contributions to CSF-ICE 
  Pauline Colinet        : FMM embedding                                 
  Dipayan Datta          : RHF DLPNO-CCSD density                        
  Achintya Kumar Dutta   : EOM-CC, STEOM-CC                              
  Nicolas Foglia         : Exact transition moments, OPA infrastructure, MCD improvements    
  Dmitry Ganyushin       : Spin-Orbit,Spin-Spin,Magnetic field MRCI      
  Miquel Garcia-Rates    : C-PCM and meta-GGA Hessian, CCSD/C-PCM, Gaussian charge scheme 
  Tiago L. C. Gouveia    : GS-ROHF, GS-ROCIS                             
  Yang Guo               : DLPNO-NEVPT2, F12-NEVPT2, CIM, IAO-localization        
  Andreas Hansen         : Spin unrestricted coupled pair/coupled cluster methods 
  Ingolf Harden          : AUTO-CI MPn and infrastructure                
  Benjamin Helmich-Paris : MC-RPA, TRAH-(SCF,CASSCF), AVAS, COSX integrals, SCF dyn. polar., MC-PDFT, srDFT 
  Lee Huntington         : MR-EOM, pCC                                   
  Robert Izsak           : Overlap fitted RIJCOSX, COSX-SCS-MP3, EOM     
  Riya Kayal             : Wick's Theorem for AUTO-CI, AUTO-CI UHF-CCSDT 
  Emily Kempfer          : AUTO-CI RHF CISDT and CCSDT, approximate NEVPT4
  Christian Kollmar      : KDIIS, OOCD, Brueckner-CCSD(T), CCSD density, CASPT2, CASPT2-K, improved NEVPT2 
  Axel Koslowski         : Symmetry handling                             
  Simone Kossmann        : meta-GGA functionals, TD-DFT gradient, OOMP2, (MP2 Hessian; deprecated post 5.0) 
  Lucas Lang             : DCDCAS, Hyperfine gauge corrections, ICE-SOC+SSC
  Marvin Lechner         : AUTO-CI (C++ implementation), FIC-MRCC        
  Spencer Leger          : CASSCF response                               
  Dagmar Lenk            : GEPOL surface, SMD, ORCA-2-JSON               
  Dimitrios Liakos       : Extrapolation schemes; Compound Job, Property file
  Dimitrios Manganas     : Further ROCIS development; embedding schemes. LFT, Crystal Embedding 
  Dimitrios Pantazis     : SARC Basis sets                               
  Anastasios Papadopoulos: AUTO-CI, single reference methods and gradients 
  Taras Petrenko         : pre 6.0 DFT Hessian and TD-DFT gradient,  ECA, NRVS 
  Petra Pikulova         : Analytic Raman intensities                    
  Peter Pinski           : DLPNO-MP2, DLPNO-MP2 Gradient                 
  Shashank Vittal Rao    : ES-AILFT, MagRelax                            
  Christoph Reimann      : Effective Core Potentials                     
  Marius Retegan         : Local ZFS, SOC                                
  Christoph Riplinger    : Optimizer, TS searches, QM/MM, DLPNO-CCSD(T), (RO)-DLPNO pert. Triples 
  Michael Roemelt        : Original ROCIS implementation, recursive CI coupling coefficients
  Masaaki Saitow         : Open-shell DLPNO-CCSD energy and density      
  Barbara Sandhoefer     : DKH picture change effects                    
  Yorick L. A. Schmerwitz: GMF and freeze-and-release deltaSCF, NEB S-IDPP initial path                    
  Kantharuban Sivalingam : CASSCF convergence/infrastructure, NEVPT2, NEVPT3, NEVPT4(SD), FIC-MRCI and CEPA variants
  Bernardo de Souza      : ESD, SOC TD-DFT                               
  Georgi L. Stoychev     : AutoAux, RI-MP2 NMR, DLPNO-MP2 response, X2C  
  Van Anh Tran           : RI-MP2 g-tensors                              
  Willem Van den Heuvel  : Paramagnetic NMR                              
  Zikuan Wang            : NOTCH, Electric field optimization            
  Frank Wennmohs         : Technical directorship and infrastructure     
  Hang Xu                : AUTO-CI-Response properties                   
                                                                         
[FACCTs GmbH]                                                            
  Markus Bursch, Nicolas Foglia, Miquel Garcia-Rates, Ingolf Harden, Hagen Neugebauer, Anastasios Papadopoulos, 
  Christoph Riplinger, Bernardo de Souza, Georgi L. Stoychev                                                    
                                                                 
  APM, various basis sets, CI-OPT, improved COSX, DLPNO-Multilevel,           
  DOCKER, DRACO, updates on ESD, Fragmentator, GOAT, IRC, LR-CPCM, L-BFGS, MBIS, meta-GGA TD-DFT gradient, ML-optimized integration grids, 
  MM, NACMEs, nearIR, NEB, NEB-TS, NL-DFT gradient (VV10), 2- and 3-layer-ONIOM, interface openCOSMO-RS, QMMM,   
  Crystal-QMMM, RESP, rigid body optimization, SF, symmetry and pop. for TD-DFT, various functionals, SOLVATOR                                   
                                                                         
[Other institutions]                                                     
  V. Asgeirsson          : NEB                                           
  Christoph Bannwarth    : sTDA-DFT, sTD-DFT, PBEh-3c, B97-3c, D3        
  Giovanni Bistoni       : ETS/NOCV, ADLD/ADEX, COVALED                  
  Martin Brehm           : Molecular dynamics                            
  Ronald Cardenas        : ETS/NOCV                                      
  Martina Colucci        : COVALED                                       
  Sebastian Ehlert       : rSCAN, r2SCAN, r2SCAN-3c, D4, dhf basis sets  
  Marvin Friede          : D4 for Fr, Ra, Ac-Lr                          
  Lars Goerigk           : TD-DFT with DH, B97 family of functionals     
  Stefan Grimme          : VdW corrections, initial TS optimization, DFT functionals, gCP, sTDA/sTD-DF 
  Waldemar Hujo          : DFT-NL                                        
  H. Jonsson             : NEB                                           
  Holger Kruse           : gCP                                           
  Marcel Mueller         : wB97X-3c, vDZP basis set                      
  Hagen Neugebauer       : wr2SCAN, Native XTB                           
  Gianluca Regni         : ADLD/ADEX                                     
  Tobias Risthaus        : pre 6.0 range-separated hybrid DFT and stability analysis
  Lukas Wittmann         : regularized MP2, r2SCAN double-hybrids, wr2SCAN        
                                                                         
We gratefully acknowledge several colleagues who have allowed us to      
interface, adapt or use parts of their codes:                            
  Ed Valeev, F. Pavosevic, A. Kumar             : LibInt (2-el integral package), F12 methods 
  Garnet Chan, S. Sharma, J. Yang, R. Olivares  : DMRG                   
  Ulf Ekstrom                                   : XCFun DFT Library      
  Mihaly Kallay                                 : mrcc  (arbitrary order and MRCC methods)
  Frank Weinhold                                : gennbo (NPA and NBO analysis)           
  Simon Mueller                                 : openCOSMO-RS                            
  Christopher J. Cramer and Donald G. Truhlar   : smd solvation model                     
  S Lehtola, MJT Oliveira, MAL Marques          : LibXC Library                           
  Liviu Ungur et al                             : ANISO software                          


 Your calculation uses the libint2 library for the computation of 2-el integrals
 For citations please refer to: http://libint.valeyev.net

 Your ORCA version has been built with support for libXC version: 7.0.0
 For citations please refer to: https://libxc.gitlab.io

 This ORCA versions uses:
   CBLAS   interface :  Fast vector & matrix operations
   LAPACKE interface :  Fast linear algebra routines
   SCALAPACK package :  Parallel linear algebra routines
   Shared memory     :  Shared parallel matrices
   BLAS/LAPACK       :  OpenBLAS 0.3.29  USE64BITINT DYNAMIC_ARCH NO_AFFINITY Cooperlake SINGLE_THREADED
        Core in use  :  Cooperlake
   Copyright (c) 2011-2014, The OpenBLAS Project


  ***********************************
  * Starting time: Tue Mar  3 21:27:20 2026
  * Host name:     c01b01n06
  * Process ID:    63098
  * Working dir.:  /lustre1/jiangy/jiangy_liuxy/NMR/B9D7C2-SRSS-NMR/opt_conf
  ***********************************

NOTE: MaxCore=5000 MB was set to SCF,MP2,MDCI,CIPSI,MRCI,RASCI and CIS
      => If you want to overwrite this, your respective input block should be placed after the MaxCore statement


***************************************
The coordinates will be read from file: opt-conf-11.xyz
***************************************



Warning: The global flag for NMR shieldings has been found
         but shieldings for certain elements have also been explicitly requested in the EPRNMR block
         ==>> only the requested shieldings will be calculated

================================================================================

----- Orbital basis set information -----
Your calculation utilizes the basis: pcSseg-2
   F. Jensen, J. Chem. Theory Comput. 11, 132 (2015).

----- AuxJ basis set information -----
Your calculation utilizes the AutoAux generation procedure.
  G. L. Stoychev, A. A. Auer, F. Neese, J. Chem. Theory Comput. 13, 554 (2017)

----- AuxC basis set information -----
Your calculation utilizes the AutoAux generation procedure.
  G. L. Stoychev, A. A. Auer, F. Neese, J. Chem. Theory Comput. 13, 554 (2017)

----- AuxJK basis set information -----
Your calculation utilizes the AutoAux generation procedure.
  G. L. Stoychev, A. A. Auer, F. Neese, J. Chem. Theory Comput. 13, 554 (2017)

----- AuxX basis set information -----
Your calculation utilizes the AutoAux generation procedure.
  G. L. Stoychev, A. A. Auer, F. Neese, J. Chem. Theory Comput. 13, 554 (2017)

================================================================================
                                        WARNINGS
                       Please study these warnings very carefully!
================================================================================


================================================================================
                                       INPUT FILE
================================================================================
NAME = nmr-conf-11.inp
|  1> !TPSS PCSSEG-2 AUTOAUX NMR CPCM(Methanol)
|  2> 
|  3> %pal nprocs 60 end
|  4> %maxcore 5000
|  5> 
|  6> *XYZFILE 0 1 opt-conf-11.xyz
|  7> 
|  8> %EPRNMR
|  9>    NUCLEI = ALL C {SHIFT}
| 10>    NUCLEI = ALL H {SHIFT}
| 11>    TAU DOBSON
| 12> END
| 13> 
| 14> 
| 15>                          ****END OF INPUT****
================================================================================

                       ****************************
                       * Single Point Calculation *
                       ****************************

---------------------------------
CARTESIAN COORDINATES (ANGSTROEM)
---------------------------------
  C     10.530266   -8.235668   -2.273556
  C     11.230100   -9.405167   -2.570465
  C     10.613402  -10.643393   -2.369352
  C      9.331984  -10.703360   -1.827820
  C      8.639992   -9.532443   -1.524247
  C      9.233622   -8.297494   -1.771608
  C      7.280644   -9.624064   -0.873886
  C      7.374285   -9.728472    0.668121
  C      6.116308  -10.317866    1.353224
  C      5.651999  -11.657056    0.747490
  C      6.721616  -12.713320    0.617423
  C      7.468726  -13.108810    1.734505
  C      8.439778  -14.091530    1.624309
  C      8.686386  -14.701041    0.383280
  C      7.946372  -14.322363   -0.719930
  C      6.971098  -13.332975   -0.600382
  C      7.747292   -8.351302    1.223886
  C      4.932489   -9.345639    1.431128
  O     11.350090  -11.731238   -2.715895
  O     11.216935   -7.072855   -2.478837
  O     12.493037   -9.299320   -3.102746
  O      9.648269  -15.663876    0.264305
  O      9.216185  -14.559588    2.643847
  C     13.607781   -9.776768   -2.318440
  C     13.856376   -8.889256   -1.085415
  C     12.862233   -9.136489    0.044304
  C     14.783869   -9.772799   -3.276267
  O     14.562412  -10.642992   -4.383450
  C     12.613067  -10.444320    0.476514
  C     11.697650  -10.690790    1.486181
  C     11.030913   -9.620376    2.098532
  C     11.298220   -8.326635    1.700446
  C     12.211124   -8.086454    0.674822
  C     10.589214   -5.844464   -2.105768
  C     10.767433  -13.021093   -2.541805
  C      8.991599  -14.053492    3.957315
  O     13.934709   -7.522398   -1.459677
  O      7.778942   -8.286777    2.655293
  O      4.985642   -8.476394    2.568925
  O     11.354539  -11.919241    1.965624
  O     10.116690   -9.861636    3.093155
  C     12.063159  -13.058862    1.479038
  H      8.865293  -11.658127   -1.637983
  H      8.693611   -7.391268   -1.543112
  H      6.766532  -10.498751   -1.267124
  H      6.678461   -8.753276   -1.145801
  H      8.197662  -10.412703    0.893437
  H      6.399998  -10.525161    2.389418
  H      4.850451  -12.036389    1.389603
  H      5.198072  -11.490830   -0.232061
  H      7.283449  -12.644151    2.692779
  H      8.139931  -14.800661   -1.671777
  H      6.402300  -13.042991   -1.475215
  H      8.711039   -8.039766    0.820527
  H      7.007535   -7.611366    0.911391
  H      4.864850   -8.750217    0.511896
  H      4.000614   -9.909092    1.518875
  H     10.045770  -15.809760    1.135848
  H     13.412529  -10.802064   -2.006877
  H     14.854093   -9.150879   -0.718139
  H     15.669670  -10.141354   -2.757995
  H     14.979669   -8.751519   -3.617917
  H     13.725946  -10.379012   -4.789574
  H     13.122397  -11.275495    0.011842
  H     10.784971   -7.507711    2.188217
  H     12.402614   -7.069623    0.365738
  H     10.339502   -5.841812   -1.042939
  H     11.317657   -5.065249   -2.315182
  H      9.687511   -5.673535   -2.697036
  H     10.524891  -13.206126   -1.494659
  H      9.862661  -13.126705   -3.144793
  H     11.517424  -13.733508   -2.876418
  H      9.173925  -12.978059    3.999469
  H      7.970247  -14.262600    4.284066
  H      9.698201  -14.569253    4.602405
  H     13.098806   -7.286393   -1.899621
  H      8.486394   -8.876466    2.968440
  H      5.919185   -8.367100    2.822360
  H     10.053155  -10.819615    3.229007
  H     11.899474  -13.191008    0.408305
  H     13.132852  -12.959751    1.677143
  H     11.660539  -13.910808    2.017852

----------------------------
CARTESIAN COORDINATES (A.U.)
----------------------------
  NO LB      ZA    FRAG     MASS         X           Y           Z
   0 C     6.0000    0    12.011   19.899320  -15.563157   -4.296398
   1 C     6.0000    0    12.011   21.221813  -17.773190   -4.857475
   2 C     6.0000    0    12.011   20.056424  -20.113098   -4.477426
   3 C     6.0000    0    12.011   17.634895  -20.226420   -3.454079
   4 C     6.0000    0    12.011   16.327219  -18.013707   -2.880409
   5 C     6.0000    0    12.011   17.449017  -15.679992   -3.347855
   6 C     6.0000    0    12.011   13.758423  -18.186845   -1.651405
   7 C     6.0000    0    12.011   13.935378  -18.384148    1.262565
   8 C     6.0000    0    12.011   11.558147  -19.497940    2.557224
   9 C     6.0000    0    12.011   10.680730  -22.028644    1.412552
  10 C     6.0000    0    12.011   12.702014  -24.024693    1.166761
  11 C     6.0000    0    12.011   14.113846  -24.772061    3.277739
  12 C     6.0000    0    12.011   15.948870  -26.629132    3.069499
  13 C     6.0000    0    12.011   16.414890  -27.780941    0.724294
  14 C     6.0000    0    12.011   15.016467  -27.065343   -1.360470
  15 C     6.0000    0    12.011   13.173467  -25.195670   -1.134558
  16 C     6.0000    0    12.011   14.640261  -15.781673    2.312808
  17 C     6.0000    0    12.011    9.321053  -17.660698    2.704441
  18 O     8.0000    0    15.999   21.448562  -22.168828   -5.132298
  19 O     8.0000    0    15.999   21.196936  -13.365759   -4.684323
  20 O     8.0000    0    15.999   23.608418  -17.573168   -5.863340
  21 O     8.0000    0    15.999   18.232585  -29.600436    0.499464
  22 O     8.0000    0    15.999   17.416066  -27.513635    4.996146
  23 C     6.0000    0    12.011   25.714980  -18.475414   -4.381216
  24 C     6.0000    0    12.011   26.184756  -16.798259   -2.051137
  25 C     6.0000    0    12.011   24.306097  -17.265462    0.083723
  26 C     6.0000    0    12.011   27.937465  -18.467913   -6.191248
  27 O     8.0000    0    15.999   27.518971  -20.112340   -8.283520
  28 C     6.0000    0    12.011   23.835242  -19.736905    0.900481
  29 C     6.0000    0    12.011   22.105355  -20.202666    2.808475
  30 C     6.0000    0    12.011   20.845405  -18.179877    3.965651
  31 C     6.0000    0    12.011   21.350542  -15.735059    3.213377
  32 C     6.0000    0    12.011   23.075681  -15.281183    1.275230
  33 C     6.0000    0    12.011   20.010715  -11.044436   -3.979324
  34 C     6.0000    0    12.011   20.347500  -24.606300   -4.803315
  35 C     6.0000    0    12.011   16.991659  -26.557250    7.478242
  36 O     8.0000    0    15.999   26.332784  -14.215271   -2.758390
  37 O     8.0000    0    15.999   14.700070  -15.659738    5.017777
  38 O     8.0000    0    15.999    9.421499  -16.018063    4.854565
  39 O     8.0000    0    15.999   21.456970  -22.524102    3.714492
  40 O     8.0000    0    15.999   19.117774  -18.635792    5.845216
  41 C     6.0000    0    12.011   22.796066  -24.677673    2.794976
  42 H     1.0000    0     1.008   16.752975  -22.030667   -3.095339
  43 H     1.0000    0     1.008   16.428544  -13.967472   -2.916060
  44 H     1.0000    0     1.008   12.786892  -19.839764   -2.394518
  45 H     1.0000    0     1.008   12.620463  -16.541294   -2.165251
  46 H     1.0000    0     1.008   15.491336  -19.677157    1.688351
  47 H     1.0000    0     1.008   12.094244  -19.889672    4.515346
  48 H     1.0000    0     1.008    9.166023  -22.745479    2.625970
  49 H     1.0000    0     1.008    9.822933  -21.714522   -0.438533
  50 H     1.0000    0     1.008   13.763724  -23.893982    5.088614
  51 H     1.0000    0     1.008   15.382241  -27.969195   -3.159201
  52 H     1.0000    0     1.008   12.098594  -24.647681   -2.787752
  53 H     1.0000    0     1.008   16.461477  -15.192956    1.550572
  54 H     1.0000    0     1.008   13.242322  -14.383398    1.722279
  55 H     1.0000    0     1.008    9.193234  -16.535514    0.967344
  56 H     1.0000    0     1.008    7.560065  -18.725470    2.870258
  57 H     1.0000    0     1.008   18.983755  -29.876117    2.146441
  58 H     1.0000    0     1.008   25.346007  -20.412943   -3.792449
  59 H     1.0000    0     1.008   28.070168  -17.292656   -1.357086
  60 H     1.0000    0     1.008   29.611385  -19.164382   -5.211856
  61 H     1.0000    0     1.008   28.307472  -16.537973   -6.836873
  62 H     1.0000    0     1.008   25.938279  -19.613490   -9.050983
  63 H     1.0000    0     1.008   24.797736  -21.307598    0.022378
  64 H     1.0000    0     1.008   20.380642  -14.187518    4.135130
  65 H     1.0000    0     1.008   23.437543  -13.359652    0.691144
  66 H     1.0000    0     1.008   19.538827  -11.039425   -1.970868
  67 H     1.0000    0     1.008   21.387272   -9.571933   -4.375061
  68 H     1.0000    0     1.008   18.306742  -10.721428   -5.096659
  69 H     1.0000    0     1.008   19.889162  -24.955962   -2.824496
  70 H     1.0000    0     1.008   18.637729  -24.805877   -5.942798
  71 H     1.0000    0     1.008   21.764778  -25.952568   -5.435643
  72 H     1.0000    0     1.008   17.336205  -24.524978    7.557900
  73 H     1.0000    0     1.008   15.061583  -26.952407    8.095711
  74 H     1.0000    0     1.008   18.326944  -27.531898    8.697285
  75 H     1.0000    0     1.008   24.753156  -13.769287   -3.589763
  76 H     1.0000    0     1.008   16.036960  -16.774089    5.609539
  77 H     1.0000    0     1.008   11.185638  -15.811528    5.333488
  78 H     1.0000    0     1.008   18.997710  -20.446110    6.101938
  79 H     1.0000    0     1.008   22.486746  -24.927393    0.771584
  80 H     1.0000    0     1.008   24.817494  -24.490381    3.169342
  81 H     1.0000    0     1.008   22.035225  -26.287617    3.813187

--------------------------------
INTERNAL COORDINATES (ANGSTROEM)
--------------------------------
 C      0   0   0     0.000000000000     0.00000000     0.00000000
 C      1   0   0     1.394865548630     0.00000000     0.00000000
 C      2   1   0     1.397842949676   119.38786979     0.00000000
 C      3   2   1     1.392438465645   120.00695567   357.48534920
 C      4   3   2     1.393577002588   120.36456919     2.10655708
 C      1   2   3     1.391783173703   120.46068836     0.50397696
 C      5   4   3     1.509699346788   119.33769499   183.05475031
 C      7   5   4     1.548371573125   112.25043272    86.07199140
 C      8   7   5     1.548953358470   114.64691794   200.68547997
 C      9   8   7     1.541404640932   113.66680441    51.48422202
 C     10   9   8     1.508871001813   115.37497408    51.11436160
 C     11  10   9     1.400876660159   120.46108292    55.06511459
 C     12  11  10     1.385938323137   120.69340242   179.11273420
 C     13  12  11     1.404447300852   120.06678318     0.13214813
 C     14  13  12     1.381335577351   119.51716739   359.40144750
 C     11  10   9     1.388979225382   121.01127013   233.80928810
 C      8   7   5     1.531211206226   108.39405094    74.34082399
 C      9   8   7     1.533858549812   114.08474230   284.58994586
 O      3   2   1     1.358752777978   115.67763042   178.34598679
 O      1   2   3     1.365938677869   115.43844372   178.94024117
 O      2   1   3     1.374604288706   118.60879527   177.53227443
 O     14  13  12     1.366171784391   120.42707741   179.54021506
 O     13  12  11     1.364310315584   125.63155434   180.52919894
 C     21   2   1     1.444211776414   118.25660043   114.62062061
 C     24  21   2     1.539424460774   111.65578416   290.90378128
 C     25  24  21     1.525028303615   113.24159498    76.94532069
 C     24  21   2     1.516783620056   104.75520719   169.14478427
 O     27  24  21     1.425528928909   111.61758217   298.84558975
 C     26  25  24     1.399754352617   119.75203080    49.70464324
 C     29  26  25     1.384977739366   120.59922584   181.05491721
 C     30  29  26     1.401890717485   119.79555516   358.86115773
 C     31  30  29     1.379744177828   119.85378896   359.44717307
 C     26  25  24     1.387108265707   121.33233326   228.55328990
 C     20   1   2     1.429041624736   118.14532470   184.27998375
 C     19   3   2     1.426015810985   118.13227802   180.46156572
 C     23  13  12     1.425402603616   118.49834229     2.90094829
 O     25  24  21     1.419333883240   110.66566741   309.16484874
 O     17   8   7     1.433210671120   114.10266311   176.00513185
 O     18   9   8     1.432827226697   113.34275983   274.88909726
 O     30  29  26     1.362601303236   125.68881763   178.48083872
 O     31  30  29     1.372328353915   119.94600188   179.56657472
 C     40  30  29     1.427460426281   118.34726278     5.47640864
 H      4   3   2     1.079545211686   120.28581592   182.17695221
 H      6   1   2     1.079383690827   120.34112812   180.03955645
 H      7   5   4     1.088129118785   108.57352240   324.84131830
 H      7   5   4     1.093084161722   109.90911982   208.27156941
 H      8   7   5     1.094024440942   107.02530169   318.40660741
 H      9   8   7     1.094142791367   106.28364791   168.41742056
 H     10   9   8     1.094843541310   106.92226171   172.62103810
 H     10   9   8     1.092337860289   110.20404099   287.30524949
 H     12  11  10     1.080983334969   119.61270322   359.28524289
 H     15  14  13     1.082704195705   119.02889388   180.28066237
 H     16  11  10     1.083029881778   119.63249443     1.07761500
 H     17   8   7     1.090210564641   109.75918297   299.58793756
 H     17   8   7     1.091970051245   109.91026293    57.51917236
 H     18   9   8     1.097310186566   110.42388410    38.52384977
 H     18   9   8     1.092506262538   109.60254840   156.31616585
 H     22  14  13     0.968956633877   108.45825434     1.04524555
 H     24  21   2     1.089232077261   109.15741524    52.77946452
 H     25  24  21     1.094887287907   106.14531295   195.10496864
 H     27  24  21     1.090450328852   109.19867008   180.99376849
 H     27  24  21     1.094566313506   109.77043292    62.08452555
 H     28  27  24     0.966591061116   107.10095433    54.71346253
 H     29  26  25     1.079902223063   120.15306746     0.00000000
 H     32  31  30     1.082580424040   119.17349950   180.66151520
 H     33  26  25     1.079881891447   119.96410447     0.16359143
 H     34  20   1     1.091773333750   110.89750622    58.73930284
 H     34  20   1     1.087040967727   105.75510030   177.74059725
 H     34  20   1     1.091734383103   110.85447179   296.56173320
 H     35  19   3     1.090678215586   111.19363398   299.11568444
 H     35  19   3     1.092410377523   111.00621102    60.93877646
 H     35  19   3     1.087192557767   105.85916546   179.99061109
 H     36  23  13     1.091592346126   111.04286285   298.02650759
 H     36  23  13     1.092543963477   110.78881500    59.88859850
 H     36  23  13     1.086939335201   106.02056015   179.01386347
 H     37  25  24     0.973644186489   107.77005681    58.27590428
 H     38  17   8     0.972770453251   108.07583974    64.18241475
 H     39  18   9     0.973486276937   108.08437555    26.84482280
 H     41  31  30     0.969647436747   108.59532742   359.20648722
 H     42  40  30     1.091203088725   110.89756947   296.56325685
 H     42  40  30     1.092388747348   110.60078310    58.40314756
 H     42  40  30     1.085465449637   105.85857530   177.69564623

---------------------------
INTERNAL COORDINATES (A.U.)
---------------------------
 C      0   0   0     0.000000000000     0.00000000     0.00000000
 C      1   0   0     2.635913880552     0.00000000     0.00000000
 C      2   1   0     2.641540353121   119.38786979     0.00000000
 C      3   2   1     2.631327358407   120.00695567   357.48534920
 C      4   3   2     2.633478881422   120.36456919     2.10655708
 C      1   2   3     2.630089036099   120.46068836     0.50397696
 C      5   4   3     2.852918309989   119.33769499   183.05475031
 C      7   5   4     2.925998226756   112.25043272    86.07199140
 C      8   7   5     2.927097641726   114.64691794   200.68547997
 C      9   8   7     2.912832632917   113.66680441    51.48422202
 C     10   9   8     2.851352964841   115.37497408    51.11436160
 C     11  10   9     2.647273235102   120.46108292    55.06511459
 C     12  11  10     2.619043869236   120.69340242   179.11273420
 C     13  12  11     2.654020768136   120.06678318     0.13214813
 C     14  13  12     2.610345940236   119.51716739   359.40144750
 C     11  10   9     2.624790341678   121.01127013   233.80928810
 C      8   7   5     2.893569832959   108.39405094    74.34082399
 C      9   8   7     2.898572587318   114.08474230   284.58994586
 O      3   2   1     2.567670634083   115.67763042   178.34598679
 O      1   2   3     2.581250016902   115.43844372   178.94024117
 O      2   1   3     2.597625648168   118.60879527   177.53227443
 O     14  13  12     2.581690524390   120.42707741   179.54021506
 O     13  12  11     2.578172858137   125.63155434   180.52919894
 C     21   2   1     2.729164736806   118.25660043   114.62062061
 C     24  21   2     2.909090634723   111.65578416   290.90378128
 C     25  24  21     2.881885840310   113.24159498    76.94532069
 C     24  21   2     2.866305646323   104.75520719   169.14478427
 O     27  24  21     2.693859271619   111.61758217   298.84558975
 C     26  25  24     2.645152381211   119.75203080    49.70464324
 C     29  26  25     2.617228628980   120.59922584   181.05491721
 C     30  29  26     2.649189525733   119.79555516   358.86115773
 C     31  30  29     2.607338630967   119.85378896   359.44717307
 C     26  25  24     2.621254740285   121.33233326   228.55328990
 C     20   1   2     2.700497304725   118.14532470   184.27998375
 C     19   3   2     2.694779345404   118.13227802   180.46156572
 C     23  13  12     2.693620551412   118.49834229     2.90094829
 O     25  24  21     2.682152331919   110.66566741   309.16484874
 O     17   8   7     2.708375660631   114.10266311   176.00513185
 O     18   9   8     2.707651055684   113.34275983   274.88909726
 O     30  29  26     2.574943292841   125.68881763   178.48083872
 O     31  30  29     2.593324754714   119.94600188   179.56657472
 C     40  30  29     2.697509272682   118.34726278     5.47640864
 H      4   3   2     2.040044799272   120.28581592   182.17695221
 H      6   1   2     2.039739569084   120.34112812   180.03955645
 H      7   5   4     2.056266032849   108.57352240   324.84131830
 H      7   5   4     2.065629706981   109.90911982   208.27156941
 H      8   7   5     2.067406577196   107.02530169   318.40660741
 H      9   8   7     2.067630227087   106.28364791   168.41742056
 H     10   9   8     2.068954452568   106.92226171   172.62103810
 H     10   9   8     2.064219401660   110.20404099   287.30524949
 H     12  11  10     2.042762458424   119.61270322   359.28524289
 H     15  14  13     2.046014413930   119.02889388   180.28066237
 H     16  11  10     2.046629871413   119.63249443     1.07761500
 H     17   8   7     2.060199395479   109.75918297   299.58793756
 H     17   8   7     2.063524343297   109.91026293    57.51917236
 H     18   9   8     2.073615736572   110.42388410    38.52384977
 H     18   9   8     2.064537635790   109.60254840   156.31616585
 H     22  14  13     1.831062673673   108.45825434     1.04524555
 H     24  21   2     2.058350322306   109.15741524    52.77946452
 H     25  24  21     2.069037121656   106.14531295   195.10496864
 H     27  24  21     2.060652484176   109.19867008   180.99376849
 H     27  24  21     2.068430567942   109.77043292    62.08452555
 H     28  27  24     1.826592389005   107.10095433    54.71346253
 H     29  26  25     2.040719453002   120.15306746     0.00000000
 H     32  31  30     2.045780519381   119.17349950   180.66151520
 H     33  26  25     2.040681031816   119.96410447     0.16359143
 H     34  20   1     2.063152601106   110.89750622    58.73930284
 H     34  20   1     2.054209725356   105.75510030   177.74059725
 H     34  20   1     2.063078995051   110.85447179   296.56173320
 H     35  19   3     2.061083127692   111.19363398   299.11568444
 H     35  19   3     2.064356439372   111.00621102    60.93877646
 H     35  19   3     2.054496189018   105.85916546   179.99061109
 H     36  23  13     2.062810584063   111.04286285   298.02650759
 H     36  23  13     2.064608880240   110.78881500    59.88859850
 H     36  23  13     2.054017667717   106.02056015   179.01386347
 H     37  25  24     1.839920864348   107.77005681    58.27590428
 H     38  17   8     1.838269747816   108.07583974    64.18241475
 H     39  18   9     1.839622458542   108.08437555    26.84482280
 H     41  31  30     1.832368101911   108.59532742   359.20648722
 H     42  40  30     2.062074994180   110.89756947   296.56325685
 H     42  40  30     2.064315564265   110.60078310    58.40314756
 H     42  40  30     2.051232427647   105.85857530   177.69564623

---------------------
BASIS SET INFORMATION
---------------------
There are 3 groups of distinct atoms

 Group   1 Type C   : 11s7p2d1f contracted to 4s5p2d1f pattern {7211/31111/11/1}
 Group   2 Type O   : 11s7p2d1f contracted to 4s5p2d1f pattern {7211/31111/11/1}
 Group   3 Type H   : 6s3p1d contracted to 3s2p1d pattern {411/21/1}

Atom   0C    basis set group =>   1
Atom   1C    basis set group =>   1
Atom   2C    basis set group =>   1
Atom   3C    basis set group =>   1
Atom   4C    basis set group =>   1
Atom   5C    basis set group =>   1
Atom   6C    basis set group =>   1
Atom   7C    basis set group =>   1
Atom   8C    basis set group =>   1
Atom   9C    basis set group =>   1
Atom  10C    basis set group =>   1
Atom  11C    basis set group =>   1
Atom  12C    basis set group =>   1
Atom  13C    basis set group =>   1
Atom  14C    basis set group =>   1
Atom  15C    basis set group =>   1
Atom  16C    basis set group =>   1
Atom  17C    basis set group =>   1
Atom  18O    basis set group =>   2
Atom  19O    basis set group =>   2
Atom  20O    basis set group =>   2
Atom  21O    basis set group =>   2
Atom  22O    basis set group =>   2
Atom  23C    basis set group =>   1
Atom  24C    basis set group =>   1
Atom  25C    basis set group =>   1
Atom  26C    basis set group =>   1
Atom  27O    basis set group =>   2
Atom  28C    basis set group =>   1
Atom  29C    basis set group =>   1
Atom  30C    basis set group =>   1
Atom  31C    basis set group =>   1
Atom  32C    basis set group =>   1
Atom  33C    basis set group =>   1
Atom  34C    basis set group =>   1
Atom  35C    basis set group =>   1
Atom  36O    basis set group =>   2
Atom  37O    basis set group =>   2
Atom  38O    basis set group =>   2
Atom  39O    basis set group =>   2
Atom  40O    basis set group =>   2
Atom  41C    basis set group =>   1
Atom  42H    basis set group =>   3
Atom  43H    basis set group =>   3
Atom  44H    basis set group =>   3
Atom  45H    basis set group =>   3
Atom  46H    basis set group =>   3
Atom  47H    basis set group =>   3
Atom  48H    basis set group =>   3
Atom  49H    basis set group =>   3
Atom  50H    basis set group =>   3
Atom  51H    basis set group =>   3
Atom  52H    basis set group =>   3
Atom  53H    basis set group =>   3
Atom  54H    basis set group =>   3
Atom  55H    basis set group =>   3
Atom  56H    basis set group =>   3
Atom  57H    basis set group =>   3
Atom  58H    basis set group =>   3
Atom  59H    basis set group =>   3
Atom  60H    basis set group =>   3
Atom  61H    basis set group =>   3
Atom  62H    basis set group =>   3
Atom  63H    basis set group =>   3
Atom  64H    basis set group =>   3
Atom  65H    basis set group =>   3
Atom  66H    basis set group =>   3
Atom  67H    basis set group =>   3
Atom  68H    basis set group =>   3
Atom  69H    basis set group =>   3
Atom  70H    basis set group =>   3
Atom  71H    basis set group =>   3
Atom  72H    basis set group =>   3
Atom  73H    basis set group =>   3
Atom  74H    basis set group =>   3
Atom  75H    basis set group =>   3
Atom  76H    basis set group =>   3
Atom  77H    basis set group =>   3
Atom  78H    basis set group =>   3
Atom  79H    basis set group =>   3
Atom  80H    basis set group =>   3
Atom  81H    basis set group =>   3
---------------------------------
AUXILIARY/J BASIS SET INFORMATION
---------------------------------
There are 3 groups of distinct atoms

 Group   1 Type C   : 15s13p12d5f5g contracted to 15s13p12d5f5g pattern {111111111111111/1111111111111/111111111111/11111/11111}
 Group   2 Type O   : 15s13p12d5f5g contracted to 15s13p12d5f5g pattern {111111111111111/1111111111111/111111111111/11111/11111}
 Group   3 Type H   : 12s4p3d2f contracted to 12s4p3d2f pattern {111111111111/1111/111/11}

Atom   0C    basis set group =>   1
Atom   1C    basis set group =>   1
Atom   2C    basis set group =>   1
Atom   3C    basis set group =>   1
Atom   4C    basis set group =>   1
Atom   5C    basis set group =>   1
Atom   6C    basis set group =>   1
Atom   7C    basis set group =>   1
Atom   8C    basis set group =>   1
Atom   9C    basis set group =>   1
Atom  10C    basis set group =>   1
Atom  11C    basis set group =>   1
Atom  12C    basis set group =>   1
Atom  13C    basis set group =>   1
Atom  14C    basis set group =>   1
Atom  15C    basis set group =>   1
Atom  16C    basis set group =>   1
Atom  17C    basis set group =>   1
Atom  18O    basis set group =>   2
Atom  19O    basis set group =>   2
Atom  20O    basis set group =>   2
Atom  21O    basis set group =>   2
Atom  22O    basis set group =>   2
Atom  23C    basis set group =>   1
Atom  24C    basis set group =>   1
Atom  25C    basis set group =>   1
Atom  26C    basis set group =>   1
Atom  27O    basis set group =>   2
Atom  28C    basis set group =>   1
Atom  29C    basis set group =>   1
Atom  30C    basis set group =>   1
Atom  31C    basis set group =>   1
Atom  32C    basis set group =>   1
Atom  33C    basis set group =>   1
Atom  34C    basis set group =>   1
Atom  35C    basis set group =>   1
Atom  36O    basis set group =>   2
Atom  37O    basis set group =>   2
Atom  38O    basis set group =>   2
Atom  39O    basis set group =>   2
Atom  40O    basis set group =>   2
Atom  41C    basis set group =>   1
Atom  42H    basis set group =>   3
Atom  43H    basis set group =>   3
Atom  44H    basis set group =>   3
Atom  45H    basis set group =>   3
Atom  46H    basis set group =>   3
Atom  47H    basis set group =>   3
Atom  48H    basis set group =>   3
Atom  49H    basis set group =>   3
Atom  50H    basis set group =>   3
Atom  51H    basis set group =>   3
Atom  52H    basis set group =>   3
Atom  53H    basis set group =>   3
Atom  54H    basis set group =>   3
Atom  55H    basis set group =>   3
Atom  56H    basis set group =>   3
Atom  57H    basis set group =>   3
Atom  58H    basis set group =>   3
Atom  59H    basis set group =>   3
Atom  60H    basis set group =>   3
Atom  61H    basis set group =>   3
Atom  62H    basis set group =>   3
Atom  63H    basis set group =>   3
Atom  64H    basis set group =>   3
Atom  65H    basis set group =>   3
Atom  66H    basis set group =>   3
Atom  67H    basis set group =>   3
Atom  68H    basis set group =>   3
Atom  69H    basis set group =>   3
Atom  70H    basis set group =>   3
Atom  71H    basis set group =>   3
Atom  72H    basis set group =>   3
Atom  73H    basis set group =>   3
Atom  74H    basis set group =>   3
Atom  75H    basis set group =>   3
Atom  76H    basis set group =>   3
Atom  77H    basis set group =>   3
Atom  78H    basis set group =>   3
Atom  79H    basis set group =>   3
Atom  80H    basis set group =>   3
Atom  81H    basis set group =>   3
---------------------------------
AUXILIARY/C BASIS SET INFORMATION
---------------------------------
There are 3 groups of distinct atoms

 Group   1 Type C   : 15s13p12d5f5g contracted to 15s13p12d5f5g pattern {111111111111111/1111111111111/111111111111/11111/11111}
 Group   2 Type O   : 15s13p12d5f5g contracted to 15s13p12d5f5g pattern {111111111111111/1111111111111/111111111111/11111/11111}
 Group   3 Type H   : 12s4p3d2f contracted to 12s4p3d2f pattern {111111111111/1111/111/11}

Atom   0C    basis set group =>   1
Atom   1C    basis set group =>   1
Atom   2C    basis set group =>   1
Atom   3C    basis set group =>   1
Atom   4C    basis set group =>   1
Atom   5C    basis set group =>   1
Atom   6C    basis set group =>   1
Atom   7C    basis set group =>   1
Atom   8C    basis set group =>   1
Atom   9C    basis set group =>   1
Atom  10C    basis set group =>   1
Atom  11C    basis set group =>   1
Atom  12C    basis set group =>   1
Atom  13C    basis set group =>   1
Atom  14C    basis set group =>   1
Atom  15C    basis set group =>   1
Atom  16C    basis set group =>   1
Atom  17C    basis set group =>   1
Atom  18O    basis set group =>   2
Atom  19O    basis set group =>   2
Atom  20O    basis set group =>   2
Atom  21O    basis set group =>   2
Atom  22O    basis set group =>   2
Atom  23C    basis set group =>   1
Atom  24C    basis set group =>   1
Atom  25C    basis set group =>   1
Atom  26C    basis set group =>   1
Atom  27O    basis set group =>   2
Atom  28C    basis set group =>   1
Atom  29C    basis set group =>   1
Atom  30C    basis set group =>   1
Atom  31C    basis set group =>   1
Atom  32C    basis set group =>   1
Atom  33C    basis set group =>   1
Atom  34C    basis set group =>   1
Atom  35C    basis set group =>   1
Atom  36O    basis set group =>   2
Atom  37O    basis set group =>   2
Atom  38O    basis set group =>   2
Atom  39O    basis set group =>   2
Atom  40O    basis set group =>   2
Atom  41C    basis set group =>   1
Atom  42H    basis set group =>   3
Atom  43H    basis set group =>   3
Atom  44H    basis set group =>   3
Atom  45H    basis set group =>   3
Atom  46H    basis set group =>   3
Atom  47H    basis set group =>   3
Atom  48H    basis set group =>   3
Atom  49H    basis set group =>   3
Atom  50H    basis set group =>   3
Atom  51H    basis set group =>   3
Atom  52H    basis set group =>   3
Atom  53H    basis set group =>   3
Atom  54H    basis set group =>   3
Atom  55H    basis set group =>   3
Atom  56H    basis set group =>   3
Atom  57H    basis set group =>   3
Atom  58H    basis set group =>   3
Atom  59H    basis set group =>   3
Atom  60H    basis set group =>   3
Atom  61H    basis set group =>   3
Atom  62H    basis set group =>   3
Atom  63H    basis set group =>   3
Atom  64H    basis set group =>   3
Atom  65H    basis set group =>   3
Atom  66H    basis set group =>   3
Atom  67H    basis set group =>   3
Atom  68H    basis set group =>   3
Atom  69H    basis set group =>   3
Atom  70H    basis set group =>   3
Atom  71H    basis set group =>   3
Atom  72H    basis set group =>   3
Atom  73H    basis set group =>   3
Atom  74H    basis set group =>   3
Atom  75H    basis set group =>   3
Atom  76H    basis set group =>   3
Atom  77H    basis set group =>   3
Atom  78H    basis set group =>   3
Atom  79H    basis set group =>   3
Atom  80H    basis set group =>   3
Atom  81H    basis set group =>   3
----------------------------------
AUXILIARY/JK BASIS SET INFORMATION
----------------------------------
There are 3 groups of distinct atoms

 Group   1 Type C   : 15s13p12d5f5g contracted to 15s13p12d5f5g pattern {111111111111111/1111111111111/111111111111/11111/11111}
 Group   2 Type O   : 15s13p12d5f5g contracted to 15s13p12d5f5g pattern {111111111111111/1111111111111/111111111111/11111/11111}
 Group   3 Type H   : 12s4p3d2f contracted to 12s4p3d2f pattern {111111111111/1111/111/11}

Atom   0C    basis set group =>   1
Atom   1C    basis set group =>   1
Atom   2C    basis set group =>   1
Atom   3C    basis set group =>   1
Atom   4C    basis set group =>   1
Atom   5C    basis set group =>   1
Atom   6C    basis set group =>   1
Atom   7C    basis set group =>   1
Atom   8C    basis set group =>   1
Atom   9C    basis set group =>   1
Atom  10C    basis set group =>   1
Atom  11C    basis set group =>   1
Atom  12C    basis set group =>   1
Atom  13C    basis set group =>   1
Atom  14C    basis set group =>   1
Atom  15C    basis set group =>   1
Atom  16C    basis set group =>   1
Atom  17C    basis set group =>   1
Atom  18O    basis set group =>   2
Atom  19O    basis set group =>   2
Atom  20O    basis set group =>   2
Atom  21O    basis set group =>   2
Atom  22O    basis set group =>   2
Atom  23C    basis set group =>   1
Atom  24C    basis set group =>   1
Atom  25C    basis set group =>   1
Atom  26C    basis set group =>   1
Atom  27O    basis set group =>   2
Atom  28C    basis set group =>   1
Atom  29C    basis set group =>   1
Atom  30C    basis set group =>   1
Atom  31C    basis set group =>   1
Atom  32C    basis set group =>   1
Atom  33C    basis set group =>   1
Atom  34C    basis set group =>   1
Atom  35C    basis set group =>   1
Atom  36O    basis set group =>   2
Atom  37O    basis set group =>   2
Atom  38O    basis set group =>   2
Atom  39O    basis set group =>   2
Atom  40O    basis set group =>   2
Atom  41C    basis set group =>   1
Atom  42H    basis set group =>   3
Atom  43H    basis set group =>   3
Atom  44H    basis set group =>   3
Atom  45H    basis set group =>   3
Atom  46H    basis set group =>   3
Atom  47H    basis set group =>   3
Atom  48H    basis set group =>   3
Atom  49H    basis set group =>   3
Atom  50H    basis set group =>   3
Atom  51H    basis set group =>   3
Atom  52H    basis set group =>   3
Atom  53H    basis set group =>   3
Atom  54H    basis set group =>   3
Atom  55H    basis set group =>   3
Atom  56H    basis set group =>   3
Atom  57H    basis set group =>   3
Atom  58H    basis set group =>   3
Atom  59H    basis set group =>   3
Atom  60H    basis set group =>   3
Atom  61H    basis set group =>   3
Atom  62H    basis set group =>   3
Atom  63H    basis set group =>   3
Atom  64H    basis set group =>   3
Atom  65H    basis set group =>   3
Atom  66H    basis set group =>   3
Atom  67H    basis set group =>   3
Atom  68H    basis set group =>   3
Atom  69H    basis set group =>   3
Atom  70H    basis set group =>   3
Atom  71H    basis set group =>   3
Atom  72H    basis set group =>   3
Atom  73H    basis set group =>   3
Atom  74H    basis set group =>   3
Atom  75H    basis set group =>   3
Atom  76H    basis set group =>   3
Atom  77H    basis set group =>   3
Atom  78H    basis set group =>   3
Atom  79H    basis set group =>   3
Atom  80H    basis set group =>   3
Atom  81H    basis set group =>   3
---------------------------------
AUXILIARY/X BASIS SET INFORMATION
---------------------------------
There are 3 groups of distinct atoms

 Group   1 Type C   : 15s13p12d5f5g contracted to 15s13p12d5f5g pattern {111111111111111/1111111111111/111111111111/11111/11111}
 Group   2 Type O   : 15s13p12d5f5g contracted to 15s13p12d5f5g pattern {111111111111111/1111111111111/111111111111/11111/11111}
 Group   3 Type H   : 12s4p3d2f contracted to 12s4p3d2f pattern {111111111111/1111/111/11}

Atom   0C    basis set group =>   1
Atom   1C    basis set group =>   1
Atom   2C    basis set group =>   1
Atom   3C    basis set group =>   1
Atom   4C    basis set group =>   1
Atom   5C    basis set group =>   1
Atom   6C    basis set group =>   1
Atom   7C    basis set group =>   1
Atom   8C    basis set group =>   1
Atom   9C    basis set group =>   1
Atom  10C    basis set group =>   1
Atom  11C    basis set group =>   1
Atom  12C    basis set group =>   1
Atom  13C    basis set group =>   1
Atom  14C    basis set group =>   1
Atom  15C    basis set group =>   1
Atom  16C    basis set group =>   1
Atom  17C    basis set group =>   1
Atom  18O    basis set group =>   2
Atom  19O    basis set group =>   2
Atom  20O    basis set group =>   2
Atom  21O    basis set group =>   2
Atom  22O    basis set group =>   2
Atom  23C    basis set group =>   1
Atom  24C    basis set group =>   1
Atom  25C    basis set group =>   1
Atom  26C    basis set group =>   1
Atom  27O    basis set group =>   2
Atom  28C    basis set group =>   1
Atom  29C    basis set group =>   1
Atom  30C    basis set group =>   1
Atom  31C    basis set group =>   1
Atom  32C    basis set group =>   1
Atom  33C    basis set group =>   1
Atom  34C    basis set group =>   1
Atom  35C    basis set group =>   1
Atom  36O    basis set group =>   2
Atom  37O    basis set group =>   2
Atom  38O    basis set group =>   2
Atom  39O    basis set group =>   2
Atom  40O    basis set group =>   2
Atom  41C    basis set group =>   1
Atom  42H    basis set group =>   3
Atom  43H    basis set group =>   3
Atom  44H    basis set group =>   3
Atom  45H    basis set group =>   3
Atom  46H    basis set group =>   3
Atom  47H    basis set group =>   3
Atom  48H    basis set group =>   3
Atom  49H    basis set group =>   3
Atom  50H    basis set group =>   3
Atom  51H    basis set group =>   3
Atom  52H    basis set group =>   3
Atom  53H    basis set group =>   3
Atom  54H    basis set group =>   3
Atom  55H    basis set group =>   3
Atom  56H    basis set group =>   3
Atom  57H    basis set group =>   3
Atom  58H    basis set group =>   3
Atom  59H    basis set group =>   3
Atom  60H    basis set group =>   3
Atom  61H    basis set group =>   3
Atom  62H    basis set group =>   3
Atom  63H    basis set group =>   3
Atom  64H    basis set group =>   3
Atom  65H    basis set group =>   3
Atom  66H    basis set group =>   3
Atom  67H    basis set group =>   3
Atom  68H    basis set group =>   3
Atom  69H    basis set group =>   3
Atom  70H    basis set group =>   3
Atom  71H    basis set group =>   3
Atom  72H    basis set group =>   3
Atom  73H    basis set group =>   3
Atom  74H    basis set group =>   3
Atom  75H    basis set group =>   3
Atom  76H    basis set group =>   3
Atom  77H    basis set group =>   3
Atom  78H    basis set group =>   3
Atom  79H    basis set group =>   3
Atom  80H    basis set group =>   3
Atom  81H    basis set group =>   3
--------------------------------------------------------------------------
WARNING: There was an error initializing an OpenFabrics device.

  Local host:   c01b01n06
  Local device: mlx5_0
--------------------------------------------------------------------------
--------------------------------------------------------------------------
WARNING: There is at least one non-excluded one OpenFabrics device found,
but there are no active ports detected (or Open MPI was unable to use
them).  This is most certainly not what you wanted.  Check your
cables, subnet manager configuration, etc.  The openib BTL will be
ignored for this job.

  Local host: c01b01n06
--------------------------------------------------------------------------
[c01b01n06:63099] 52 more processes have sent help message help-mpi-btl-openib.txt / error in device init
[c01b01n06:63099] Set MCA parameter "orte_base_help_aggregate" to 0 to see all help / error messages
[c01b01n06:63099] 6 more processes have sent help message help-mpi-btl-openib.txt / no active ports found


           ************************************************************
           *        Program running with 60 parallel MPI-processes    *
           *              working on a common directory               *
           ************************************************************
------------------------------------------------------------------------------
                             ORCA STARTUP CALCULATIONS
                           -- RI-GTO INTEGRALS CHOSEN --
------------------------------------------------------------------------------
------------------------------------------------------------------------------
                   ___                                                        
                  /   \      - P O W E R E D   B Y -                         
                 /     \                                                     
                 |  |  |   _    _      __       _____    __    __             
                 |  |  |  | |  | |    /  \     |  _  \  |  |  /  |          
                  \  \/   | |  | |   /    \    | | | |  |  | /  /          
                 / \  \   | |__| |  /  /\  \   | |_| |  |  |/  /          
                |  |  |   |  __  | /  /__\  \  |    /   |      \           
                |  |  |   | |  | | |   __   |  |    \   |  |\   \          
                \     /   | |  | | |  |  |  |  | |\  \  |  | \   \       
                 \___/    |_|  |_| |__|  |__|  |_| \__\ |__|  \__/        
                                                                              
                      - O R C A' S   B I G   F R I E N D -                    
                                      &                                       
                       - I N T E G R A L  F E E D E R -                       
                                                                              
 v1 FN, 2020, v2 2021, v3 2022-2024                                           
------------------------------------------------------------------------------


----------------------
SHARK INTEGRAL PACKAGE
----------------------

Number of atoms                             ...     82
Number of basis functions                   ...   2072
Number of shells                            ...    744
Maximum angular momentum                    ...      3
Integral batch strategy                     ... SHARK/LIBINT Hybrid
RI-J (if used) integral strategy            ... SPLIT-RIJ (Revised 2003 algorithm where possible)
Printlevel                                  ...      1
Contraction scheme used                     ... SEGMENTED contraction
Prescreening option                         ... SCHWARTZ
   Thresh                                   ... 1.000e-10
   Tcut                                     ... 1.000e-11
   Tpresel                                  ... 1.000e-11 
Coulomb Range Separation                    ... NOT USED
Exchange Range Separation                   ... NOT USED
Multipole approximations                    ... NOT USED
Finite Nucleus Model                        ... NOT USED
CABS basis                                  ... NOT available
Auxiliary Coulomb fitting basis             ... AVAILABLE
   # of basis functions in Aux-J            ...  10268
   # of shells in Aux-J                     ...   2940
   Maximum angular momentum in Aux-J        ...      4
Auxiliary J/K fitting basis                 ... AVAILABLE
   # of basis functions in Aux-JK           ...  10268
   # of shells in Aux-JK                    ...   2940
   Maximum angular momentum in Aux-JK       ...      4
Auxiliary Correlation fitting basis         ... AVAILABLE
   # of basis functions in Aux-C            ...  10268
   # of shells in Aux-C                     ...   2940
   Maximum angular momentum in Aux-C        ...      4
Auxiliary 'external' fitting basis          ... NOT available

Checking pre-screening integrals            ... done (  0.0 sec) Dimension = 744
   => SHARK Basis and OBASIS are compatible. Storing Pre-screening
Shell pair information
Shell pair cut-off parameter TPreSel        ...   1.0e-11
Total number of shell pairs                 ...    277140
Shell pairs after pre-screening             ...    153326
Total number of primitive shell pairs       ...    823733
Primitive shell pairs kept                  ...    281017
          la=0 lb=0:  29204 shell pairs
          la=1 lb=0:  51041 shell pairs
          la=1 lb=1:  20800 shell pairs
          la=2 lb=0:  20136 shell pairs
          la=2 lb=1:  15174 shell pairs
          la=2 lb=2:   2708 shell pairs
          la=3 lb=0:   6930 shell pairs
          la=3 lb=1:   5183 shell pairs
          la=3 lb=2:   1817 shell pairs
          la=3 lb=3:    333 shell pairs

Checking whether 4 symmetric matrices of dimension 2072 fit in memory
:Max Core in MB      =   5000.00
 MB in use           =    189.18
 MB left             =   4810.82
 MB needed           =     65.54
 Data fit in memory  = YES
Calculating RI/J V-Matrix + Cholesky decomp.... done (  8.2 sec)
Calculating RI/JK V-Matrix + Cholesky decomp.... done (  4.0 sec)
Calculating RI/C V-Matrix + Cholesky decomp.... done (  3.9 sec)
Calculating Nuclear repulsion               ... done (  0.0 sec) ENN=   5755.605416250075 Eh

Diagonalization of the overlap matrix:
Smallest eigenvalue                        ... 6.702e-06
Time for diagonalization                   ...   11.443 sec
Threshold for overlap eigenvalues          ... 1.000e-07
Number of eigenvalues below threshold      ... 0
Time for construction of square roots      ...    1.138 sec
Total time needed                          ...   12.746 sec

-------------------
DFT GRID GENERATION
-------------------

General Integration Accuracy     IntAcc      ... 4.388
Radial Grid Type                 RadialGrid  ... OptM3 with GC (2021)
Angular Grid (max. ang.)         AngularGrid ... 4 (Lebedev-302)
Angular grid pruning method      GridPruning ... 4 (adaptive)
Weight generation scheme         WeightScheme... mBecke (2022)
Basis function cutoff            BFCut       ... 1.0000e-10
Integration weight cutoff        WCut        ... 1.0000e-14
Partially contracted basis set               ... off
Rotationally invariant grid construction     ... off
Angular grids for H and He will be reduced by one unit
Diffuse basis detected: some atoms will have their outermost
                        angular grid increased by 1.

Total number of grid points                  ...   376436
Total number of batches                      ...     5925
Average number of points per batch           ...       63
Average number of grid points per atom       ...     4591
Grids setup in   7.7 sec
Initializing property integral containers    ... done (  0.4 sec)

SHARK setup successfully completed in  58.4 seconds

Maximum memory used throughout the entire STARTUP-calculation: 261.2 MB
--------------------------------------------------------------------------
WARNING: There was an error initializing an OpenFabrics device.

  Local host:   c01b01n06
  Local device: mlx5_0
--------------------------------------------------------------------------
--------------------------------------------------------------------------
WARNING: There is at least one non-excluded one OpenFabrics device found,
but there are no active ports detected (or Open MPI was unable to use
them).  This is most certainly not what you wanted.  Check your
cables, subnet manager configuration, etc.  The openib BTL will be
ignored for this job.

  Local host: c01b01n06
--------------------------------------------------------------------------


           ************************************************************
           *        Program running with 60 parallel MPI-processes    *
           *              working on a common directory               *
           ************************************************************
-------------------------------------------------------------------------------
                                 ORCA GUESS
                   Start orbitals & Density for SCF / CASSCF
-------------------------------------------------------------------------------

------------
SCF SETTINGS
------------
Hamiltonian:
 Density Functional     Method          .... DFT(GTOs)
 Exchange Functional    Exchange        .... TPSS
 Correlation Functional Correlation     .... TPSS
 LDA part of GGA corr.  LDAOpt          .... PW91-LDA
 Gradients option       PostSCFGGA      .... off
   NL short-range parameter             ....  5.000000
 RI-approximation to the Coulomb term is turned on
   Number of AuxJ basis functions       .... 10268


General Settings:
 Integral files         IntName         .... nmr-conf-11
 Hartree-Fock type      HFTyp           .... RHF
 Total Charge           Charge          ....    0
 Multiplicity           Mult            ....    1
 Number of Electrons    NEL             ....  314
 Basis Dimension        Dim             .... 2072
 Nuclear Repulsion      ENuc            ....   5755.6054162501 Eh

Convergence Acceleration:
 AO-DIIS                CNVDIIS         .... on
   Start iteration      DIISMaxIt       ....    12
   Startup error        DIISStart       ....  0.200000
   # of expansion vecs  DIISMaxEq       ....     5
   Bias factor          DIISBfac        ....   1.050
   Max. coefficient     DIISMaxC        ....  10.000
 MO-DIIS                CNVKDIIS        .... off
 Trust-Rad. Augm. Hess. CNVTRAH         .... auto
   Auto Start mean grad. ratio tolernc. ....  1.125000
   Auto Start start iteration           ....    50
   Auto Start num. interpolation iter.  ....    10
   Max. Number of Micro iterations      ....    24
   Max. Number of Macro iterations      .... Maxiter - #DIIS iter
   Number of Davidson start vectors     ....     2
   Converg. threshold    (grad. norm)   ....   5.000e-05
   Grad. Scal. Fac. for Micro threshold ....   0.100
   Minimum threshold for Micro iter.    ....   1.000e-02
   NR start threshold (gradient norm)   ....   1.000e-04
   Initial trust radius                 ....   0.400
   Minimum AH scaling param. (alpha)    ....   1.000
   Maximum AH scaling param. (alpha)    .... 1000.000
   Quad. conv. algorithm                .... NR
   White noise on init. David. guess    .... on
   Maximum white noise                  ....   0.010
   Pseudo random numbers                .... off
   Inactive MOs                         .... canonical
   Orbital update algorithm             .... Taylor
   Preconditioner                       .... Diag
   Full preconditioner red. dimension   ....   250
 SOSCF                 CNVSOSCF           .... on
   Start iteration     SOSCFMaxIt         ....   150
   Startup grad/error  SOSCFStart         ....  0.003300
   Hessian update      SOSCFHessUp        .... L-BFGS
   Autom. constraints  SOSCFAutoConstrain .... off
 Level Shifting         CNVShift        .... on
   Level shift para.    LevelShift      ....    0.2500
   Turn off err/grad.   ShiftErr        ....    0.0010
 Zerner damping         CNVZerner       .... off
 Static damping         CNVDamp         .... on
   Fraction old density DampFac         ....    0.7000
   Max. Damping (<1)    DampMax         ....    0.9800
   Min. Damping (>=0)   DampMin         ....    0.0000
   Turn off err/grad.   DampErr         ....    0.1000

SCF Procedure:
 Maximum # iterations   MaxIter         ....   125
 SCF integral mode      SCFMode         .... Direct
   Integral package                     .... SHARK and LIBINT hybrid scheme
 Reset frequency        DirectResetFreq ....    20
 Integral Threshold     Thresh          ....  1.000e-10 Eh
 Primitive CutOff       TCut            ....  1.000e-11 Eh

Convergence Tolerance:
 Convergence Check Mode ConvCheckMode   .... Total+1el-Energy
 Convergence forced     ConvForced      .... 0
 Energy Change          TolE            ....  1.000e-06 Eh
 1-El. energy change                    ....  1.000e-03 Eh
 Orbital Gradient       TolG            ....  5.000e-05
 Orbital Rotation angle TolX            ....  5.000e-05
 DIIS Error             TolErr          ....  1.000e-06

------------------------------
INITIAL GUESS: MODEL POTENTIAL
------------------------------
Loading Hartree-Fock densities                     ... done
Calculating cut-offs                               ... done
Initializing the effective Hamiltonian             ... done
Setting up the integral package (SHARK)            ... done
Starting the Coulomb interaction                   ... done (   0.7 sec)
Making the grid                                    ... done (   0.7 sec)
Mapping shells                                     ... done
Starting the XC term evaluation                    ... done (   0.1 sec)
  promolecular density results
     # of electrons  =    313.989583091
     EX              =   -260.304245228
     EC              =    -10.648807552
     EX+EC           =   -270.953052781
Transforming the Hamiltonian                       ... done (   0.3 sec)
Diagonalizing the Hamiltonian                      ... done (   0.6 sec)
Back transforming the eigenvectors                 ... [c01b01n06:63558] 54 more processes have sent help message help-mpi-btl-openib.txt / error in device init
[c01b01n06:63558] Set MCA parameter "orte_base_help_aggregate" to 0 to see all help / error messages
[c01b01n06:63558] 4 more processes have sent help message help-mpi-btl-openib.txt / no active ports found
done (   0.2 sec)
Now organizing SCF variables                       ... done
                      ------------------
                      INITIAL GUESS DONE (   3.5 sec)
                      ------------------
             **** ENERGY FILE WAS UPDATED (nmr-conf-11.en.tmp) ****
Finished Guess after   6.8 sec
Maximum memory used throughout the entire GUESS-calculation: 293.6 MB
--------------------------------------------------------------------------
WARNING: There was an error initializing an OpenFabrics device.

  Local host:   c01b01n06
  Local device: mlx5_0
--------------------------------------------------------------------------
--------------------------------------------------------------------------
WARNING: There is at least one non-excluded one OpenFabrics device found,
but there are no active ports detected (or Open MPI was unable to use
them).  This is most certainly not what you wanted.  Check your
cables, subnet manager configuration, etc.  The openib BTL will be
ignored for this job.

  Local host: c01b01n06
--------------------------------------------------------------------------


           ************************************************************
           *        Program running with 60 parallel MPI-processes    *
           *              working on a common directory               *
           ************************************************************

-------------------------------------------------------------------------------------------
                                      ORCA LEAN-SCF
                              memory conserving SCF solver
-------------------------------------------------------------------------------------------

--------------------
CPCM SOLVATION MODEL
--------------------
CPCM parameters:
  Epsilon                                         ...      33.4280
  Refrac                                          ...       1.3288
  Rsolv                                           ...       1.3000
  Surface type                                    ... GAUSSIAN VDW
  Discretization scheme                           ... Constant charge density
    Threshold for H atoms                         ...       5.0000 (charges/Ang^2)
    Threshold for non-H atoms                     ...       5.0000 (charges/Ang^2)
  Epsilon function type                           ...         CPCM
Solvent:                                          ... METHANOL
Radii:
  Scheme                                          ... Element-dependent radii
  Radius for C  used is    3.8550 Bohr (=   2.0400 Ang.)
  Radius for O  used is    3.4469 Bohr (=   1.8240 Ang.)
  Radius for H  used is    2.4944 Bohr (=   1.3200 Ang.)
Calculating surface                               ...        done! (  0.0s)
Cavity surface points                             ...         6191
Cavity Volume                                     ...    4527.5910
Cavity Surface-area                               ...    2047.8731
Calculating surface distance matrix               ...        done! (  0.2s)
Performing Cholesky decomposition & store         ...        done! (  0.6s)
Overall time for CPCM initialization              ...                 0.9s

----------------------------------------D-I-I-S--------------------------------------------
Iteration    Energy (Eh)           Delta-E    RMSDP     MaxDP     DIISErr   Damp  Time(sec)
-------------------------------------------------------------------------------------------
               ***  Starting incremental Fock matrix formation  ***
[c01b01n06:64104] 50 more processes have sent help message help-mpi-btl-openib.txt / error in device init
[c01b01n06:64104] Set MCA parameter "orte_base_help_aggregate" to 0 to see all help / error messages
[c01b01n06:64104] 8 more processes have sent help message help-mpi-btl-openib.txt / no active ports found
    1    -2033.0339338765033972     0.00e+00  8.14e-03  2.87e-01  2.40e-01  0.700  16.7
    2    -2033.4355636906075233    -4.02e-01  6.68e-03  2.29e-01  8.45e-02  0.700  10.1
                               ***Turning on AO-DIIS***
    3    -2033.5862613495573896    -1.51e-01  2.86e-03  8.17e-02  2.43e-02  0.700   7.5
    4    -2033.6772138021642604    -9.10e-02  4.88e-03  9.10e-02  1.14e-02  0.000   7.5
    5    -2033.8783658586307865    -2.01e-01  1.27e-03  3.33e-02  4.58e-03  0.000   7.3
                              *** Initializing SOSCF ***
---------------------------------------S-O-S-C-F--------------------------------------
Iteration    Energy (Eh)           Delta-E    RMSDP     MaxDP     MaxGrad    Time(sec)
--------------------------------------------------------------------------------------
    6    -2033.8797060492397577    -1.34e-03  3.97e-04  8.41e-03  1.29e-03     7.6
               *** Restarting incremental Fock matrix formation ***
    7    -2033.8798093587338371    -1.03e-04  3.20e-04  6.05e-03  1.43e-04     6.7
    8    -2033.8797856585815680     2.37e-05  7.62e-05  2.08e-03  6.52e-04     5.8
    9    -2033.8798247980594169    -3.91e-05  7.41e-05  1.60e-03  1.14e-04     5.6
   10    -2033.8798243822629956     4.16e-07  2.17e-05  7.28e-04  1.25e-04     5.8
                 **** Energy Check signals convergence ****

               *****************************************************
               *                     SUCCESS                       *
               *           SCF CONVERGED AFTER  10 CYCLES          *
               *****************************************************

             **** ENERGY FILE WAS UPDATED (nmr-conf-11.en.tmp) ****

----------------
TOTAL SCF ENERGY
----------------

Total Energy       :      -2033.87982447261584 Eh          -55344.68369 eV

Components:
Nuclear Repulsion  :       5755.60541625007500 Eh          156617.98568 eV
Electronic Energy  :      -7789.43723021923870 Eh         -211961.36294 eV
One Electron Energy:     -14237.40285565633349 Eh         -387419.42773 eV
Two Electron Energy:       6447.96562543709479 Eh          175458.06478 eV
CPCM Dielectric    :         -0.04801050345253 Eh              -1.30643 eV

Virial components:
Potential Energy   :      -4061.12623205166801 Eh         -110508.86294 eV
Kinetic Energy     :       2027.24640757905195 Eh           55164.17924 eV
Virial Ratio       :          2.00327213153209

DFT components:
N(Alpha)           :      156.999918310500 electrons
N(Beta)            :      156.999918310500 electrons
N(Total)           :      313.999836621001 electrons
E(X)               :     -268.096019069204 Eh       
E(C)               :      -10.608271255834 Eh       
E(XC)              :     -278.704290325038 Eh       

CPCM Solvation Model Properties:
Surface-charge          :         -0.04253424020516
Corrected charge        :         -0.00000000000000
Outlying charge corr.   :          0.00007882857820 Eh               0.00215 eV
Free-energy (cav+disp)  :  This term is not implemented in the current solvation scheme

---------------
SCF CONVERGENCE
---------------

  Last Energy change         ...   -4.1580e-07  Tolerance :   1.0000e-06
  Last MAX-Density change    ...    7.2769e-04  Tolerance :   1.0000e-05
  Last RMS-Density change    ...    2.1660e-05  Tolerance :   1.0000e-06
  Last DIIS Error            ...    1.2882e-03  Tolerance :   1.0000e-06
  Last Orbital Gradient      ...    1.2507e-04  Tolerance :   5.0000e-05
  Last Orbital Rotation      ...    2.2489e-04  Tolerance :   5.0000e-05


----------------
ORBITAL ENERGIES
----------------

  NO   OCC          E(Eh)            E(eV) 
   0   2.0000     -18.921319      -514.8753 
   1   2.0000     -18.920015      -514.8398 
   2   2.0000     -18.919791      -514.8337 
   3   2.0000     -18.918903      -514.8095 
   4   2.0000     -18.913398      -514.6597 
   5   2.0000     -18.910390      -514.5779 
   6   2.0000     -18.904873      -514.4277 
   7   2.0000     -18.881097      -513.7808 
   8   2.0000     -18.881025      -513.7788 
   9   2.0000     -18.877370      -513.6794 
  10   2.0000     -18.864917      -513.3405 
  11   2.0000     -10.047748      -273.4131 
  12   2.0000     -10.046051      -273.3669 
  13   2.0000     -10.046048      -273.3669 
  14   2.0000     -10.045387      -273.3489 
  15   2.0000     -10.045285      -273.3461 
  16   2.0000     -10.045223      -273.3444 
  17   2.0000     -10.042423      -273.2682 
  18   2.0000     -10.041108      -273.2324 
  19   2.0000     -10.037232      -273.1270 
  20   2.0000     -10.036085      -273.0958 
  21   2.0000     -10.035209      -273.0719 
  22   2.0000     -10.034427      -273.0506 
  23   2.0000     -10.032829      -273.0072 
  24   2.0000     -10.030969      -272.9565 
  25   2.0000     -10.025091      -272.7966 
  26   2.0000     -10.022711      -272.7318 
  27   2.0000      -9.993767      -271.9442 
  28   2.0000      -9.992032      -271.8970 
  29   2.0000      -9.988558      -271.8025 
  30   2.0000      -9.987672      -271.7784 
  31   2.0000      -9.987557      -271.7752 
  32   2.0000      -9.987255      -271.7670 
  33   2.0000      -9.986525      -271.7472 
  34   2.0000      -9.984803      -271.7003 
  35   2.0000      -9.984440      -271.6904 
  36   2.0000      -9.984162      -271.6829 
  37   2.0000      -9.983386      -271.6618 
  38   2.0000      -9.981130      -271.6003 
  39   2.0000      -9.979815      -271.5646 
  40   2.0000      -9.978397      -271.5260 
  41   2.0000      -9.976452      -271.4731 
  42   2.0000      -1.016128       -27.6503 
  43   2.0000      -1.012846       -27.5610 
  44   2.0000      -1.012152       -27.5420 
  45   2.0000      -1.001391       -27.2492 
  46   2.0000      -0.990408       -26.9504 
  47   2.0000      -0.985041       -26.8043 
  48   2.0000      -0.984230       -26.7823 
  49   2.0000      -0.955582       -26.0027 
  50   2.0000      -0.954378       -25.9699 
  51   2.0000      -0.950980       -25.8775 
  52   2.0000      -0.935622       -25.4596 
  53   2.0000      -0.799456       -21.7543 
  54   2.0000      -0.797800       -21.7092 
  55   2.0000      -0.795794       -21.6547 
  56   2.0000      -0.760650       -20.6983 
  57   2.0000      -0.735167       -20.0049 
  58   2.0000      -0.720282       -19.5999 
  59   2.0000      -0.704518       -19.1709 
  60   2.0000      -0.701083       -19.0774 
  61   2.0000      -0.700145       -19.0519 
  62   2.0000      -0.697357       -18.9760 
  63   2.0000      -0.687871       -18.7179 
  64   2.0000      -0.672232       -18.2923 
  65   2.0000      -0.653036       -17.7700 
  66   2.0000      -0.650078       -17.6895 
  67   2.0000      -0.649623       -17.6771 
  68   2.0000      -0.640834       -17.4380 
  69   2.0000      -0.622855       -16.9487 
  70   2.0000      -0.617412       -16.8006 
  71   2.0000      -0.612060       -16.6550 
  72   2.0000      -0.583413       -15.8755 
  73   2.0000      -0.569455       -15.4956 
  74   2.0000      -0.562435       -15.3046 
  75   2.0000      -0.559471       -15.2240 
  76   2.0000      -0.549081       -14.9413 
  77   2.0000      -0.546458       -14.8699 
  78   2.0000      -0.541582       -14.7372 
  79   2.0000      -0.536936       -14.6108 
  80   2.0000      -0.514625       -14.0037 
  81   2.0000      -0.512307       -13.9406 
  82   2.0000      -0.506740       -13.7891 
  83   2.0000      -0.500324       -13.6145 
  84   2.0000      -0.484163       -13.1748 
  85   2.0000      -0.480110       -13.0644 
  86   2.0000      -0.474720       -12.9178 
  87   2.0000      -0.469770       -12.7831 
  88   2.0000      -0.463671       -12.6171 
  89   2.0000      -0.458408       -12.4739 
  90   2.0000      -0.453511       -12.3406 
  91   2.0000      -0.448402       -12.2016 
  92   2.0000      -0.446764       -12.1571 
  93   2.0000      -0.441676       -12.0186 
  94   2.0000      -0.440163       -11.9774 
  95   2.0000      -0.433442       -11.7946 
  96   2.0000      -0.429094       -11.6763 
  97   2.0000      -0.427076       -11.6213 
  98   2.0000      -0.425099       -11.5675 
  99   2.0000      -0.421176       -11.4608 
 100   2.0000      -0.419669       -11.4198 
 101   2.0000      -0.416519       -11.3340 
 102   2.0000      -0.414349       -11.2750 
 103   2.0000      -0.403547       -10.9811 
 104   2.0000      -0.403513       -10.9801 
 105   2.0000      -0.402039       -10.9400 
 106   2.0000      -0.399592       -10.8735 
 107   2.0000      -0.393110       -10.6971 
 108   2.0000      -0.388574       -10.5736 
 109   2.0000      -0.387094       -10.5334 
 110   2.0000      -0.384947       -10.4749 
 111   2.0000      -0.382769       -10.4157 
 112   2.0000      -0.379833       -10.3358 
 113   2.0000      -0.377304       -10.2670 
 114   2.0000      -0.374059       -10.1787 
 115   2.0000      -0.372817       -10.1449 
 116   2.0000      -0.371242       -10.1020 
 117   2.0000      -0.368226       -10.0199 
[...]
 
 sDSO            43.903           59.646           36.983  iso=      46.844
 sPSO           -19.600          -32.520           -5.551  iso=     -19.224
        ---------------  ---------------  ---------------
 Total           24.304           27.126           31.432  iso=      27.621

 Orientation: 
  X           0.9790565    0.1831800    0.0888453
  Y          -0.1771389    0.5513620    0.8152433
  Z           0.1003503   -0.8139072    0.5722629

 --------------
 Nucleus  73H :
 --------------

Diamagnetic contribution to the shielding tensor (ppm) : 
            10.822         33.299       -12.451
           -13.157         43.791        -4.866
             9.014        -35.921        40.070

Paramagnetic contribution to the shielding tensor (ppm): 
            16.225        -32.840         8.765
            12.739        -18.357         2.582
           -14.149         34.625        -9.085

Total shielding tensor (ppm): 
            27.048          0.459        -3.686
            -0.418         25.434        -2.284
            -5.135         -1.295        30.985


 Diagonalized sT*s matrix:
 
 sDSO            22.612           31.060           41.012  iso=      31.561
 sPSO             1.002           -5.319           -6.900  iso=      -3.739
        ---------------  ---------------  ---------------
 Total           23.614           25.740           34.111  iso=      27.822

 Orientation: 
  X           0.6641453    0.5264367   -0.5308252
  Y           0.5253042   -0.8338227   -0.1696916
  Z           0.5319460    0.1661448    0.8303188

 --------------
 Nucleus  74H :
 --------------

Diamagnetic contribution to the shielding tensor (ppm) : 
             1.131        -22.619         8.557
           -20.765         12.730        -7.601
            31.379        -35.677        19.714

Paramagnetic contribution to the shielding tensor (ppm): 
            23.507         20.830        -7.333
            19.402         12.314         6.673
           -28.711         33.019        12.414

Total shielding tensor (ppm): 
            24.639         -1.789         1.223
            -1.362         25.043        -0.928
             2.668         -2.658        32.128


 Diagonalized sT*s matrix:
 
 sDSO           -15.575            7.335           41.815  iso=      11.192
 sPSO            38.816           18.073           -8.654  iso=      16.078
        ---------------  ---------------  ---------------
 Total           23.241           25.408           33.161  iso=      27.270

 Orientation: 
  X           0.7744719   -0.5718360    0.2705492
  Y           0.6312119    0.7269265   -0.2704613
  Z          -0.0420098    0.3802385    0.9239339

 --------------
 Nucleus  75H :
 --------------

Diamagnetic contribution to the shielding tensor (ppm) : 
            53.753         -9.744        17.484
            -3.510         30.548         4.599
           -26.978        -14.191        51.129

Paramagnetic contribution to the shielding tensor (ppm): 
           -17.375          3.534        -9.250
            -2.058         -5.712        -7.512
            35.362         11.903       -30.506

Total shielding tensor (ppm): 
            36.378         -6.210         8.235
            -5.568         24.836        -2.913
             8.384         -2.288        20.624


 Diagonalized sT*s matrix:
 
 sDSO            54.850           27.830           52.750  iso=      45.143
 sPSO           -37.799           -5.363          -10.430  iso=     -17.864
        ---------------  ---------------  ---------------
 Total           17.051           22.466           42.321  iso=      27.279

 Orientation: 
  X          -0.3897957   -0.3281191    0.8604633
  Y           0.0207757   -0.9372662   -0.3479948
  Z           0.9206670   -0.1177701    0.3721592

 --------------
 Nucleus  76H :
 --------------

Diamagnetic contribution to the shielding tensor (ppm) : 
            69.938        -13.347        -1.490
            10.171         37.947        -2.966
            50.718        -12.457        72.442

Paramagnetic contribution to the shielding tensor (ppm): 
           -35.617          1.553         7.329
           -21.848        -13.022         0.380
           -44.124          8.798       -49.006

Total shielding tensor (ppm): 
            34.321        -11.794         5.839
           -11.678         24.925        -2.586
             6.595         -3.659        23.436


 Diagonalized sT*s matrix:
 
 sDSO            45.709           57.740           76.878  iso=      60.109
 sPSO           -28.897          -36.392          -32.356  iso=     -32.548
        ---------------  ---------------  ---------------
 Total           16.812           21.347           44.522  iso=      27.561

 Orientation: 
  X           0.5910803   -0.1427004    0.7938896
  Y           0.7862033    0.3219267   -0.5274918
  Z          -0.1803009    0.9359486    0.3024761

 --------------
 Nucleus  77H :
 --------------

Diamagnetic contribution to the shielding tensor (ppm) : 
            89.750         17.705        -8.836
            27.325         32.947        -0.040
             8.670        -29.984        64.589

Paramagnetic contribution to the shielding tensor (ppm): 
           -47.090        -15.986        10.978
           -26.549        -14.572         5.582
            -5.540         35.287       -43.808

Total shielding tensor (ppm): 
            42.660          1.719         2.142
             0.776         18.375         5.541
             3.130          5.303        20.781


 Diagonalized sT*s matrix:
 
 sDSO            60.509           34.336           92.442  iso=      62.429
 sPSO           -46.497           -9.650          -49.323  iso=     -35.157
        ---------------  ---------------  ---------------
 Total           14.012           24.685           43.119  iso=      27.272

 Orientation: 
  X          -0.0120764   -0.1541537   -0.9879731
  Y          -0.7784864    0.6215377   -0.0874629
  Z           0.6275452    0.7680674   -0.1275125

 --------------
 Nucleus  78H :
 --------------

Diamagnetic contribution to the shielding tensor (ppm) : 
            42.758        -11.877       -18.082
             3.303         42.934       -15.238
            32.889        -16.344        55.374

Paramagnetic contribution to the shielding tensor (ppm): 
           -22.267         12.542        14.569
            -3.845         -7.573        14.525
           -37.418         13.175       -34.669

Total shielding tensor (ppm): 
            20.491          0.665        -3.514
            -0.542         35.361        -0.713
            -4.529         -3.169        20.705


 Diagonalized sT*s matrix:
 
 sDSO            54.823           39.783           46.459  iso=      47.022
 sPSO           -38.337          -15.343          -10.829  iso=     -21.503
        ---------------  ---------------  ---------------
 Total           16.486           24.439           35.631  iso=      25.519

 Orientation: 
  X           0.6973570    0.7159167    0.0340075
  Y           0.0610755   -0.1066343    0.9924207
  Z           0.7141169   -0.6899946   -0.1180871

 --------------
 Nucleus  79H :
 --------------

Diamagnetic contribution to the shielding tensor (ppm) : 
            20.246        -50.073       -19.125
           -24.985          8.730       -18.254
           -39.723         21.122        -0.633

Paramagnetic contribution to the shielding tensor (ppm): 
             6.436         50.103        18.126
            25.964         19.243        21.717
            39.020        -20.169        30.304

Total shielding tensor (ppm): 
            26.682          0.030        -0.999
             0.979         27.973         3.462
            -0.703          0.953        29.671


 Diagonalized sT*s matrix:
 
 sDSO            23.673           -6.439           11.110  iso=       9.448
 sPSO             1.980           33.888           20.114  iso=      18.661
        ---------------  ---------------  ---------------
 Total           25.653           27.448           31.224  iso=      28.109

 Orientation: 
  X          -0.6675283    0.7396619   -0.0854767
  Y           0.5969565    0.6002529    0.5322963
  Z          -0.4450270   -0.3042970    0.8422318

 --------------
 Nucleus  80H :
 --------------

Diamagnetic contribution to the shielding tensor (ppm) : 
            33.947        -65.423       -14.797
           -20.285        -20.917       -25.698
             4.474        -20.096       -46.866

Paramagnetic contribution to the shielding tensor (ppm): 
            -1.659         61.759        15.667
            16.237         48.048        25.256
            -4.196         17.614        72.005

Total shielding tensor (ppm): 
            32.288         -3.664         0.871
            -4.048         27.130        -0.442
             0.278         -2.483        25.138


 Diagonalized sT*s matrix:
 
 sDSO           -68.054          -23.183           57.400  iso=     -11.279
 sPSO            92.070           49.221          -22.898  iso=      39.465
        ---------------  ---------------  ---------------
 Total           24.016           26.038           34.502  iso=      28.185

 Orientation: 
  X           0.2464200    0.4294989   -0.8687968
  Y           0.6360932    0.6046643    0.4793397
  Z           0.7312063   -0.6707546   -0.1242000

 --------------
 Nucleus  81H :
 --------------

Diamagnetic contribution to the shielding tensor (ppm) : 
             9.960        -48.353       -16.102
           -24.647          8.254       -22.797
             1.173        -10.353        -7.475

Paramagnetic contribution to the shielding tensor (ppm): 
            17.772         46.940        15.537
            26.571         22.162        21.143
            -3.102          8.944        31.287

Total shielding tensor (ppm): 
            27.733         -1.413        -0.565
             1.924         30.417        -1.654
            -1.929         -1.409        23.811


 Diagonalized sT*s matrix:
 
 sDSO           -18.576           27.792            1.523  iso=       3.580
 sPSO            41.751            0.150           29.320  iso=      23.740
        ---------------  ---------------  ---------------
 Total           23.175           27.942           30.843  iso=      27.320

 Orientation: 
  X           0.2404768    0.9488948    0.2043762
  Y           0.1882709   -0.2521542    0.9491956
  Z           0.9522211   -0.1897815   -0.2392865



--------------------------------
CHEMICAL SHIELDING SUMMARY (ppm)
--------------------------------


  Nucleus  Element    Isotropic     Anisotropy
  -------  -------  ------------   ------------
      0       C           25.512        122.049 
      1       C           45.511         91.812 
      2       C           24.576        120.894 
      3       C           76.357        130.941 
      4       C           38.750        195.474 
      5       C           75.936        130.091 
      6       C          147.924         26.400 
      7       C          135.713         25.751 
      8       C          137.411         32.592 
      9       C          141.833         43.564 
     10       C           46.043        181.641 
     11       C           70.486        156.522 
     12       C           29.537        119.773 
     13       C           32.255        122.194 
     14       C           66.736        144.675 
     15       C           56.646        148.138 
     16       C          112.039         68.359 
     17       C          111.997         70.937 
     23       C           93.532         27.158 
     24       C          103.338         41.427 
     25       C           41.521        171.187 
     26       C          110.911         57.353 
     28       C           73.878        155.393 
     29       C           31.464        119.023 
     30       C           34.364        118.126 
     31       C           67.155        147.672 
     32       C           64.720        175.530 
     33       C          123.830         78.367 
     34       C          122.749         74.449 
     35       C          124.387         77.843 
     41       C          123.848         75.447 
     42       H           26.313          8.158 
     43       H           25.759          9.672 
     44       H           29.049          5.723 
     45       H           29.875          6.766 
     46       H           30.644          3.890 
     47       H           28.929          2.799 
     48       H           28.597          8.470 
     49       H           29.122          4.830 
     50       H           24.550         10.153 
     51       H           24.696          2.429 
     52       H           24.639          5.889 
     53       H           27.762          7.591 
     54       H           28.137          3.974 
     55       H           27.650          3.714 
     56       H           28.268          5.348 
     57       H           25.333         12.424 
     58       H           26.204          4.090 
     59       H           27.074          5.203 
     60       H           27.875          5.241 
     61       H           27.453          6.236 
     62       H           29.456         13.600 
     63       H           25.117          9.899 
     64       H           24.914          5.235 
     65       H           24.763          7.104 
     66       H           27.897          6.448 
     67       H           27.453          9.566 
     68       H           27.935          9.986 
     69       H           28.392         11.059 
     70       H           28.194          7.612 
     71       H           27.499          7.141 
     72       H           27.621          5.717 
     73       H           27.822          9.434 
     74       H           27.270          8.837 
     75       H           27.279         22.562 
     76       H           27.561         25.443 
     77       H           27.272         23.771 
     78       H           25.519         15.168 
     79       H           28.109          4.673 
     80       H           28.185          9.475 
     81       H           27.320          5.284 


NMR shielding tensor and spin rotation calculation done in   2.8 sec 

Maximum memory used throughout the entire PROP-calculation: 370.2 MB
--------------------------------------------------------------------------
WARNING: There was an error initializing an OpenFabrics device.

  Local host:   c01b01n06
  Local device: mlx5_0
--------------------------------------------------------------------------
--------------------------------------------------------------------------
WARNING: There is at least one non-excluded one OpenFabrics device found,
but there are no active ports detected (or Open MPI was unable to use
them).  This is most certainly not what you wanted.  Check your
cables, subnet manager configuration, etc.  The openib BTL will be
ignored for this job.

  Local host: c01b01n06
--------------------------------------------------------------------------
[c01b01n06:65897] 54 more processes have sent help message help-mpi-btl-openib.txt / error in device init
[c01b01n06:65897] Set MCA parameter "orte_base_help_aggregate" to 0 to see all help / error messages
[c01b01n06:65897] 4 more processes have sent help message help-mpi-btl-openib.txt / no active ports found

--------------------------------
SUGGESTED CITATIONS FOR THIS RUN
--------------------------------

Below you find a list of papers that are relevant to this ORCA run
We neither can nor want to force you to cite these papers, but we appreciate if you do
You receive ORCA, which is the product of decades of hard work by many enthusiastic individuals, for free
The only thing we kindly ask in return is that you cite our papers,
We deeply appreciate it, if you show your appreciation for ORCA by not just citing the generic ORCA reference.

Please note that relegating all ORCA citations to the supporting information does *not* help us.
SI sections are not indexed - citations you put there will not count into any citation statistics
But we need these citations in order to attract the funding resources that allow us to do what we are doing

Therefore, if you are a happy ORCA user, please consider citing a few of the papers listed below in the main body of your paper

In addition to the list printed below, the program has created the file nmr-conf-11.bibtex that contains the list in bibtex format
You can import this file easily into all common literature databanks and citation aid programs


List of essential papers. We consider these as the minimum necessary citations

  1. Neese, F.
     Software update: the ORCA program system, version 6.0
     WIRES Comput. Molec. Sci. 2025 15(1), e70019
     doi.org/10.1002/wcms.7019

List of papers to cite with high priority. The work reported in these papers was absolutely
necessary for this run to complete.
Our perspective: the developers of density functionals and basis sets usually get cited in chemistry papers
Good! But without the algorithms to do something with them, the functionals or basis sets would not do anything.
Hence, in our opinion, the algorithm design and method developments papers are equally worthy of getting cited

  1. Neese, F.
     An improvement of the resolution of the identity approximation for the formation of the Coulomb matrix
     J. Comp. Chem. 2003 24(14), 1740-1747
     doi.org/10.1002/jcc.10318
  2. Stoychev, G.L.; Auer, A.A.; Neese, F.
     Automatic Generation of Auxiliary Basis Sets
     J. Theo. Comp. Chem. 2017 13 , 554-562
     doi.org/10.1021/acs.jctc.6b01041
  3. Stoychev, G.L.; Auer, A.A.; Izsak, R.; Neese, F.
     Self-Consistent Field Calculation of Nuclear Magnetic Resonance Chemical Shielding Constants Using Gauge-Including Atomic Orbitals and Approximate Two-Electron Integrals
     J. Chem. Theory Comput. 2018 14(2), 619-637
     doi.org/10.1021/acs.jctc.7b01006
  4. Garcia-Rates, M.; Neese, F.
     Effect of the Solute Cavity on the Solvation Energy and its Derivatives within the Framework of the Gaussian Charge Scheme
     J. Comput. Chem. 2020 41 , 922-939
     doi.org/10.1002/jcc.26139
  5. Neese, F.
     The SHARK Integral Generation and Digestion System
     J. Comp. Chem. 2022 44(3), 381
     doi.org/10.1002/jcc.26942

List of suggested additional citations. These are papers that are important in the 'surrounding' of 
of this run, or papers that preceded the highly important papers. If you like your results we are grateful for a citation.

  1. Neese, F.
     The ORCA program system
     WIRES Comput. Molec. Sci. 2012 2(1), 73-78
     doi.org/10.1002/wcms.81
  2. Neese, F.
     Software update: the ORCA program system, version 4.0
     WIRES Comput. Molec. Sci. 2018 8(1), 1-6
     doi.org/10.1002/wcms.1327
  3. Neese, F.; Wennmohs, F.; Becker, U.; Riplinger, C.
     The ORCA quantum chemistry program package
     J. Chem. Phys. 2020 152(22), 224108
     doi.org/10.1063/5.0004608
  4. Neese, F.
     Software update: The ORCA program system—Version 5.0
     WIRES Comput. Molec. Sci. 2022 12(1), e1606
     doi.org/10.1002/wcms.1606

List of optional additional citations

  1. Neese, F.
     Approximate second-order SCF convergence for spin unrestricted wavefunctions
     Chem. Phys. Lett. 2000 325(1-3), 93-98
     doi.org/10.1016/s0009-2614(00)00662-x

Timings for individual modules:

Sum of individual times          ...      290.800 sec (=   4.847 min)
Startup calculation              ...      113.861 sec (=   1.898 min)  39.2 %
SCF iterations                   ...      103.451 sec (=   1.724 min)  35.6 %
Property integrals               ...       51.179 sec (=   0.853 min)  17.6 %
SCF Response                     ...       13.165 sec (=   0.219 min)   4.5 %
Property calculations            ...        9.144 sec (=   0.152 min)   3.1 %
                             ****ORCA TERMINATED NORMALLY****
TOTAL RUN TIME: 0 days 0 hours 5 minutes 5 seconds 863 msec
