
                                 *****************
                                 * O   R   C   A *
                                 *****************

                                            #,                                       
                                            ###                                      
                                            ####                                     
                                            #####                                    
                                            ######                                   
                                           ########,                                 
                                     ,,################,,,,,                         
                               ,,#################################,,                 
                          ,,##########################################,,             
                       ,#########################################, ''#####,          
                    ,#############################################,,   '####,        
                  ,##################################################,,,,####,       
                ,###########''''           ''''###############################       
              ,#####''   ,,,,##########,,,,          '''####'''          '####       
            ,##' ,,,,###########################,,,                        '##       
           ' ,,###''''                  '''############,,,                           
         ,,##''                                '''############,,,,        ,,,,,,###''
      ,#''                                            '''#######################'''  
     '                                                          ''''####''''         
             ,#######,   #######,   ,#######,      ##                                
            ,#'     '#,  ##    ##  ,#'     '#,    #''#        ,####,    ,#,          
            ##       ##  ##   ,#'  ##            #'  '#       #'       ,# #          
            ##       ##  #######   ##           ,######,      #####,      #          
            '#,     ,#'  ##    ##  '#,     ,#' ,#      #,     #,   #      #          
             '#######'   ##     ##  '#######'  #'      '#     '####' #    #          



                #########################################################
                #                        -***-                          #
                #          Department of theory and spectroscopy        #
                #                                                       #
                #                      Frank Neese                      #
                #                                                       #
                #     Directorship, Architecture, Infrastructure        #
                #                    SHARK, DRIVERS                     #
                #        Core code/Algorithms in most modules           #
                #                                                       #
                #        Max Planck Institute fuer Kohlenforschung      #
                #                Kaiser Wilhelm Platz 1                 #
                #                 D-45470 Muelheim/Ruhr                 #
                #                      Germany                          #
                #                                                       #
                #                  All rights reserved                  #
                #                        -***-                          #
                #########################################################


                         Program Version 6.1.0-f.0  -   RELEASE   -


 With contributions from (in alphabetic order):
[Max-Planck-Institut fuer Kohlenforschung]                               
  Daniel Aravena         : Magnetic Suceptibility                        
  Michael Atanasov       : Ab Initio Ligand Field Theory (pilot matlab implementation)
  Alexander A. Auer      : GIAO ZORA, VPT2 properties, NMR spectrum      
  Ute Becker             : All parallelization in ORCA, NUMFREQ, NUMCALC 
  Giovanni Bistoni       : ED, misc. LED, open-shell LED, HFLD           
  Dmytro Bykov           : pre 5.0 version of the SCF Hessian            
  Marcos Casanova-Páez   : Triplet and SCS-CIS(D). UHF-(DLPNO)-IP/EA/STEOM-CCSD. UHF-CVS-IP/STEOM-CCSD   
  Vijay G. Chilkuri      : MRCI spin determinant printing, contributions to CSF-ICE 
  Pauline Colinet        : FMM embedding                                 
  Dipayan Datta          : RHF DLPNO-CCSD density                        
  Achintya Kumar Dutta   : EOM-CC, STEOM-CC                              
  Nicolas Foglia         : Exact transition moments, OPA infrastructure, MCD improvements    
  Dmitry Ganyushin       : Spin-Orbit,Spin-Spin,Magnetic field MRCI      
  Miquel Garcia-Rates    : C-PCM and meta-GGA Hessian, CCSD/C-PCM, Gaussian charge scheme 
  Tiago L. C. Gouveia    : GS-ROHF, GS-ROCIS                             
  Yang Guo               : DLPNO-NEVPT2, F12-NEVPT2, CIM, IAO-localization        
  Andreas Hansen         : Spin unrestricted coupled pair/coupled cluster methods 
  Ingolf Harden          : AUTO-CI MPn and infrastructure                
  Benjamin Helmich-Paris : MC-RPA, TRAH-(SCF,CASSCF), AVAS, COSX integrals, SCF dyn. polar., MC-PDFT, srDFT 
  Lee Huntington         : MR-EOM, pCC                                   
  Robert Izsak           : Overlap fitted RIJCOSX, COSX-SCS-MP3, EOM     
  Riya Kayal             : Wick's Theorem for AUTO-CI, AUTO-CI UHF-CCSDT 
  Emily Kempfer          : AUTO-CI RHF CISDT and CCSDT, approximate NEVPT4
  Christian Kollmar      : KDIIS, OOCD, Brueckner-CCSD(T), CCSD density, CASPT2, CASPT2-K, improved NEVPT2 
  Axel Koslowski         : Symmetry handling                             
  Simone Kossmann        : meta-GGA functionals, TD-DFT gradient, OOMP2, (MP2 Hessian; deprecated post 5.0) 
  Lucas Lang             : DCDCAS, Hyperfine gauge corrections, ICE-SOC+SSC
  Marvin Lechner         : AUTO-CI (C++ implementation), FIC-MRCC        
  Spencer Leger          : CASSCF response                               
  Dagmar Lenk            : GEPOL surface, SMD, ORCA-2-JSON               
  Dimitrios Liakos       : Extrapolation schemes; Compound Job, Property file
  Dimitrios Manganas     : Further ROCIS development; embedding schemes. LFT, Crystal Embedding 
  Dimitrios Pantazis     : SARC Basis sets                               
  Anastasios Papadopoulos: AUTO-CI, single reference methods and gradients 
  Taras Petrenko         : pre 6.0 DFT Hessian and TD-DFT gradient,  ECA, NRVS 
  Petra Pikulova         : Analytic Raman intensities                    
  Peter Pinski           : DLPNO-MP2, DLPNO-MP2 Gradient                 
  Shashank Vittal Rao    : ES-AILFT, MagRelax                            
  Christoph Reimann      : Effective Core Potentials                     
  Marius Retegan         : Local ZFS, SOC                                
  Christoph Riplinger    : Optimizer, TS searches, QM/MM, DLPNO-CCSD(T), (RO)-DLPNO pert. Triples 
  Michael Roemelt        : Original ROCIS implementation, recursive CI coupling coefficients
  Masaaki Saitow         : Open-shell DLPNO-CCSD energy and density      
  Barbara Sandhoefer     : DKH picture change effects                    
  Yorick L. A. Schmerwitz: GMF and freeze-and-release deltaSCF, NEB S-IDPP initial path                    
  Kantharuban Sivalingam : CASSCF convergence/infrastructure, NEVPT2, NEVPT3, NEVPT4(SD), FIC-MRCI and CEPA variants
  Bernardo de Souza      : ESD, SOC TD-DFT                               
  Georgi L. Stoychev     : AutoAux, RI-MP2 NMR, DLPNO-MP2 response, X2C  
  Van Anh Tran           : RI-MP2 g-tensors                              
  Willem Van den Heuvel  : Paramagnetic NMR                              
  Zikuan Wang            : NOTCH, Electric field optimization            
  Frank Wennmohs         : Technical directorship and infrastructure     
  Hang Xu                : AUTO-CI-Response properties                   
                                                                         
[FACCTs GmbH]                                                            
  Markus Bursch, Nicolas Foglia, Miquel Garcia-Rates, Ingolf Harden, Hagen Neugebauer, Anastasios Papadopoulos, 
  Christoph Riplinger, Bernardo de Souza, Georgi L. Stoychev                                                    
                                                                 
  APM, various basis sets, CI-OPT, improved COSX, DLPNO-Multilevel,           
  DOCKER, DRACO, updates on ESD, Fragmentator, GOAT, IRC, LR-CPCM, L-BFGS, MBIS, meta-GGA TD-DFT gradient, ML-optimized integration grids, 
  MM, NACMEs, nearIR, NEB, NEB-TS, NL-DFT gradient (VV10), 2- and 3-layer-ONIOM, interface openCOSMO-RS, QMMM,   
  Crystal-QMMM, RESP, rigid body optimization, SF, symmetry and pop. for TD-DFT, various functionals, SOLVATOR                                   
                                                                         
[Other institutions]                                                     
  V. Asgeirsson          : NEB                                           
  Christoph Bannwarth    : sTDA-DFT, sTD-DFT, PBEh-3c, B97-3c, D3        
  Giovanni Bistoni       : ETS/NOCV, ADLD/ADEX, COVALED                  
  Martin Brehm           : Molecular dynamics                            
  Ronald Cardenas        : ETS/NOCV                                      
  Martina Colucci        : COVALED                                       
  Sebastian Ehlert       : rSCAN, r2SCAN, r2SCAN-3c, D4, dhf basis sets  
  Marvin Friede          : D4 for Fr, Ra, Ac-Lr                          
  Lars Goerigk           : TD-DFT with DH, B97 family of functionals     
  Stefan Grimme          : VdW corrections, initial TS optimization, DFT functionals, gCP, sTDA/sTD-DF 
  Waldemar Hujo          : DFT-NL                                        
  H. Jonsson             : NEB                                           
  Holger Kruse           : gCP                                           
  Marcel Mueller         : wB97X-3c, vDZP basis set                      
  Hagen Neugebauer       : wr2SCAN, Native XTB                           
  Gianluca Regni         : ADLD/ADEX                                     
  Tobias Risthaus        : pre 6.0 range-separated hybrid DFT and stability analysis
  Lukas Wittmann         : regularized MP2, r2SCAN double-hybrids, wr2SCAN        
                                                                         
We gratefully acknowledge several colleagues who have allowed us to      
interface, adapt or use parts of their codes:                            
  Ed Valeev, F. Pavosevic, A. Kumar             : LibInt (2-el integral package), F12 methods 
  Garnet Chan, S. Sharma, J. Yang, R. Olivares  : DMRG                   
  Ulf Ekstrom                                   : XCFun DFT Library      
  Mihaly Kallay                                 : mrcc  (arbitrary order and MRCC methods)
  Frank Weinhold                                : gennbo (NPA and NBO analysis)           
  Simon Mueller                                 : openCOSMO-RS                            
  Christopher J. Cramer and Donald G. Truhlar   : smd solvation model                     
  S Lehtola, MJT Oliveira, MAL Marques          : LibXC Library                           
  Liviu Ungur et al                             : ANISO software                          


 Your calculation uses the libint2 library for the computation of 2-el integrals
 For citations please refer to: http://libint.valeyev.net

 Your ORCA version has been built with support for libXC version: 7.0.0
 For citations please refer to: https://libxc.gitlab.io

 This ORCA versions uses:
   CBLAS   interface :  Fast vector & matrix operations
   LAPACKE interface :  Fast linear algebra routines
   SCALAPACK package :  Parallel linear algebra routines
   Shared memory     :  Shared parallel matrices
   BLAS/LAPACK       :  OpenBLAS 0.3.29  USE64BITINT DYNAMIC_ARCH NO_AFFINITY Cooperlake SINGLE_THREADED
        Core in use  :  Cooperlake
   Copyright (c) 2011-2014, The OpenBLAS Project


  ***********************************
  * Starting time: Tue Mar  3 21:23:25 2026
  * Host name:     c03b01n02
  * Process ID:    3028273
  * Working dir.:  /lustre1/jiangy/jiangy_liuxy/NMR/B9D7C2-SRSS-NMR/opt_conf
  ***********************************

NOTE: MaxCore=5000 MB was set to SCF,MP2,MDCI,CIPSI,MRCI,RASCI and CIS
      => If you want to overwrite this, your respective input block should be placed after the MaxCore statement


***************************************
The coordinates will be read from file: opt-conf-5.xyz
***************************************



Warning: The global flag for NMR shieldings has been found
         but shieldings for certain elements have also been explicitly requested in the EPRNMR block
         ==>> only the requested shieldings will be calculated

================================================================================

----- Orbital basis set information -----
Your calculation utilizes the basis: pcSseg-2
   F. Jensen, J. Chem. Theory Comput. 11, 132 (2015).

----- AuxJ basis set information -----
Your calculation utilizes the AutoAux generation procedure.
  G. L. Stoychev, A. A. Auer, F. Neese, J. Chem. Theory Comput. 13, 554 (2017)

----- AuxC basis set information -----
Your calculation utilizes the AutoAux generation procedure.
  G. L. Stoychev, A. A. Auer, F. Neese, J. Chem. Theory Comput. 13, 554 (2017)

----- AuxJK basis set information -----
Your calculation utilizes the AutoAux generation procedure.
  G. L. Stoychev, A. A. Auer, F. Neese, J. Chem. Theory Comput. 13, 554 (2017)

----- AuxX basis set information -----
Your calculation utilizes the AutoAux generation procedure.
  G. L. Stoychev, A. A. Auer, F. Neese, J. Chem. Theory Comput. 13, 554 (2017)

================================================================================
                                        WARNINGS
                       Please study these warnings very carefully!
================================================================================


================================================================================
                                       INPUT FILE
================================================================================
NAME = nmr-conf-5.inp
|  1> !TPSS PCSSEG-2 AUTOAUX NMR CPCM(Methanol)
|  2> 
|  3> %pal nprocs 60 end
|  4> %maxcore 5000
|  5> 
|  6> *XYZFILE 0 1 opt-conf-5.xyz
|  7> 
|  8> %EPRNMR
|  9>    NUCLEI = ALL C {SHIFT}
| 10>    NUCLEI = ALL H {SHIFT}
| 11>    TAU DOBSON
| 12> END
| 13> 
| 14> 
| 15>                          ****END OF INPUT****
================================================================================

                       ****************************
                       * Single Point Calculation *
                       ****************************

---------------------------------
CARTESIAN COORDINATES (ANGSTROEM)
---------------------------------
  C     10.608968   -7.901835   -2.122581
  C     11.197503   -9.072316   -2.602547
  C     10.498595  -10.279861   -2.503227
  C      9.238845  -10.306054   -1.912117
  C      8.650634   -9.132360   -1.445458
  C      9.334672   -7.926319   -1.562657
  C      7.293685   -9.200501   -0.792598
  C      7.356982   -9.680024    0.675123
  C      6.050188  -10.308132    1.199592
  C      5.792158  -11.704951    0.607676
  C      6.881447  -12.712257    0.885186
  C      7.292904  -12.965538    2.200134
  C      8.281037  -13.899541    2.465086
  C      8.869902  -14.619921    1.413256
  C      8.477778  -14.367364    0.113205
  C      7.491383  -13.414912   -0.146312
  C      7.847941   -8.549094    1.579356
  C      4.802113   -9.427296    1.091536
  O     11.130237  -11.374691   -3.001628
  O     11.383156   -6.778786   -2.214504
  O     12.426963   -8.981094   -3.210941
  O      9.825263  -15.560657    1.673488
  O      8.766932  -14.212013    3.702421
  C     13.562910   -9.636888   -2.608003
  C     13.929390   -9.012462   -1.248463
  C     12.994558   -9.456640   -0.130818
  C     14.677136   -9.489587   -3.626815
  O     14.352786  -10.126133   -4.860313
  C     12.800010  -10.824557    0.091277
  C     11.921288  -11.262138    1.067759
  C     11.233208  -10.326362    1.853057
  C     11.454422   -8.976987    1.666795
  C     12.333507   -8.543274    0.675761
  C     10.878639   -5.563115   -1.657816
  C     10.484604  -12.639761   -2.867831
  C      8.243640  -13.512631    4.830723
  O     14.044718   -7.602444   -1.351701
  O      8.087768   -8.961589    2.925708
  O      4.282362   -9.259381   -0.233082
  O     11.636752  -12.562989    1.355109
  O     10.347737  -10.753191    2.809588
  C     12.363491  -13.580292    0.665139
  H      8.701931  -11.238053   -1.816904
  H      8.879608   -7.019068   -1.194688
  H      6.665115   -9.884786   -1.361649
  H      6.806832   -8.224018   -0.837310
  H      8.116566  -10.467147    0.720559
  H      6.195570  -10.436169    2.276510
  H      4.845486  -12.076252    1.018155
  H      5.651164  -11.638303   -0.473316
  H      6.834885  -12.425442    3.016383
  H      8.946150  -14.917452   -0.693329
  H      7.196717  -13.224564   -1.171113
  H      8.756269   -8.113006    1.153526
  H      7.102799   -7.752206    1.635728
  H      4.023955   -9.846208    1.739807
  H      5.017293   -8.419923    1.449593
  H      9.973305  -15.590065    2.630787
  H     13.337910  -10.694813   -2.479580
  H     14.934616   -9.373771   -1.008989
  H     15.574775   -9.978850   -3.247422
  H     14.897826   -8.429020   -3.783394
  H     13.517292   -9.748673   -5.165972
  H     13.326277  -11.549533   -0.512464
  H     10.931711   -8.264876    2.292224
  H     12.485451   -7.483907    0.529569
  H     10.671975   -5.678268   -0.591874
  H     11.662863   -4.824562   -1.803521
  H      9.972708   -5.244636   -2.177014
  H      9.541696  -12.660294   -3.419623
  H     11.171587  -13.369351   -3.289245
  H     10.294943  -12.874793   -1.818909
  H      7.172259  -13.696019    4.939997
  H      8.773250  -13.902175    5.696313
  H      8.424025  -12.439042    4.739245
  H     13.210179   -7.254466   -1.713582
  H      8.794756   -9.628120    2.919631
  H      3.908564  -10.099310   -0.524523
  H     10.292989  -11.720626    2.773730
  H     11.989648  -14.523450    1.050439
  H     12.182936  -13.526161   -0.409945
  H     13.434236  -13.486920    0.861125

----------------------------
CARTESIAN COORDINATES (A.U.)
----------------------------
  NO LB      ZA    FRAG     MASS         X           Y           Z
   0 C     6.0000    0    12.011   20.048045  -14.932303   -4.011097
   1 C     6.0000    0    12.011   21.160214  -17.144193   -4.918101
   2 C     6.0000    0    12.011   19.839469  -19.426122   -4.730414
   3 C     6.0000    0    12.011   17.458887  -19.475619   -3.613378
   4 C     6.0000    0    12.011   16.347330  -17.257659   -2.731519
   5 C     6.0000    0    12.011   17.639973  -14.978572   -2.952994
   6 C     6.0000    0    12.011   13.783066  -17.386426   -1.497793
   7 C     6.0000    0    12.011   13.902681  -18.292595    1.275797
   8 C     6.0000    0    12.011   11.433198  -19.479546    2.266899
   9 C     6.0000    0    12.011   10.945593  -22.119151    1.148342
  10 C     6.0000    0    12.011   13.004050  -24.022685    1.672760
  11 C     6.0000    0    12.011   13.781591  -24.501315    4.157650
  12 C     6.0000    0    12.011   15.648892  -26.266325    4.658337
  13 C     6.0000    0    12.011   16.761685  -27.627646    2.670666
  14 C     6.0000    0    12.011   16.020679  -27.150383    0.213926
  15 C     6.0000    0    12.011   14.156662  -25.350510   -0.276489
  16 C     6.0000    0    12.011   14.830459  -16.155446    2.984550
  17 C     6.0000    0    12.011    9.074678  -17.815008    2.062704
  18 O     8.0000    0    15.999   21.033100  -21.495051   -5.672255
  19 O     8.0000    0    15.999   21.511048  -12.810048   -4.184806
  20 O     8.0000    0    15.999   23.483556  -16.971807   -6.067800
  21 O     8.0000    0    15.999   18.567057  -29.405380    3.162434
  22 O     8.0000    0    15.999   16.567101  -26.856813    6.996562
  23 C     6.0000    0    12.011   25.630186  -18.211079   -4.928411
  24 C     6.0000    0    12.011   26.322732  -17.031085   -2.359252
  25 C     6.0000    0    12.011   24.556156  -17.870460   -0.247210
  26 C     6.0000    0    12.011   27.735768  -17.932721   -6.853687
  27 O     8.0000    0    15.999   27.122835  -19.135619   -9.184660
  28 C     6.0000    0    12.011   24.188513  -20.455448    0.172488
  29 C     6.0000    0    12.011   22.527970  -21.282356    2.017772
  30 C     6.0000    0    12.011   21.227687  -19.513996    3.501771
  31 C     6.0000    0    12.011   21.645721  -16.964047    3.149786
  32 C     6.0000    0    12.011   23.306950  -16.144447    1.277004
  33 C     6.0000    0    12.011   20.557648  -10.512763   -3.132818
  34 C     6.0000    0    12.011   19.813031  -23.885686   -5.419416
  35 C     6.0000    0    12.011   15.578223  -25.535172    9.128744
  36 O     8.0000    0    15.999   26.540671  -14.366537   -2.554344
  37 O     8.0000    0    15.999   15.283667  -16.934948    5.528786
  38 O     8.0000    0    15.999    8.092492  -17.497694   -0.440462
  39 O     8.0000    0    15.999   21.990275  -23.740609    2.560785
  40 O     8.0000    0    15.999   19.554389  -20.320587    5.309351
  41 C     6.0000    0    12.011   23.363612  -25.663034    1.256930
  42 H     1.0000    0     1.008   16.444266  -21.236843   -3.433452
  43 H     1.0000    0     1.008   16.780028  -13.264117   -2.257633
  44 H     1.0000    0     1.008   12.595243  -18.679538   -2.573144
  45 H     1.0000    0     1.008   12.863048  -15.541142   -1.582287
  46 H     1.0000    0     1.008   15.338087  -19.780041    1.361658
  47 H     1.0000    0     1.008   11.707930  -19.721501    4.301981
  48 H     1.0000    0     1.008    9.156642  -22.820810    1.924033
  49 H     1.0000    0     1.008   10.679152  -21.993204   -0.894437
  50 H     1.0000    0     1.008   12.916061  -23.480682    5.700139
  51 H     1.0000    0     1.008   16.905774  -28.189898   -1.310201
  52 H     1.0000    0     1.008   13.599824  -24.990804   -2.213083
  53 H     1.0000    0     1.008   16.546950  -15.331359    2.179848
  54 H     1.0000    0     1.008   13.422345  -14.649546    3.091078
  55 H     1.0000    0     1.008    7.604173  -18.606637    3.287758
  56 H     1.0000    0     1.008    9.481310  -15.911349    2.739334
  57 H     1.0000    0     1.008   18.846816  -29.460952    4.971466
  58 H     1.0000    0     1.008   25.204997  -20.210268   -4.685728
  59 H     1.0000    0     1.008   28.222335  -17.713861   -1.906713
  60 H     1.0000    0     1.008   29.432060  -18.857294   -6.136739
  61 H     1.0000    0     1.008   28.152811  -15.928540   -7.149578
  62 H     1.0000    0     1.008   25.543981  -18.422322   -9.762272
  63 H     1.0000    0     1.008   25.183014  -21.825455   -0.968416
  64 H     1.0000    0     1.008   20.657940  -15.618352    4.331675
  65 H     1.0000    0     1.008   23.594083  -14.142534    1.000740
  66 H     1.0000    0     1.008   20.167110  -10.730371   -1.118480
  67 H     1.0000    0     1.008   22.039617   -9.117101   -3.408161
  68 H     1.0000    0     1.008   18.845686   -9.910925   -4.113961
  69 H     1.0000    0     1.008   18.031192  -23.924489   -6.462151
  70 H     1.0000    0     1.008   21.111240  -25.264412   -6.215772
  71 H     1.0000    0     1.008   19.454623  -24.329832   -3.437240
  72 H     1.0000    0     1.008   13.553604  -25.881725    9.335241
  73 H     1.0000    0     1.008   16.579039  -26.271303   10.764471
  74 H     1.0000    0     1.008   15.919101  -23.506383    8.955874
  75 H     1.0000    0     1.008   24.963620  -13.708954   -3.238201
  76 H     1.0000    0     1.008   16.619681  -18.194509    5.517302
  77 H     1.0000    0     1.008    7.386115  -19.084929   -0.991205
  78 H     1.0000    0     1.008   19.450930  -22.148773    5.241590
  79 H     1.0000    0     1.008   22.657151  -27.445342    1.985043
  80 H     1.0000    0     1.008   23.022413  -25.560740   -0.774683
  81 H     1.0000    0     1.008   25.387027  -25.486586    1.627290

--------------------------------
INTERNAL COORDINATES (ANGSTROEM)
--------------------------------
 C      0   0   0     0.000000000000     0.00000000     0.00000000
 C      1   0   0     1.395265757978     0.00000000     0.00000000
 C      2   1   0     1.398750174409   119.27693346     0.00000000
 C      3   2   1     1.391785099141   119.91191714   359.04202699
 C      4   3   2     1.393312518616   120.56479963     1.55760752
 C      5   4   3     1.391465925339   119.62869285   359.48424851
 C      5   4   3     1.507375814419   119.14483812   180.87846615
 C      7   5   4     1.545365083540   112.86145672    79.27341428
 C      8   7   5     1.541848486624   114.50402714   203.72813024
 C      9   8   7     1.538845641656   112.39869443    72.81423072
 C     10   9   8     1.509380172549   114.45892279    58.87477245
 C     11  10   9     1.400904624909   120.34439749    54.57331817
 C     12  11  10     1.385268680438   120.72617611   179.24827351
 C     13  12  11     1.404298940202   120.11446275   359.07236448
 C     14  13  12     1.381187430389   119.48248776     1.47884036
 C     11  10   9     1.389148839425   121.19232435   234.09068679
 C      8   7   5     1.528948105521   110.20167895    76.59249874
 C      9   8   7     1.531417270364   115.62149357   303.95180798
 O      3   2   1     1.358686391192   115.93251124   179.47272421
 O      1   2   3     1.367134132238   115.28538996   177.62795647
 O      2   1   3     1.374786129197   118.28038020   177.22312528
 O     14  13  12     1.365804213240   120.26069109   181.32011988
 O     13  12  11     1.365551982957   125.54926655   179.18474244
 C     21   2   1     1.443598985208   119.25717593   116.08103887
 C     24  21   2     1.540313038679   111.82094334   294.24537354
 C     25  24  21     1.523264327668   112.54331730    77.43641480
 C     24  21   2     1.516962541470   104.67622972   172.47499643
 O     27  24  21     1.425450588311   111.75749989   298.70452272
 C     26  25  24     1.399418396623   119.13009879    53.85230327
 C     29  26  25     1.384610120592   120.60190595   182.27607668
 C     30  29  26     1.402078416115   119.70454992   359.16181783
 C     31  30  29     1.380015572124   119.89003930   358.73875399
 C     26  25  24     1.386289109840   121.83125748   233.66075157
 C     20   1   2     1.429088968023   118.20816232   184.22996126
 C     19   3   2     1.426584859164   118.01923890   177.15151847
 C     23  13  12     1.426897195128   118.28409509   358.81613475
 O     25  24  21     1.418488543914   110.98193066   309.47731424
 O     17   8   7     1.428402287768   113.43734305   187.16294678
 O     18   9   8     1.432811866370   115.35786804    72.87235268
 O     30  29  26     1.362257734023   125.66913358   178.81335625
 O     31  30  29     1.371565650906   119.98277159   179.11059366
 C     40  30  29     1.427975734259   118.16907668     4.60172654
 H      4   3   2     1.079798769797   120.24887043   181.08028645
 H      6   5   4     1.079623999224   119.50119210   180.38682570
 H      7   5   4     1.089570705391   108.75456730   318.24964967
 H      7   5   4     1.092036300682   110.07051704   202.00215109
 H      8   7   5     1.094803097941   106.91346605   321.20683389
 H      9   8   7     1.094204367292   105.65478888   189.33063578
 H     10   9   8     1.096605910981   107.94553370   180.63303480
 H     10   9   8     1.092183842117   110.30164707   296.30956586
 H     12  11  10     1.080624025194   119.61395675   359.18594564
 H     15  14  13     1.082803815796   119.03886253   179.17763722
 H     16  11  10     1.083179936131   119.61622562     1.26253150
 H     17   8   7     1.093875418949   109.34755330   310.39364999
 H     17   8   7     1.092449079554   110.55178847    68.18854765
 H     18   9   8     1.096025532838   108.48453220   196.11732253
 H     18   9   8     1.090553928934   110.32430034   313.50181584
 H     22  14  13     0.969124389787   108.41890252   359.56150074
 H     24  21   2     1.089184718734   109.14336016    55.93648679
 H     25  24  21     1.094702093833   106.12669032   195.19867888
 H     27  24  21     1.090446460088   109.11104367   180.89776936
 H     27  24  21     1.094542396189   109.77106046    62.02954556
 H     28  27  24     0.966412575760   107.21706503    56.13265425
 H     29  26  25     1.080301055359   119.97105980     1.31225704
 H     32  31  30     1.082354257322   119.20353744   181.18293082
 H     33  26  25     1.080147071164   120.02356831   359.12250045
 H     34  20   1     1.091879984786   110.94019301    58.63426132
 H     34  20   1     1.087059458558   105.72646583   177.63999246
 H     34  20   1     1.091653254655   110.84718158   296.42710342
 H     35  19   3     1.092689838662   111.09026295    63.32030748
 H     35  19   3     1.087122993065   105.83026099   182.31457360
 H     35  19   3     1.091535598421   111.08224008   301.36733793
 H     36  23  13     1.092442671177   110.88409912    61.79705191
 H     36  23  13     1.086956969367   105.98305154   180.85094505
 H     36  23  13     1.092474374473   110.78746833   299.88086771
 H     37  25  24     0.973910966836   108.21239868    55.76964002
 H     38  17   8     0.971664825727   108.32237712    62.47649568
 H     39  18   9     0.964439375981   108.53596852    69.51240151
 H     41  31  30     0.969645675705   108.73251185   357.31621200
 H     42  40  30     1.085246971855   105.79960790   179.38686607
 H     42  40  30     1.091482817489   110.87936950   298.16822641
 H     42  40  30     1.092530587593   110.56190321    59.87316665

---------------------------
INTERNAL COORDINATES (A.U.)
---------------------------
 C      0   0   0     0.000000000000     0.00000000     0.00000000
 C      1   0   0     2.636670166616     0.00000000     0.00000000
 C      2   1   0     2.643254759408   119.27693346     0.00000000
 C      3   2   1     2.630092674649   119.91191714   359.04202699
 C      4   3   2     2.632979079149   120.56479963     1.55760752
 C      5   4   3     2.629489523575   119.62869285   359.48424851
 C      5   4   3     2.848527470148   119.14483812   180.87846615
 C      7   5   4     2.920316784816   112.86145672    79.27341428
 C      8   7   5     2.913671379720   114.50402714   203.72813024
 C      9   8   7     2.907996825108   112.39869443    72.81423072
 C     10   9   8     2.852315158089   114.45892279    58.87477245
 C     11  10   9     2.647326080822   120.34439749    54.57331817
 C     12  11  10     2.617778427926   120.72617611   179.24827351
 C     13  12  11     2.653740407138   120.11446275   359.07236448
 C     14  13  12     2.610065983050   119.48248776     1.47884036
 C     11  10   9     2.625110865767   121.19232435   234.09068679
 C      8   7   5     2.889293192412   110.20167895    76.59249874
 C      9   8   7     2.893959237745   115.62149357   303.95180798
 O      3   2   1     2.567545181239   115.93251124   179.47272421
 O      1   2   3     2.583509098266   115.28538996   177.62795647
 O      2   1   3     2.597969276896   118.28038020   177.22312528
 O     14  13  12     2.580995915580   120.26069109   181.32011988
 O     13  12  11     2.580519269422   125.54926655   179.18474244
 C     21   2   1     2.728006729250   119.25717593   116.08103887
 C     24  21   2     2.910769803611   111.82094334   294.24537354
 C     25  24  21     2.878552408864   112.54331730    77.43641480
 C     24  21   2     2.866643758796   104.67622972   172.47499643
 O     27  24  21     2.693711229345   111.75749989   298.70452272
 C     26  25  24     2.644517516389   119.13009879    53.85230327
 C     29  26  25     2.616533930175   120.60190595   182.27607668
 C     30  29  26     2.649544224739   119.70454992   359.16181783
 C     31  30  29     2.607851491861   119.89003930   358.73875399
 C     26  25  24     2.619706760035   121.83125748   233.66075157
 C     20   1   2     2.700586770571   118.20816232   184.22996126
 C     19   3   2     2.695854690619   118.01923890   177.15151847
 C     23  13  12     2.696444920052   118.28409509   358.81613475
 O     25  24  21     2.680554872102   110.98193066   309.47731424
 O     17   8   7     2.699289132948   113.43734305   187.16294678
 O     18   9   8     2.707622028871   115.35786804    72.87235268
 O     30  29  26     2.574294041119   125.66913358   178.81335625
 O     31  30  29     2.591883454905   119.98277159   179.11059366
 C     40  30  29     2.698483063635   118.16907668     4.60172654
 H      4   3   2     2.040523954661   120.24887043   181.08028645
 H      6   5   4     2.040193686142   119.50119210   180.38682570
 H      7   5   4     2.058990236733   108.75456730   318.24964967
 H      7   5   4     2.063649536590   110.07051704   202.00215109
 H      8   7   5     2.068878025678   106.91346605   321.20683389
 H      9   8   7     2.067746588722   105.65478888   189.33063578
 H     10   9   8     2.072284848593   107.94553370   180.63303480
 H     10   9   8     2.063928349494   110.30164707   296.30956586
 H     12  11  10     2.042083461352   119.61395675   359.18594564
 H     15  14  13     2.046202668620   119.03886253   179.17763722
 H     16  11  10     2.046913433045   119.61622562     1.26253150
 H     17   8   7     2.067124966442   109.34755330   310.39364999
 H     17   8   7     2.064429575612   110.55178847    68.18854765
 H     18   9   8     2.071188092849   108.48453220   196.11732253
 H     18   9   8     2.060848259958   110.32430034   313.50181584
 H     22  14  13     1.831379686401   108.41890252   359.56150074
 H     24  21   2     2.058260827659   109.14336016    55.93648679
 H     25  24  21     2.068687155575   106.12669032   195.19867888
 H     27  24  21     2.060645173270   109.11104367   180.89776936
 H     27  24  21     2.068385370762   109.77106046    62.02954556
 H     28  27  24     1.826255100563   107.21706503    56.13265425
 H     29  26  25     2.041473136814   119.97105980     1.31225704
 H     32  31  30     2.045353126223   119.20353744   181.18293082
 H     33  26  25     2.041182148857   120.02356831   359.12250045
 H     34  20   1     2.063354142356   110.94019301    58.63426132
 H     34  20   1     2.054244667964   105.72646583   177.63999246
 H     34  20   1     2.062925684502   110.84718158   296.42710342
 H     35  19   3     2.064884544390   111.09026295    63.32030748
 H     35  19   3     2.054364730782   105.83026099   182.31457360
 H     35  19   3     2.062703346441   111.08224008   301.36733793
 H     36  23  13     2.064417465534   110.88409912    61.79705191
 H     36  23  13     2.054050991461   105.98305154   180.85094505
 H     36  23  13     2.064477376080   110.78746833   299.88086771
 H     37  25  24     1.840425006142   108.21239868    55.76964002
 H     38  17   8     1.836180414589   108.32237712    62.47649568
 H     39  18   9     1.822526293374   108.53596852    69.51240151
 H     41  31  30     1.832364774023   108.73251185   357.31621200
 H     42  40  30     2.050819564473   105.79960790   179.38686607
 H     42  40  30     2.062603604936   110.87936950   298.16822641
 H     42  40  30     2.064583603482   110.56190321    59.87316665

---------------------
BASIS SET INFORMATION
---------------------
There are 3 groups of distinct atoms

 Group   1 Type C   : 11s7p2d1f contracted to 4s5p2d1f pattern {7211/31111/11/1}
 Group   2 Type O   : 11s7p2d1f contracted to 4s5p2d1f pattern {7211/31111/11/1}
 Group   3 Type H   : 6s3p1d contracted to 3s2p1d pattern {411/21/1}

Atom   0C    basis set group =>   1
Atom   1C    basis set group =>   1
Atom   2C    basis set group =>   1
Atom   3C    basis set group =>   1
Atom   4C    basis set group =>   1
Atom   5C    basis set group =>   1
Atom   6C    basis set group =>   1
Atom   7C    basis set group =>   1
Atom   8C    basis set group =>   1
Atom   9C    basis set group =>   1
Atom  10C    basis set group =>   1
Atom  11C    basis set group =>   1
Atom  12C    basis set group =>   1
Atom  13C    basis set group =>   1
Atom  14C    basis set group =>   1
Atom  15C    basis set group =>   1
Atom  16C    basis set group =>   1
Atom  17C    basis set group =>   1
Atom  18O    basis set group =>   2
Atom  19O    basis set group =>   2
Atom  20O    basis set group =>   2
Atom  21O    basis set group =>   2
Atom  22O    basis set group =>   2
Atom  23C    basis set group =>   1
Atom  24C    basis set group =>   1
Atom  25C    basis set group =>   1
Atom  26C    basis set group =>   1
Atom  27O    basis set group =>   2
Atom  28C    basis set group =>   1
Atom  29C    basis set group =>   1
Atom  30C    basis set group =>   1
Atom  31C    basis set group =>   1
Atom  32C    basis set group =>   1
Atom  33C    basis set group =>   1
Atom  34C    basis set group =>   1
Atom  35C    basis set group =>   1
Atom  36O    basis set group =>   2
Atom  37O    basis set group =>   2
Atom  38O    basis set group =>   2
Atom  39O    basis set group =>   2
Atom  40O    basis set group =>   2
Atom  41C    basis set group =>   1
Atom  42H    basis set group =>   3
Atom  43H    basis set group =>   3
Atom  44H    basis set group =>   3
Atom  45H    basis set group =>   3
Atom  46H    basis set group =>   3
Atom  47H    basis set group =>   3
Atom  48H    basis set group =>   3
Atom  49H    basis set group =>   3
Atom  50H    basis set group =>   3
Atom  51H    basis set group =>   3
Atom  52H    basis set group =>   3
Atom  53H    basis set group =>   3
Atom  54H    basis set group =>   3
Atom  55H    basis set group =>   3
Atom  56H    basis set group =>   3
Atom  57H    basis set group =>   3
Atom  58H    basis set group =>   3
Atom  59H    basis set group =>   3
Atom  60H    basis set group =>   3
Atom  61H    basis set group =>   3
Atom  62H    basis set group =>   3
Atom  63H    basis set group =>   3
Atom  64H    basis set group =>   3
Atom  65H    basis set group =>   3
Atom  66H    basis set group =>   3
Atom  67H    basis set group =>   3
Atom  68H    basis set group =>   3
Atom  69H    basis set group =>   3
Atom  70H    basis set group =>   3
Atom  71H    basis set group =>   3
Atom  72H    basis set group =>   3
Atom  73H    basis set group =>   3
Atom  74H    basis set group =>   3
Atom  75H    basis set group =>   3
Atom  76H    basis set group =>   3
Atom  77H    basis set group =>   3
Atom  78H    basis set group =>   3
Atom  79H    basis set group =>   3
Atom  80H    basis set group =>   3
Atom  81H    basis set group =>   3
---------------------------------
AUXILIARY/J BASIS SET INFORMATION
---------------------------------
There are 3 groups of distinct atoms

 Group   1 Type C   : 15s13p12d5f5g contracted to 15s13p12d5f5g pattern {111111111111111/1111111111111/111111111111/11111/11111}
 Group   2 Type O   : 15s13p12d5f5g contracted to 15s13p12d5f5g pattern {111111111111111/1111111111111/111111111111/11111/11111}
 Group   3 Type H   : 12s4p3d2f contracted to 12s4p3d2f pattern {111111111111/1111/111/11}

Atom   0C    basis set group =>   1
Atom   1C    basis set group =>   1
Atom   2C    basis set group =>   1
Atom   3C    basis set group =>   1
Atom   4C    basis set group =>   1
Atom   5C    basis set group =>   1
Atom   6C    basis set group =>   1
Atom   7C    basis set group =>   1
Atom   8C    basis set group =>   1
Atom   9C    basis set group =>   1
Atom  10C    basis set group =>   1
Atom  11C    basis set group =>   1
Atom  12C    basis set group =>   1
Atom  13C    basis set group =>   1
Atom  14C    basis set group =>   1
Atom  15C    basis set group =>   1
Atom  16C    basis set group =>   1
Atom  17C    basis set group =>   1
Atom  18O    basis set group =>   2
Atom  19O    basis set group =>   2
Atom  20O    basis set group =>   2
Atom  21O    basis set group =>   2
Atom  22O    basis set group =>   2
Atom  23C    basis set group =>   1
Atom  24C    basis set group =>   1
Atom  25C    basis set group =>   1
Atom  26C    basis set group =>   1
Atom  27O    basis set group =>   2
Atom  28C    basis set group =>   1
Atom  29C    basis set group =>   1
Atom  30C    basis set group =>   1
Atom  31C    basis set group =>   1
Atom  32C    basis set group =>   1
Atom  33C    basis set group =>   1
Atom  34C    basis set group =>   1
Atom  35C    basis set group =>   1
Atom  36O    basis set group =>   2
Atom  37O    basis set group =>   2
Atom  38O    basis set group =>   2
Atom  39O    basis set group =>   2
Atom  40O    basis set group =>   2
Atom  41C    basis set group =>   1
Atom  42H    basis set group =>   3
Atom  43H    basis set group =>   3
Atom  44H    basis set group =>   3
Atom  45H    basis set group =>   3
Atom  46H    basis set group =>   3
Atom  47H    basis set group =>   3
Atom  48H    basis set group =>   3
Atom  49H    basis set group =>   3
Atom  50H    basis set group =>   3
Atom  51H    basis set group =>   3
Atom  52H    basis set group =>   3
Atom  53H    basis set group =>   3
Atom  54H    basis set group =>   3
Atom  55H    basis set group =>   3
Atom  56H    basis set group =>   3
Atom  57H    basis set group =>   3
Atom  58H    basis set group =>   3
Atom  59H    basis set group =>   3
Atom  60H    basis set group =>   3
Atom  61H    basis set group =>   3
Atom  62H    basis set group =>   3
Atom  63H    basis set group =>   3
Atom  64H    basis set group =>   3
Atom  65H    basis set group =>   3
Atom  66H    basis set group =>   3
Atom  67H    basis set group =>   3
Atom  68H    basis set group =>   3
Atom  69H    basis set group =>   3
Atom  70H    basis set group =>   3
Atom  71H    basis set group =>   3
Atom  72H    basis set group =>   3
Atom  73H    basis set group =>   3
Atom  74H    basis set group =>   3
Atom  75H    basis set group =>   3
Atom  76H    basis set group =>   3
Atom  77H    basis set group =>   3
Atom  78H    basis set group =>   3
Atom  79H    basis set group =>   3
Atom  80H    basis set group =>   3
Atom  81H    basis set group =>   3
---------------------------------
AUXILIARY/C BASIS SET INFORMATION
---------------------------------
There are 3 groups of distinct atoms

 Group   1 Type C   : 15s13p12d5f5g contracted to 15s13p12d5f5g pattern {111111111111111/1111111111111/111111111111/11111/11111}
 Group   2 Type O   : 15s13p12d5f5g contracted to 15s13p12d5f5g pattern {111111111111111/1111111111111/111111111111/11111/11111}
 Group   3 Type H   : 12s4p3d2f contracted to 12s4p3d2f pattern {111111111111/1111/111/11}

Atom   0C    basis set group =>   1
Atom   1C    basis set group =>   1
Atom   2C    basis set group =>   1
Atom   3C    basis set group =>   1
Atom   4C    basis set group =>   1
Atom   5C    basis set group =>   1
Atom   6C    basis set group =>   1
Atom   7C    basis set group =>   1
Atom   8C    basis set group =>   1
Atom   9C    basis set group =>   1
Atom  10C    basis set group =>   1
Atom  11C    basis set group =>   1
Atom  12C    basis set group =>   1
Atom  13C    basis set group =>   1
Atom  14C    basis set group =>   1
Atom  15C    basis set group =>   1
Atom  16C    basis set group =>   1
Atom  17C    basis set group =>   1
Atom  18O    basis set group =>   2
Atom  19O    basis set group =>   2
Atom  20O    basis set group =>   2
Atom  21O    basis set group =>   2
Atom  22O    basis set group =>   2
Atom  23C    basis set group =>   1
Atom  24C    basis set group =>   1
Atom  25C    basis set group =>   1
Atom  26C    basis set group =>   1
Atom  27O    basis set group =>   2
Atom  28C    basis set group =>   1
Atom  29C    basis set group =>   1
Atom  30C    basis set group =>   1
Atom  31C    basis set group =>   1
Atom  32C    basis set group =>   1
Atom  33C    basis set group =>   1
Atom  34C    basis set group =>   1
Atom  35C    basis set group =>   1
Atom  36O    basis set group =>   2
Atom  37O    basis set group =>   2
Atom  38O    basis set group =>   2
Atom  39O    basis set group =>   2
Atom  40O    basis set group =>   2
Atom  41C    basis set group =>   1
Atom  42H    basis set group =>   3
Atom  43H    basis set group =>   3
Atom  44H    basis set group =>   3
Atom  45H    basis set group =>   3
Atom  46H    basis set group =>   3
Atom  47H    basis set group =>   3
Atom  48H    basis set group =>   3
Atom  49H    basis set group =>   3
Atom  50H    basis set group =>   3
Atom  51H    basis set group =>   3
Atom  52H    basis set group =>   3
Atom  53H    basis set group =>   3
Atom  54H    basis set group =>   3
Atom  55H    basis set group =>   3
Atom  56H    basis set group =>   3
Atom  57H    basis set group =>   3
Atom  58H    basis set group =>   3
Atom  59H    basis set group =>   3
Atom  60H    basis set group =>   3
Atom  61H    basis set group =>   3
Atom  62H    basis set group =>   3
Atom  63H    basis set group =>   3
Atom  64H    basis set group =>   3
Atom  65H    basis set group =>   3
Atom  66H    basis set group =>   3
Atom  67H    basis set group =>   3
Atom  68H    basis set group =>   3
Atom  69H    basis set group =>   3
Atom  70H    basis set group =>   3
Atom  71H    basis set group =>   3
Atom  72H    basis set group =>   3
Atom  73H    basis set group =>   3
Atom  74H    basis set group =>   3
Atom  75H    basis set group =>   3
Atom  76H    basis set group =>   3
Atom  77H    basis set group =>   3
Atom  78H    basis set group =>   3
Atom  79H    basis set group =>   3
Atom  80H    basis set group =>   3
Atom  81H    basis set group =>   3
----------------------------------
AUXILIARY/JK BASIS SET INFORMATION
----------------------------------
There are 3 groups of distinct atoms

 Group   1 Type C   : 15s13p12d5f5g contracted to 15s13p12d5f5g pattern {111111111111111/1111111111111/111111111111/11111/11111}
 Group   2 Type O   : 15s13p12d5f5g contracted to 15s13p12d5f5g pattern {111111111111111/1111111111111/111111111111/11111/11111}
 Group   3 Type H   : 12s4p3d2f contracted to 12s4p3d2f pattern {111111111111/1111/111/11}

Atom   0C    basis set group =>   1
Atom   1C    basis set group =>   1
Atom   2C    basis set group =>   1
Atom   3C    basis set group =>   1
Atom   4C    basis set group =>   1
Atom   5C    basis set group =>   1
Atom   6C    basis set group =>   1
Atom   7C    basis set group =>   1
Atom   8C    basis set group =>   1
Atom   9C    basis set group =>   1
Atom  10C    basis set group =>   1
Atom  11C    basis set group =>   1
Atom  12C    basis set group =>   1
Atom  13C    basis set group =>   1
Atom  14C    basis set group =>   1
Atom  15C    basis set group =>   1
Atom  16C    basis set group =>   1
Atom  17C    basis set group =>   1
Atom  18O    basis set group =>   2
Atom  19O    basis set group =>   2
Atom  20O    basis set group =>   2
Atom  21O    basis set group =>   2
Atom  22O    basis set group =>   2
Atom  23C    basis set group =>   1
Atom  24C    basis set group =>   1
Atom  25C    basis set group =>   1
Atom  26C    basis set group =>   1
Atom  27O    basis set group =>   2
Atom  28C    basis set group =>   1
Atom  29C    basis set group =>   1
Atom  30C    basis set group =>   1
Atom  31C    basis set group =>   1
Atom  32C    basis set group =>   1
Atom  33C    basis set group =>   1
Atom  34C    basis set group =>   1
Atom  35C    basis set group =>   1
Atom  36O    basis set group =>   2
Atom  37O    basis set group =>   2
Atom  38O    basis set group =>   2
Atom  39O    basis set group =>   2
Atom  40O    basis set group =>   2
Atom  41C    basis set group =>   1
Atom  42H    basis set group =>   3
Atom  43H    basis set group =>   3
Atom  44H    basis set group =>   3
Atom  45H    basis set group =>   3
Atom  46H    basis set group =>   3
Atom  47H    basis set group =>   3
Atom  48H    basis set group =>   3
Atom  49H    basis set group =>   3
Atom  50H    basis set group =>   3
Atom  51H    basis set group =>   3
Atom  52H    basis set group =>   3
Atom  53H    basis set group =>   3
Atom  54H    basis set group =>   3
Atom  55H    basis set group =>   3
Atom  56H    basis set group =>   3
Atom  57H    basis set group =>   3
Atom  58H    basis set group =>   3
Atom  59H    basis set group =>   3
Atom  60H    basis set group =>   3
Atom  61H    basis set group =>   3
Atom  62H    basis set group =>   3
Atom  63H    basis set group =>   3
Atom  64H    basis set group =>   3
Atom  65H    basis set group =>   3
Atom  66H    basis set group =>   3
Atom  67H    basis set group =>   3
Atom  68H    basis set group =>   3
Atom  69H    basis set group =>   3
Atom  70H    basis set group =>   3
Atom  71H    basis set group =>   3
Atom  72H    basis set group =>   3
Atom  73H    basis set group =>   3
Atom  74H    basis set group =>   3
Atom  75H    basis set group =>   3
Atom  76H    basis set group =>   3
Atom  77H    basis set group =>   3
Atom  78H    basis set group =>   3
Atom  79H    basis set group =>   3
Atom  80H    basis set group =>   3
Atom  81H    basis set group =>   3
---------------------------------
AUXILIARY/X BASIS SET INFORMATION
---------------------------------
There are 3 groups of distinct atoms

 Group   1 Type C   : 15s13p12d5f5g contracted to 15s13p12d5f5g pattern {111111111111111/1111111111111/111111111111/11111/11111}
 Group   2 Type O   : 15s13p12d5f5g contracted to 15s13p12d5f5g pattern {111111111111111/1111111111111/111111111111/11111/11111}
 Group   3 Type H   : 12s4p3d2f contracted to 12s4p3d2f pattern {111111111111/1111/111/11}

Atom   0C    basis set group =>   1
Atom   1C    basis set group =>   1
Atom   2C    basis set group =>   1
Atom   3C    basis set group =>   1
Atom   4C    basis set group =>   1
Atom   5C    basis set group =>   1
Atom   6C    basis set group =>   1
Atom   7C    basis set group =>   1
Atom   8C    basis set group =>   1
Atom   9C    basis set group =>   1
Atom  10C    basis set group =>   1
Atom  11C    basis set group =>   1
Atom  12C    basis set group =>   1
Atom  13C    basis set group =>   1
Atom  14C    basis set group =>   1
Atom  15C    basis set group =>   1
Atom  16C    basis set group =>   1
Atom  17C    basis set group =>   1
Atom  18O    basis set group =>   2
Atom  19O    basis set group =>   2
Atom  20O    basis set group =>   2
Atom  21O    basis set group =>   2
Atom  22O    basis set group =>   2
Atom  23C    basis set group =>   1
Atom  24C    basis set group =>   1
Atom  25C    basis set group =>   1
Atom  26C    basis set group =>   1
Atom  27O    basis set group =>   2
Atom  28C    basis set group =>   1
Atom  29C    basis set group =>   1
Atom  30C    basis set group =>   1
Atom  31C    basis set group =>   1
Atom  32C    basis set group =>   1
Atom  33C    basis set group =>   1
Atom  34C    basis set group =>   1
Atom  35C    basis set group =>   1
Atom  36O    basis set group =>   2
Atom  37O    basis set group =>   2
Atom  38O    basis set group =>   2
Atom  39O    basis set group =>   2
Atom  40O    basis set group =>   2
Atom  41C    basis set group =>   1
Atom  42H    basis set group =>   3
Atom  43H    basis set group =>   3
Atom  44H    basis set group =>   3
Atom  45H    basis set group =>   3
Atom  46H    basis set group =>   3
Atom  47H    basis set group =>   3
Atom  48H    basis set group =>   3
Atom  49H    basis set group =>   3
Atom  50H    basis set group =>   3
Atom  51H    basis set group =>   3
Atom  52H    basis set group =>   3
Atom  53H    basis set group =>   3
Atom  54H    basis set group =>   3
Atom  55H    basis set group =>   3
Atom  56H    basis set group =>   3
Atom  57H    basis set group =>   3
Atom  58H    basis set group =>   3
Atom  59H    basis set group =>   3
Atom  60H    basis set group =>   3
Atom  61H    basis set group =>   3
Atom  62H    basis set group =>   3
Atom  63H    basis set group =>   3
Atom  64H    basis set group =>   3
Atom  65H    basis set group =>   3
Atom  66H    basis set group =>   3
Atom  67H    basis set group =>   3
Atom  68H    basis set group =>   3
Atom  69H    basis set group =>   3
Atom  70H    basis set group =>   3
Atom  71H    basis set group =>   3
Atom  72H    basis set group =>   3
Atom  73H    basis set group =>   3
Atom  74H    basis set group =>   3
Atom  75H    basis set group =>   3
Atom  76H    basis set group =>   3
Atom  77H    basis set group =>   3
Atom  78H    basis set group =>   3
Atom  79H    basis set group =>   3
Atom  80H    basis set group =>   3
Atom  81H    basis set group =>   3
--------------------------------------------------------------------------
WARNING: There was an error initializing an OpenFabrics device.

  Local host:   c03b01n02
  Local device: mlx5_0
--------------------------------------------------------------------------
--------------------------------------------------------------------------
WARNING: There is at least one non-excluded one OpenFabrics device found,
but there are no active ports detected (or Open MPI was unable to use
them).  This is most certainly not what you wanted.  Check your
cables, subnet manager configuration, etc.  The openib BTL will be
ignored for this job.

  Local host: c03b01n02
--------------------------------------------------------------------------


           ************************************************************
           *        Program running with 60 parallel MPI-processes    *
           *              working on a common directory               *
           ************************************************************
------------------------------------------------------------------------------
                             ORCA STARTUP CALCULATIONS
                           -- RI-GTO INTEGRALS CHOSEN --
------------------------------------------------------------------------------
------------------------------------------------------------------------------
                   ___                                                        
                  /   \      - P O W E R E D   B Y -                         
                 /     \                                                     
                 |  |  |   _    _      __       _____    __    __             
                 |  |  |  | |  | |    /  \     |  _  \  |  |  /  |          
                  \  \/   | |  | |   /    \    | | | |  |  | /  /          
                 / \  \   | |__| |  /  /\  \   | |_| |  |  |/  /          
                |  |  |   |  __  | /  /__\  \  |    /   |      \           
                |  |  |   | |  | | |   __   |  |    \   |  |\   \          
                \     /   | |  | | |  |  |  |  | |\  \  |  | \   \       
                 \___/    |_|  |_| |__|  |__|  |_| \__\ |__|  \__/        
                                                                              
                      - O R C A' S   B I G   F R I E N D -                    
                                      &                                       
                       - I N T E G R A L  F E E D E R -                       
                                                                              
 v1 FN, 2020, v2 2021, v3 2022-2024                                           
------------------------------------------------------------------------------


----------------------
SHARK INTEGRAL PACKAGE
----------------------

Number of atoms                             ...     82
Number of basis functions                   ...   2072
Number of shells                            ...    744
Maximum angular momentum                    ...      3
Integral batch strategy                     ... SHARK/LIBINT Hybrid
RI-J (if used) integral strategy            ... SPLIT-RIJ (Revised 2003 algorithm where possible)
Printlevel                                  ...      1
Contraction scheme used                     ... SEGMENTED contraction
Prescreening option                         ... SCHWARTZ
   Thresh                                   ... 1.000e-10
   Tcut                                     ... 1.000e-11
   Tpresel                                  ... 1.000e-11 
Coulomb Range Separation                    ... NOT USED
Exchange Range Separation                   ... NOT USED
Multipole approximations                    ... NOT USED
Finite Nucleus Model                        ... NOT USED
CABS basis                                  ... NOT available
Auxiliary Coulomb fitting basis             ... AVAILABLE
   # of basis functions in Aux-J            ...  10268
   # of shells in Aux-J                     ...   2940
   Maximum angular momentum in Aux-J        ...      4
Auxiliary J/K fitting basis                 ... AVAILABLE
   # of basis functions in Aux-JK           ...  10268
   # of shells in Aux-JK                    ...   2940
   Maximum angular momentum in Aux-JK       ...      4
Auxiliary Correlation fitting basis         ... AVAILABLE
   # of basis functions in Aux-C            ...  10268
   # of shells in Aux-C                     ...   2940
   Maximum angular momentum in Aux-C        ...      4
Auxiliary 'external' fitting basis          ... NOT available

Checking pre-screening integrals            ... done (  0.0 sec) Dimension = 744
   => SHARK Basis and OBASIS are compatible. Storing Pre-screening
Shell pair information
Shell pair cut-off parameter TPreSel        ...   1.0e-11
Total number of shell pairs                 ...    277140
Shell pairs after pre-screening             ...    151236
Total number of primitive shell pairs       ...    823733
Primitive shell pairs kept                  ...    276899
          la=0 lb=0:  28795 shell pairs
          la=1 lb=0:  50287 shell pairs
          la=1 lb=1:  20542 shell pairs
          la=2 lb=0:  19856 shell pairs
          la=2 lb=1:  14986 shell pairs
          la=2 lb=2:   2668 shell pairs
          la=3 lb=0:   6828 shell pairs
          la=3 lb=1:   5145 shell pairs
          la=3 lb=2:   1794 shell pairs
          la=3 lb=3:    335 shell pairs

Checking whether 4 symmetric matrices of dimension 2072 fit in memory
:Max Core in MB      =   5000.00
 MB in use           =    186.71
 MB left             =   4813.29
 MB needed           =     65.54
 Data fit in memory  = YES
Calculating RI/J V-Matrix + Cholesky decomp.... [c03b01n02:3028274] 47 more processes have sent help message help-mpi-btl-openib.txt / error in device init
[c03b01n02:3028274] Set MCA parameter "orte_base_help_aggregate" to 0 to see all help / error messages
[c03b01n02:3028274] 11 more processes have sent help message help-mpi-btl-openib.txt / no active ports found
done (  4.2 sec)
Calculating RI/JK V-Matrix + Cholesky decomp.... done (  3.9 sec)
Calculating RI/C V-Matrix + Cholesky decomp.... done (  4.1 sec)
Calculating Nuclear repulsion               ... done (  0.0 sec) ENN=   5718.011863982100 Eh

Diagonalization of the overlap matrix:
Smallest eigenvalue                        ... 7.362e-06
Time for diagonalization                   ...    5.573 sec
Threshold for overlap eigenvalues          ... 1.000e-07
Number of eigenvalues below threshold      ... 0
Time for construction of square roots      ...    0.338 sec
Total time needed                          ...    5.996 sec

-------------------
DFT GRID GENERATION
-------------------

General Integration Accuracy     IntAcc      ... 4.388
Radial Grid Type                 RadialGrid  ... OptM3 with GC (2021)
Angular Grid (max. ang.)         AngularGrid ... 4 (Lebedev-302)
Angular grid pruning method      GridPruning ... 4 (adaptive)
Weight generation scheme         WeightScheme... mBecke (2022)
Basis function cutoff            BFCut       ... 1.0000e-10
Integration weight cutoff        WCut        ... 1.0000e-14
Partially contracted basis set               ... off
Rotationally invariant grid construction     ... off
Angular grids for H and He will be reduced by one unit
Diffuse basis detected: some atoms will have their outermost
                        angular grid increased by 1.

Total number of grid points                  ...   376778
Total number of batches                      ...     5929
Average number of points per batch           ...       63
Average number of grid points per atom       ...     4595
Grids setup in   2.3 sec
Initializing property integral containers    ... done (  0.1 sec)

SHARK setup successfully completed in  22.8 seconds

Maximum memory used throughout the entire STARTUP-calculation: 258.7 MB
--------------------------------------------------------------------------
WARNING: There was an error initializing an OpenFabrics device.

  Local host:   c03b01n02
  Local device: mlx5_0
--------------------------------------------------------------------------
--------------------------------------------------------------------------
WARNING: There is at least one non-excluded one OpenFabrics device found,
but there are no active ports detected (or Open MPI was unable to use
them).  This is most certainly not what you wanted.  Check your
cables, subnet manager configuration, etc.  The openib BTL will be
ignored for this job.

  Local host: c03b01n02
--------------------------------------------------------------------------


           ************************************************************
           *        Program running with 60 parallel MPI-processes    *
           *              working on a common directory               *
           ************************************************************
-------------------------------------------------------------------------------
                                 ORCA GUESS
                   Start orbitals & Density for SCF / CASSCF
-------------------------------------------------------------------------------

------------
SCF SETTINGS
------------
Hamiltonian:
 Density Functional     Method          .... DFT(GTOs)
 Exchange Functional    Exchange        .... TPSS
 Correlation Functional Correlation     .... TPSS
 LDA part of GGA corr.  LDAOpt          .... PW91-LDA
 Gradients option       PostSCFGGA      .... off
   NL short-range parameter             ....  5.000000
 RI-approximation to the Coulomb term is turned on
   Number of AuxJ basis functions       .... 10268


General Settings:
 Integral files         IntName         .... nmr-conf-5
 Hartree-Fock type      HFTyp           .... RHF
 Total Charge           Charge          ....    0
 Multiplicity           Mult            ....    1
 Number of Electrons    NEL             ....  314
 Basis Dimension        Dim             .... 2072
 Nuclear Repulsion      ENuc            ....   5718.0118639821 Eh

Convergence Acceleration:
 AO-DIIS                CNVDIIS         .... on
   Start iteration      DIISMaxIt       ....    12
   Startup error        DIISStart       ....  0.200000
   # of expansion vecs  DIISMaxEq       ....     5
   Bias factor          DIISBfac        ....   1.050
   Max. coefficient     DIISMaxC        ....  10.000
 MO-DIIS                CNVKDIIS        .... off
 Trust-Rad. Augm. Hess. CNVTRAH         .... auto
   Auto Start mean grad. ratio tolernc. ....  1.125000
   Auto Start start iteration           ....    50
   Auto Start num. interpolation iter.  ....    10
   Max. Number of Micro iterations      ....    24
   Max. Number of Macro iterations      .... Maxiter - #DIIS iter
   Number of Davidson start vectors     ....     2
   Converg. threshold    (grad. norm)   ....   5.000e-05
   Grad. Scal. Fac. for Micro threshold ....   0.100
   Minimum threshold for Micro iter.    ....   1.000e-02
   NR start threshold (gradient norm)   ....   1.000e-04
   Initial trust radius                 ....   0.400
   Minimum AH scaling param. (alpha)    ....   1.000
   Maximum AH scaling param. (alpha)    .... 1000.000
   Quad. conv. algorithm                .... NR
   White noise on init. David. guess    .... on
   Maximum white noise                  ....   0.010
   Pseudo random numbers                .... off
   Inactive MOs                         .... canonical
   Orbital update algorithm             .... Taylor
   Preconditioner                       .... Diag
   Full preconditioner red. dimension   ....   250
 SOSCF                 CNVSOSCF           .... on
   Start iteration     SOSCFMaxIt         ....   150
   Startup grad/error  SOSCFStart         ....  0.003300
   Hessian update      SOSCFHessUp        .... L-BFGS
   Autom. constraints  SOSCFAutoConstrain .... off
 Level Shifting         CNVShift        .... on
   Level shift para.    LevelShift      ....    0.2500
   Turn off err/grad.   ShiftErr        ....    0.0010
 Zerner damping         CNVZerner       .... off
 Static damping         CNVDamp         .... on
   Fraction old density DampFac         ....    0.7000
   Max. Damping (<1)    DampMax         ....    0.9800
   Min. Damping (>=0)   DampMin         ....    0.0000
   Turn off err/grad.   DampErr         ....    0.1000

SCF Procedure:
 Maximum # iterations   MaxIter         ....   125
 SCF integral mode      SCFMode         .... Direct
   Integral package                     .... SHARK and LIBINT hybrid scheme
 Reset frequency        DirectResetFreq ....    20
 Integral Threshold     Thresh          ....  1.000e-10 Eh
 Primitive CutOff       TCut            ....  1.000e-11 Eh

Convergence Tolerance:
 Convergence Check Mode ConvCheckMode   .... Total+1el-Energy
 Convergence forced     ConvForced      .... 0
 Energy Change          TolE            ....  1.000e-06 Eh
 1-El. energy change                    ....  1.000e-03 Eh
 Orbital Gradient       TolG            ....  5.000e-05
 Orbital Rotation angle TolX            ....  5.000e-05
 DIIS Error             TolErr          ....  1.000e-06

------------------------------
INITIAL GUESS: MODEL POTENTIAL
------------------------------
Loading Hartree-Fock densities                     ... done
Calculating cut-offs                               ... done
Initializing the effective Hamiltonian             ... done
Setting up the integral package (SHARK)            ... done
Starting the Coulomb interaction                   ... [c03b01n02:3028669] 49 more processes have sent help message help-mpi-btl-openib.txt / error in device init
[c03b01n02:3028669] Set MCA parameter "orte_base_help_aggregate" to 0 to see all help / error messages
[c03b01n02:3028669] 9 more processes have sent help message help-mpi-btl-openib.txt / no active ports found
done (   1.1 sec)
Making the grid                                    ... done (   0.5 sec)
Mapping shells                                     ... done
Starting the XC term evaluation                    ... done (   0.2 sec)
  promolecular density results
     # of electrons  =    313.998293584
     EX              =   -260.298085591
     EC              =    -10.638846963
     EX+EC           =   -270.936932554
Transforming the Hamiltonian                       ... done (   0.3 sec)
Diagonalizing the Hamiltonian                      ... done (   0.6 sec)
Back transforming the eigenvectors                 ... done (   1.1 sec)
Now organizing SCF variables                       ... done
                      ------------------
                      INITIAL GUESS DONE (   5.8 sec)
                      ------------------
             **** ENERGY FILE WAS UPDATED (nmr-conf-5.en.tmp) ****
Finished Guess after  14.6 sec
Maximum memory used throughout the entire GUESS-calculation: 290.4 MB
--------------------------------------------------------------------------
WARNING: There was an error initializing an OpenFabrics device.

  Local host:   c03b01n02
  Local device: mlx5_0
--------------------------------------------------------------------------
--------------------------------------------------------------------------
WARNING: There is at least one non-excluded one OpenFabrics device found,
but there are no active ports detected (or Open MPI was unable to use
them).  This is most certainly not what you wanted.  Check your
cables, subnet manager configuration, etc.  The openib BTL will be
ignored for this job.

  Local host: c03b01n02
--------------------------------------------------------------------------


           ************************************************************
           *        Program running with 60 parallel MPI-processes    *
           *              working on a common directory               *
           ************************************************************

-------------------------------------------------------------------------------------------
                                      ORCA LEAN-SCF
                              memory conserving SCF solver
-------------------------------------------------------------------------------------------

--------------------
CPCM SOLVATION MODEL
--------------------
CPCM parameters:
  Epsilon                                         ...      33.4280
  Refrac                                          ...       1.3288
  Rsolv                                           ...       1.3000
  Surface type                                    ... GAUSSIAN VDW
  Discretization scheme                           ... Constant charge density
    Threshold for H atoms                         ...       5.0000 (charges/Ang^2)
    Threshold for non-H atoms                     ...       5.0000 (charges/Ang^2)
  Epsilon function type                           ...         CPCM
Solvent:                                          ... METHANOL
Radii:
  Scheme                                          ... Element-dependent radii
  Radius for C  used is    3.8550 Bohr (=   2.0400 Ang.)
  Radius for O  used is    3.4469 Bohr (=   1.8240 Ang.)
  Radius for H  used is    2.4944 Bohr (=   1.3200 Ang.)
Calculating surface                               ...        done! (  0.6s)
Cavity surface points                             ...         6220
Cavity Volume                                     ...    4583.0958
Cavity Surface-area                               ...    2093.6830
Calculating surface distance matrix               ...        done! (  0.2s)
Performing Cholesky decomposition & store         ...        done! (  0.7s)
Overall time for CPCM initialization              ...                 1.6s

[c03b01n02:3029101] 50 more processes have sent help message help-mpi-btl-openib.txt / error in device init
[c03b01n02:3029101] Set MCA parameter "orte_base_help_aggregate" to 0 to see all help / error messages
[c03b01n02:3029101] 8 more processes have sent help message help-mpi-btl-openib.txt / no active ports found
----------------------------------------D-I-I-S--------------------------------------------
Iteration    Energy (Eh)           Delta-E    RMSDP     MaxDP     DIISErr   Damp  Time(sec)
-------------------------------------------------------------------------------------------
               ***  Starting incremental Fock matrix formation  ***
    1    -2033.0205269594243873     0.00e+00  8.11e-03  2.95e-01  2.36e-01  0.700  15.0
    2    -2033.4292833777162741    -4.09e-01  6.64e-03  2.33e-01  8.27e-02  0.700   9.5
                               ***Turning on AO-DIIS***
    3    -2033.5819364297512948    -1.53e-01  2.83e-03  7.77e-02  2.42e-02  0.700   7.5
    4    -2033.6742355127771589    -9.23e-02  4.77e-03  7.74e-02  1.14e-02  0.000   7.4
    5    -2033.8785930339900005    -2.04e-01  1.25e-03  3.28e-02  4.62e-03  0.000   7.1
                              *** Initializing SOSCF ***
---------------------------------------S-O-S-C-F--------------------------------------
Iteration    Energy (Eh)           Delta-E    RMSDP     MaxDP     MaxGrad    Time(sec)
--------------------------------------------------------------------------------------
    6    -2033.8799786045974543    -1.39e-03  3.99e-04  9.08e-03  1.30e-03    10.7
               *** Restarting incremental Fock matrix formation ***
    7    -2033.8800823584479076    -1.04e-04  3.19e-04  6.43e-03  1.28e-04     8.5
    8    -2033.8800579563539941     2.44e-05  7.56e-05  2.05e-03  6.21e-04     7.1
    9    -2033.8800986947117053    -4.07e-05  6.52e-05  1.38e-03  1.09e-04     7.1
   10    -2033.8800988391203646    -1.44e-07  2.28e-05  7.79e-04  9.81e-05     7.3
                 **** Energy Check signals convergence ****

               *****************************************************
               *                     SUCCESS                       *
               *           SCF CONVERGED AFTER  10 CYCLES          *
               *****************************************************

             **** ENERGY FILE WAS UPDATED (nmr-conf-5.en.tmp) ****

----------------
TOTAL SCF ENERGY
----------------

Total Energy       :      -2033.88010018646219 Eh          -55344.69120 eV

Components:
Nuclear Repulsion  :       5718.01186398210029 Eh          155595.01312 eV
Electronic Energy  :      -7751.84510514520116 Eh         -210938.42921 eV
One Electron Energy:     -14163.94393922713971 Eh         -385420.50899 eV
Two Electron Energy:       6412.09883408193855 Eh          174482.07977 eV
CPCM Dielectric    :         -0.04685902336102 Eh              -1.27510 eV

Virial components:
Potential Energy   :      -4061.12053893976736 Eh         -110508.70802 eV
Kinetic Energy     :       2027.24043875330494 Eh           55164.01682 eV
Virial Ratio       :          2.00327522148149

DFT components:
N(Alpha)           :      157.000619481869 electrons
N(Beta)            :      157.000619481869 electrons
N(Total)           :      314.001238963738 electrons
E(X)               :     -268.094404808496 Eh       
E(C)               :      -10.603404352266 Eh       
E(XC)              :     -278.697809160762 Eh       

CPCM Solvation Model Properties:
Surface-charge          :         -0.04245277863680
Corrected charge        :          0.00000000000000
Outlying charge corr.   :          0.00007785062844 Eh               0.00212 eV
Free-energy (cav+disp)  :  This term is not implemented in the current solvation scheme

---------------
SCF CONVERGENCE
---------------

  Last Energy change         ...    1.4441e-07  Tolerance :   1.0000e-06
  Last MAX-Density change    ...    7.7921e-04  Tolerance :   1.0000e-05
  Last RMS-Density change    ...    2.2840e-05  Tolerance :   1.0000e-06
  Last DIIS Error            ...    1.2962e-03  Tolerance :   1.0000e-06
  Last Orbital Gradient      ...    9.8082e-05  Tolerance :   5.0000e-05
  Last Orbital Rotation      ...    1.9813e-04  Tolerance :   5.0000e-05


----------------
ORBITAL ENERGIES
----------------

  NO   OCC          E(Eh)            E(eV) 
   0   2.0000     -18.919948      -514.8380 
   1   2.0000     -18.919586      -514.8281 
   2   2.0000     -18.918904      -514.8096 
   3   2.0000     -18.918546      -514.7998 
   4   2.0000     -18.913378      -514.6592 
   5   2.0000     -18.910024      -514.5679 
   6   2.0000     -18.904632      -514.4212 
   7   2.0000     -18.881102      -513.7809 
   8   2.0000     -18.876900      -513.6666 
   9   2.0000     -18.876588      -513.6581 
  10   2.0000     -18.868321      -513.4331 
  11   2.0000     -10.046490      -273.3789 
  12   2.0000     -10.045347      -273.3478 
  13   2.0000     -10.045337      -273.3475 
  14   2.0000     -10.044873      -273.3349 
  15   2.0000     -10.044627      -273.3282 
  16   2.0000     -10.044565      -273.3265 
  17   2.0000     -10.041935      -273.2549 
  18   2.0000     -10.040626      -273.2193 
  19   2.0000     -10.036789      -273.1149 
  20   2.0000     -10.036054      -273.0949 
  21   2.0000     -10.034548      -273.0539 
  22   2.0000     -10.033488      -273.0251 
  23   2.0000     -10.033269      -273.0191 
  24   2.0000     -10.030817      -272.9524 
  25   2.0000     -10.025107      -272.7970 
  26   2.0000     -10.019928      -272.6561 
  27   2.0000      -9.991640      -271.8863 
  28   2.0000      -9.990477      -271.8547 
  29   2.0000      -9.988009      -271.7875 
  30   2.0000      -9.986314      -271.7414 
  31   2.0000      -9.985468      -271.7184 
  32   2.0000      -9.983744      -271.6715 
  33   2.0000      -9.983016      -271.6517 
  34   2.0000      -9.982953      -271.6500 
  35   2.0000      -9.982733      -271.6440 
  36   2.0000      -9.982205      -271.6296 
  37   2.0000      -9.980516      -271.5837 
  38   2.0000      -9.980439      -271.5816 
  39   2.0000      -9.979358      -271.5521 
  40   2.0000      -9.977737      -271.5080 
  41   2.0000      -9.976181      -271.4657 
  42   2.0000      -1.014751       -27.6128 
  43   2.0000      -1.012447       -27.5501 
  44   2.0000      -1.011672       -27.5290 
  45   2.0000      -1.001118       -27.2418 
  46   2.0000      -0.989037       -26.9131 
  47   2.0000      -0.984632       -26.7932 
  48   2.0000      -0.983925       -26.7740 
  49   2.0000      -0.953958       -25.9585 
  50   2.0000      -0.950815       -25.8730 
  51   2.0000      -0.948406       -25.8074 
  52   2.0000      -0.941388       -25.6165 
  53   2.0000      -0.798093       -21.7172 
  54   2.0000      -0.796965       -21.6865 
  55   2.0000      -0.795324       -21.6419 
  56   2.0000      -0.758370       -20.6363 
  57   2.0000      -0.734927       -19.9984 
  58   2.0000      -0.719101       -19.5677 
  59   2.0000      -0.703567       -19.1450 
  60   2.0000      -0.700518       -19.0621 
  61   2.0000      -0.699343       -19.0301 
  62   2.0000      -0.696506       -18.9529 
  63   2.0000      -0.687415       -18.7055 
  64   2.0000      -0.669881       -18.2284 
  65   2.0000      -0.652489       -17.7551 
  66   2.0000      -0.650004       -17.6875 
  67   2.0000      -0.648758       -17.6536 
  68   2.0000      -0.639489       -17.4014 
  69   2.0000      -0.622747       -16.9458 
  70   2.0000      -0.620819       -16.8934 
  71   2.0000      -0.613142       -16.6844 
  72   2.0000      -0.578322       -15.7370 
  73   2.0000      -0.566862       -15.4251 
  74   2.0000      -0.561165       -15.2701 
  75   2.0000      -0.559162       -15.2156 
  76   2.0000      -0.548350       -14.9214 
  77   2.0000      -0.546616       -14.8742 
  78   2.0000      -0.540286       -14.7019 
  79   2.0000      -0.535289       -14.5659 
  80   2.0000      -0.511337       -13.9142 
  81   2.0000      -0.510323       -13.8866 
  82   2.0000      -0.503052       -13.6888 
  83   2.0000      -0.498966       -13.5776 
  84   2.0000      -0.482644       -13.1334 
  85   2.0000      -0.479289       -13.0421 
  86   2.0000      -0.474782       -12.9195 
  87   2.0000      -0.469736       -12.7822 
  88   2.0000      -0.464893       -12.6504 
  89   2.0000      -0.459533       -12.5045 
  90   2.0000      -0.452308       -12.3079 
  91   2.0000      -0.448356       -12.2004 
  92   2.0000      -0.446048       -12.1376 
  93   2.0000      -0.443243       -12.0613 
  94   2.0000      -0.434228       -11.8159 
  95   2.0000      -0.431801       -11.7499 
  96   2.0000      -0.428730       -11.6663 
  97   2.0000      -0.426266       -11.5993 
  98   2.0000      -0.424204       -11.5432 
  99   2.0000      -0.423287       -11.5182 
 100   2.0000      -0.419446       -11.4137 
 101   2.0000      -0.418855       -11.3976 
 102   2.0000      -0.409672       -11.1477 
 103   2.0000      -0.406124       -11.0512 
 104   2.0000      -0.403407       -10.9773 
 105   2.0000      -0.399940       -10.8829 
 106   2.0000      -0.399297       -10.8654 
 107   2.0000      -0.391553       -10.6547 
 108   2.0000      -0.386507       -10.5174 
 109   2.0000      -0.385047       -10.4777 
 110   2.0000      -0.383983       -10.4487 
 111   2.0000      -0.380723       -10.3600 
 112   2.0000      -0.379527       -10.3274 
 113   2.0000      -0.377742       -10.2789 
 114   2.0000      -0.374434       -10.1889 
 115   2.0000      -0.371559       -10.1106 
 116   2.0000      -0.370406       -10.0793 
 117   2.0000      -0.367880       -10.0105 
[...]
  X           0.5201147    0.5032933   -0.6900555
  Y           0.6647384   -0.7458407   -0.0429479
  Z           0.5362869    0.4363686    0.7224810

 --------------
 Nucleus  73H :
 --------------

Diamagnetic contribution to the shielding tensor (ppm) : 
             4.975        -17.487         3.423
           -14.595         11.049        -7.259
            31.155        -36.161        35.201

Paramagnetic contribution to the shielding tensor (ppm): 
            19.017         15.954        -3.568
            13.424         13.671         7.513
           -30.021         34.568        -1.760

Total shielding tensor (ppm): 
            23.992         -1.533        -0.145
            -1.171         24.720         0.254
             1.135         -1.593        33.441


 Diagonalized sT*s matrix:
 
 sDSO            -8.255           17.554           41.927  iso=      17.075
 sPSO            31.211            8.117           -8.399  iso=      10.309
        ---------------  ---------------  ---------------
 Total           22.956           25.670           33.527  iso=      27.384

 Orientation: 
  X           0.7959815   -0.6007369    0.0743545
  Y           0.6053179    0.7895619   -0.1009065
  Z           0.0019108    0.1253278    0.9921135

 --------------
 Nucleus  74H :
 --------------

Diamagnetic contribution to the shielding tensor (ppm) : 
            47.374         -7.078        -6.514
            12.627         33.855         2.746
            22.972        -20.727        65.987

Paramagnetic contribution to the shielding tensor (ppm): 
           -23.358          7.003         6.799
           -12.448         -3.179        -1.353
           -24.251         23.174       -37.140

Total shielding tensor (ppm): 
            24.016         -0.074         0.285
             0.179         30.676         1.393
            -1.279          2.447        28.846


 Diagonalized sT*s matrix:
 
 sDSO            49.694           63.188           34.334  iso=      49.072
 sPSO           -25.737          -35.500           -2.440  iso=     -21.226
        ---------------  ---------------  ---------------
 Total           23.957           27.688           31.894  iso=      27.846

 Orientation: 
  X           0.9903893    0.1338607   -0.0347914
  Y          -0.0416617    0.5286026    0.8478464
  Z           0.1318841   -0.8382485    0.5290992

 --------------
 Nucleus  75H :
 --------------

Diamagnetic contribution to the shielding tensor (ppm) : 
            59.472        -12.573        24.716
             0.741         32.751        12.357
           -24.315        -18.635        46.357

Paramagnetic contribution to the shielding tensor (ppm): 
           -23.247          3.994       -18.397
            -8.703         -6.611       -14.580
            31.393         16.979       -27.365

Total shielding tensor (ppm): 
            36.225         -8.579         6.319
            -7.962         26.140        -2.223
             7.078         -1.656        18.992


 Diagonalized sT*s matrix:
 
 sDSO            47.927           32.256           58.397  iso=      46.193
 sPSO           -31.345          -10.295          -15.583  iso=     -19.074
        ---------------  ---------------  ---------------
 Total           16.581           21.962           42.814  iso=      27.119

 Orientation: 
  X          -0.3626675   -0.3872236    0.8476616
  Y          -0.1230923   -0.8817139   -0.4554436
  Z           0.9237535   -0.2695152    0.2721048

 --------------
 Nucleus  76H :
 --------------

Diamagnetic contribution to the shielding tensor (ppm) : 
            69.303        -35.596        -1.662
             4.758         25.578        -3.328
            52.256         -9.231        58.701

Paramagnetic contribution to the shielding tensor (ppm): 
           -35.481         23.098         3.014
           -18.614          4.880         2.723
           -50.223          7.000       -36.908

Total shielding tensor (ppm): 
            33.821        -12.498         1.351
           -13.856         30.458        -0.605
             2.034         -2.231        21.794


 Diagonalized sT*s matrix:
 
 sDSO            28.852           55.161           69.568  iso=      51.194
 sPSO            -9.995          -33.568          -23.946  iso=     -22.503
        ---------------  ---------------  ---------------
 Total           18.858           21.593           45.622  iso=      28.691

 Orientation: 
  X           0.6537148   -0.0563960    0.7546366
  Y           0.7567115    0.0575251   -0.6512132
  Z          -0.0066847    0.9967499    0.0802805

 --------------
 Nucleus  77H :
 --------------

Diamagnetic contribution to the shielding tensor (ppm) : 
            56.288         69.602         3.230
            16.921         81.224         1.354
             0.977         20.585        61.910

Paramagnetic contribution to the shielding tensor (ppm): 
           -26.571        -64.809         3.754
           -12.532        -46.446         1.946
             5.276        -15.838       -35.467

Total shielding tensor (ppm): 
            29.716          4.793         6.984
             4.389         34.778         3.300
             6.253          4.748        26.443


 Diagonalized sT*s matrix:
 
 sDSO            58.589           29.325          111.508  iso=      66.474
 sPSO           -37.336           -0.575          -70.573  iso=     -36.161
        ---------------  ---------------  ---------------
 Total           21.252           28.750           40.935  iso=      30.313

 Orientation: 
  X          -0.6111214    0.5717674    0.5473689
  Y          -0.0225956   -0.7038465    0.7099926
  Z           0.7912143    0.4215236    0.4430551

 --------------
 Nucleus  78H :
 --------------

Diamagnetic contribution to the shielding tensor (ppm) : 
            46.975        -28.866       -14.143
             0.771         32.174       -14.650
            26.168        -13.772        40.395

Paramagnetic contribution to the shielding tensor (ppm): 
           -24.447         31.633        10.190
             1.361          3.937        16.382
           -31.580         12.411       -20.041

Total shielding tensor (ppm): 
            22.528          2.766        -3.952
             2.132         36.112         1.732
            -5.412         -1.361        20.353


 Diagonalized sT*s matrix:
 
 sDSO            52.827           38.764           27.954  iso=      39.848
 sPSO           -36.328          -12.823            8.600  iso=     -13.517
        ---------------  ---------------  ---------------
 Total           16.499           25.941           36.553  iso=      26.331

 Orientation: 
  X           0.6222730   -0.7609331   -0.1837312
  Y          -0.1055294    0.1510223   -0.9828814
  Z           0.7756545    0.6310096    0.0136763

 --------------
 Nucleus  79H :
 --------------

Diamagnetic contribution to the shielding tensor (ppm) : 
            -7.710        -56.707       -15.597
           -36.677          4.198       -18.348
            -1.275         -6.766       -11.507

Paramagnetic contribution to the shielding tensor (ppm): 
            35.114         55.200        13.032
            38.417         26.509        16.737
            -0.964          6.351        34.573

Total shielding tensor (ppm): 
            27.404         -1.506        -2.565
             1.740         30.706        -1.611
            -2.239         -0.415        23.066


 Diagonalized sT*s matrix:
 
 sDSO           -22.773           15.497           -7.743  iso=      -5.006
 sPSO            44.684           12.867           38.644  iso=      32.065
        ---------------  ---------------  ---------------
 Total           21.911           28.364           30.901  iso=      27.059

 Orientation: 
  X           0.4026435    0.8980763    0.1770229
  Y           0.0966774   -0.2340338    0.9674098
  Z           0.9102372   -0.3724071   -0.1810559

 --------------
 Nucleus  80H :
 --------------

Diamagnetic contribution to the shielding tensor (ppm) : 
             9.482        -46.655       -15.511
           -30.184          8.267       -15.343
           -41.607         20.901        -4.409

Paramagnetic contribution to the shielding tensor (ppm): 
            16.601         45.874        13.664
            29.845         18.789        17.798
            40.951        -20.232        34.772

Total shielding tensor (ppm): 
            26.084         -0.782        -1.847
            -0.340         27.056         2.455
            -0.656          0.669        30.363


 Diagonalized sT*s matrix:
 
 sDSO           -14.123            8.873           18.590  iso=       4.447
 sPSO            39.846           17.568           12.749  iso=      23.387
        ---------------  ---------------  ---------------
 Total           25.723           26.440           31.339  iso=      27.834

 Orientation: 
  X           0.9665556   -0.0879665   -0.2408987
  Y           0.1706110    0.9218735    0.3479096
  Z           0.1914738   -0.3773740    0.9060500

 --------------
 Nucleus  81H :
 --------------

Diamagnetic contribution to the shielding tensor (ppm) : 
            27.528        -67.210       -13.139
           -25.560        -21.158       -19.356
            -1.215        -15.715       -53.689

Paramagnetic contribution to the shielding tensor (ppm): 
             5.033         63.182        12.716
            21.297         48.435        19.184
             0.500         13.769        78.398

Total shielding tensor (ppm): 
            32.561         -4.028        -0.423
            -4.264         27.278        -0.172
            -0.715         -1.946        24.709


 Diagonalized sT*s matrix:
 
 sDSO           -70.317          -32.356           55.355  iso=     -15.773
 sPSO            93.963           58.422          -20.519  iso=      43.955
        ---------------  ---------------  ---------------
 Total           23.646           26.067           34.835  iso=      28.182

 Orientation: 
  X           0.3146186    0.3622830   -0.8773632
  Y           0.5689042    0.6679300    0.4798099
  Z           0.7598441   -0.6500927    0.0040389



--------------------------------
CHEMICAL SHIELDING SUMMARY (ppm)
--------------------------------


  Nucleus  Element    Isotropic     Anisotropy
  -------  -------  ------------   ------------
      0       C           25.444        121.863 
      1       C           46.028         91.821 
      2       C           24.419        121.387 
      3       C           76.065        133.055 
      4       C           37.499        197.317 
      5       C           76.016        127.992 
      6       C          144.191         37.346 
      7       C          132.703         19.814 
      8       C          138.996         18.090 
      9       C          144.675         34.284 
     10       C           44.729        182.193 
     11       C           70.974        155.224 
     12       C           29.831        118.782 
     13       C           32.069        123.157 
     14       C           67.007        143.339 
     15       C           56.114        146.860 
     16       C          115.029         73.565 
     17       C          112.412         63.436 
     23       C           92.824         23.553 
     24       C          103.025         41.966 
     25       C           41.700        171.345 
     26       C          110.807         57.476 
     28       C           74.066        153.250 
     29       C           31.741        118.768 
     30       C           34.755        117.534 
     31       C           67.689        147.542 
     32       C           64.652        176.204 
     33       C          123.872         78.419 
     34       C          123.559         74.825 
     35       C          124.189         78.831 
     41       C          123.933         77.352 
     42       H           25.736          8.921 
     43       H           25.607          9.640 
     44       H           28.694          5.436 
     45       H           29.866          6.289 
     46       H           30.797          4.237 
     47       H           29.054          5.251 
     48       H           28.754          8.870 
     49       H           28.628          3.069 
     50       H           24.637         10.299 
     51       H           24.697          3.233 
     52       H           24.510          5.821 
     53       H           27.903          7.481 
     54       H           28.255          5.218 
     55       H           27.623          8.439 
     56       H           27.481          5.761 
     57       H           25.309         12.794 
     58       H           26.149          4.219 
     59       H           27.022          5.220 
     60       H           27.806          5.216 
     61       H           27.440          5.993 
     62       H           29.528         13.694 
     63       H           25.039          9.969 
     64       H           25.140          5.416 
     65       H           24.982          6.890 
     66       H           27.836          6.811 
     67       H           27.430          9.584 
     68       H           27.888          9.916 
     69       H           27.950          7.941 
     70       H           27.466          7.433 
     71       H           28.184          9.657 
     72       H           27.803          9.207 
     73       H           27.384          9.214 
     74       H           27.846          6.071 
     75       H           27.119         23.542 
     76       H           28.691         25.396 
     77       H           30.313         15.934 
     78       H           26.331         15.334 
     79       H           27.059          5.763 
     80       H           27.834          5.258 
     81       H           28.182          9.979 


NMR shielding tensor and spin rotation calculation done in   2.4 sec 

Maximum memory used throughout the entire PROP-calculation: 367.6 MB
[c03b01n02:3030530] 53 more processes have sent help message help-mpi-btl-openib.txt / error in device init
[c03b01n02:3030530] Set MCA parameter "orte_base_help_aggregate" to 0 to see all help / error messages
[c03b01n02:3030530] 5 more processes have sent help message help-mpi-btl-openib.txt / no active ports found
--------------------------------------------------------------------------
WARNING: There was an error initializing an OpenFabrics device.

  Local host:   c03b01n02
  Local device: mlx5_0
--------------------------------------------------------------------------
--------------------------------------------------------------------------
WARNING: There is at least one non-excluded one OpenFabrics device found,
but there are no active ports detected (or Open MPI was unable to use
them).  This is most certainly not what you wanted.  Check your
cables, subnet manager configuration, etc.  The openib BTL will be
ignored for this job.

  Local host: c03b01n02
--------------------------------------------------------------------------
[c03b01n02:3030974] 51 more processes have sent help message help-mpi-btl-openib.txt / error in device init
[c03b01n02:3030974] Set MCA parameter "orte_base_help_aggregate" to 0 to see all help / error messages
[c03b01n02:3030974] 7 more processes have sent help message help-mpi-btl-openib.txt / no active ports found

--------------------------------
SUGGESTED CITATIONS FOR THIS RUN
--------------------------------

Below you find a list of papers that are relevant to this ORCA run
We neither can nor want to force you to cite these papers, but we appreciate if you do
You receive ORCA, which is the product of decades of hard work by many enthusiastic individuals, for free
The only thing we kindly ask in return is that you cite our papers,
We deeply appreciate it, if you show your appreciation for ORCA by not just citing the generic ORCA reference.

Please note that relegating all ORCA citations to the supporting information does *not* help us.
SI sections are not indexed - citations you put there will not count into any citation statistics
But we need these citations in order to attract the funding resources that allow us to do what we are doing

Therefore, if you are a happy ORCA user, please consider citing a few of the papers listed below in the main body of your paper

In addition to the list printed below, the program has created the file nmr-conf-5.bibtex that contains the list in bibtex format
You can import this file easily into all common literature databanks and citation aid programs


List of essential papers. We consider these as the minimum necessary citations

  1. Neese, F.
     Software update: the ORCA program system, version 6.0
     WIRES Comput. Molec. Sci. 2025 15(1), e70019
     doi.org/10.1002/wcms.7019

List of papers to cite with high priority. The work reported in these papers was absolutely
necessary for this run to complete.
Our perspective: the developers of density functionals and basis sets usually get cited in chemistry papers
Good! But without the algorithms to do something with them, the functionals or basis sets would not do anything.
Hence, in our opinion, the algorithm design and method developments papers are equally worthy of getting cited

  1. Neese, F.
     An improvement of the resolution of the identity approximation for the formation of the Coulomb matrix
     J. Comp. Chem. 2003 24(14), 1740-1747
     doi.org/10.1002/jcc.10318
  2. Stoychev, G.L.; Auer, A.A.; Neese, F.
     Automatic Generation of Auxiliary Basis Sets
     J. Theo. Comp. Chem. 2017 13 , 554-562
     doi.org/10.1021/acs.jctc.6b01041
  3. Stoychev, G.L.; Auer, A.A.; Izsak, R.; Neese, F.
     Self-Consistent Field Calculation of Nuclear Magnetic Resonance Chemical Shielding Constants Using Gauge-Including Atomic Orbitals and Approximate Two-Electron Integrals
     J. Chem. Theory Comput. 2018 14(2), 619-637
     doi.org/10.1021/acs.jctc.7b01006
  4. Garcia-Rates, M.; Neese, F.
     Effect of the Solute Cavity on the Solvation Energy and its Derivatives within the Framework of the Gaussian Charge Scheme
     J. Comput. Chem. 2020 41 , 922-939
     doi.org/10.1002/jcc.26139
  5. Neese, F.
     The SHARK Integral Generation and Digestion System
     J. Comp. Chem. 2022 44(3), 381
     doi.org/10.1002/jcc.26942

List of suggested additional citations. These are papers that are important in the 'surrounding' of 
of this run, or papers that preceded the highly important papers. If you like your results we are grateful for a citation.

  1. Neese, F.
     The ORCA program system
     WIRES Comput. Molec. Sci. 2012 2(1), 73-78
     doi.org/10.1002/wcms.81
  2. Neese, F.
     Software update: the ORCA program system, version 4.0
     WIRES Comput. Molec. Sci. 2018 8(1), 1-6
     doi.org/10.1002/wcms.1327
  3. Neese, F.; Wennmohs, F.; Becker, U.; Riplinger, C.
     The ORCA quantum chemistry program package
     J. Chem. Phys. 2020 152(22), 224108
     doi.org/10.1063/5.0004608
  4. Neese, F.
     Software update: The ORCA program system—Version 5.0
     WIRES Comput. Molec. Sci. 2022 12(1), e1606
     doi.org/10.1002/wcms.1606

List of optional additional citations

  1. Neese, F.
     Approximate second-order SCF convergence for spin unrestricted wavefunctions
     Chem. Phys. Lett. 2000 325(1-3), 93-98
     doi.org/10.1016/s0009-2614(00)00662-x

Timings for individual modules:

Sum of individual times          ...      220.390 sec (=   3.673 min)
Startup calculation              ...       28.930 sec (=   0.482 min)  13.1 %
SCF iterations                   ...      120.854 sec (=   2.014 min)  54.8 %
Property integrals               ...       50.439 sec (=   0.841 min)  22.9 %
SCF Response                     ...       12.680 sec (=   0.211 min)   5.8 %
Property calculations            ...        7.486 sec (=   0.125 min)   3.4 %
                             ****ORCA TERMINATED NORMALLY****
TOTAL RUN TIME: 0 days 0 hours 3 minutes 46 seconds 210 msec
