 Entering Gaussian System, Link 0=/home/tupf/tupf_yangsy/lustre1/g16/Gaussian16_AVX2/g16/g16
 Input=58RR_6.gjf
 Output=58RR_6.log
 Initial command:
 /home/tupf/tupf_yangsy/lustre1/g16/Gaussian16_AVX2/g16/l1.exe "/home/tupf/tupf_yangsy/lustre1/g16/tmp/Gau-2489946.inp" -scrdir="/home/tupf/tupf_yangsy/lustre1/g16/tmp/"
 Entering Link 1 = /home/tupf/tupf_yangsy/lustre1/g16/Gaussian16_AVX2/g16/l1.exe PID=   2489947.
  
 Copyright (c) 1988-2021, Gaussian, Inc.  All Rights Reserved.
  
 This is part of the Gaussian(R) 16 program.  It is based on
 the Gaussian(R) 09 system (copyright 2009, Gaussian, Inc.),
 the Gaussian(R) 03 system (copyright 2003, Gaussian, Inc.),
 the Gaussian(R) 98 system (copyright 1998, Gaussian, Inc.),
 the Gaussian(R) 94 system (copyright 1995, Gaussian, Inc.),
 the Gaussian 92(TM) system (copyright 1992, Gaussian, Inc.),
 the Gaussian 90(TM) system (copyright 1990, Gaussian, Inc.),
 the Gaussian 88(TM) system (copyright 1988, Gaussian, Inc.),
 the Gaussian 86(TM) system (copyright 1986, Carnegie Mellon
 University), and the Gaussian 82(TM) system (copyright 1983,
 Carnegie Mellon University). Gaussian is a federally registered
 trademark of Gaussian, Inc.
  
 This software contains proprietary and confidential information,
 including trade secrets, belonging to Gaussian, Inc.
  
 This software is provided under written license and may be
 used, copied, transmitted, or stored only in accord with that
 written license.
  
 The following legend is applicable only to US Government
 contracts under FAR:
  
                    RESTRICTED RIGHTS LEGEND
  
 Use, reproduction and disclosure by the US Government is
 subject to restrictions as set forth in subparagraphs (a)
 and (c) of the Commercial Computer Software - Restricted
 Rights clause in FAR 52.227-19.
  
 Gaussian, Inc.
 340 Quinnipiac St., Bldg. 40, Wallingford CT 06492
  
  
 ---------------------------------------------------------------
 Warning -- This program may not be used in any manner that
 competes with the business of Gaussian, Inc. or will provide
 assistance to any competitor of Gaussian, Inc.  The licensee
 of this program is prohibited from giving any competitor of
 Gaussian, Inc. access to this program.  By using this program,
 the user acknowledges that Gaussian, Inc. is engaged in the
 business of creating and licensing software in the field of
 computational chemistry and represents and warrants to the
 licensee that it is not a competitor of Gaussian, Inc. and that
 it will not use this program in any manner prohibited above.
 ---------------------------------------------------------------
  

 Cite this work as:
 Gaussian 16, Revision C.02,
 M. J. Frisch, G. W. Trucks, H. B. Schlegel, G. E. Scuseria, 
 M. A. Robb, J. R. Cheeseman, G. Scalmani, V. Barone, 
 G. A. Petersson, H. Nakatsuji, X. Li, M. Caricato, A. V. Marenich, 
 J. Bloino, B. G. Janesko, R. Gomperts, B. Mennucci, H. P. Hratchian, 
 J. V. Ortiz, A. F. Izmaylov, J. L. Sonnenberg, D. Williams-Young, 
 F. Ding, F. Lipparini, F. Egidi, J. Goings, B. Peng, A. Petrone, 
 T. Henderson, D. Ranasinghe, V. G. Zakrzewski, J. Gao, N. Rega, 
 G. Zheng, W. Liang, M. Hada, M. Ehara, K. Toyota, R. Fukuda, 
 J. Hasegawa, M. Ishida, T. Nakajima, Y. Honda, O. Kitao, H. Nakai, 
 T. Vreven, K. Throssell, J. A. Montgomery, Jr., J. E. Peralta, 
 F. Ogliaro, M. J. Bearpark, J. J. Heyd, E. N. Brothers, K. N. Kudin, 
 V. N. Staroverov, T. A. Keith, R. Kobayashi, J. Normand, 
 K. Raghavachari, A. P. Rendell, J. C. Burant, S. S. Iyengar, 
 J. Tomasi, M. Cossi, J. M. Millam, M. Klene, C. Adamo, R. Cammi, 
 J. W. Ochterski, R. L. Martin, K. Morokuma, O. Farkas, 
 J. B. Foresman, and D. J. Fox, Gaussian, Inc., Wallingford CT, 2019.
 
 ******************************************
 Gaussian 16:  ES64L-G16RevC.02  7-Dec-2021
                25-Sep-2025 
 ******************************************
 %mem=400GB
 %nprocshared=64
 Will use up to   64 processors via shared memory.
 ---------------------------------------------------------------------
 # mPW1PW91/6-311+g(2d,p) NMR scrf(SMD,solvent=dmso) geom=connectivity
 ---------------------------------------------------------------------
 1/38=1,57=2,172=1/1;
 2/12=2,17=6,18=5,40=1/2;
 3/5=4,6=6,7=112,11=2,25=1,30=1,70=32201,72=21,74=-7/1,2,3,8;
 4//1;
 5/5=2,38=5,53=21/2;
 8/6=1,10=90,11=11/1;
 10/13=100,45=16/2;
 6/7=2,8=2,9=2,10=2,28=1/1;
 99/9=1/99;
 ----
 58RR
 ----
 Symbolic Z-matrix:
 Charge =  0 Multiplicity = 1
 C                     8.4463   -1.98648   1.58923 
 C                     7.65394  -1.96875   2.74457 
 C                     6.40382  -1.35586   2.69576 
 C                     5.90428  -0.76427   1.53113 
 C                     6.71843  -0.80382   0.38472 
 C                     7.98036  -1.40584   0.41064 
 C                     4.55317  -0.0865    1.49762 
 C                     4.46046   0.87708   0.30413 
 C                     4.97679   0.14723  -0.9396 
 O                     6.35235  -0.24137  -0.80478 
 C                     3.06501   1.40536   0.05979 
 C                     1.98756   0.54175  -0.15539 
 C                     0.68781   0.9908   -0.4274 
 C                     0.46718   2.38058  -0.48178 
 C                     1.52651   3.26338  -0.26205 
 C                     2.817     2.7833    0.00685 
 O                     9.68521  -2.56138   1.5597 
 O                     3.82211   3.68066   0.19999 
 O                    -3.52108  -2.66516  -1.42654 
 O                    -10.07028  -0.12156   2.51294 
 C                    -2.52844  -1.7687   -1.15919 
 C                    -1.30434  -1.91482  -1.82754 
 C                    -0.25074  -1.02752  -1.5978 
 C                    -0.41286   0.02977  -0.68257 
 C                    -1.65092   0.15339  -0.0358 
 C                    -2.72377  -0.71588  -0.25251 
 O                    -5.55283  -1.38024   2.18771 
 C                    -4.42388  -1.69356   1.35435 
 C                    -4.03086  -0.50083   0.47832 
 C                    -5.2079   -0.17902  -0.45941 
 C                    -7.8038   -0.7404    2.30188 
 C                    -6.60908  -0.76755   1.57541 
 C                    -6.51236  -0.16911   0.30597 
 C                    -7.65963   0.44708  -0.20373 
 C                    -8.86313   0.48086   0.49741 
 C                    -8.92819  -0.11689   1.76283 
 O                     1.39537   4.63392  -0.3535 
 C                     0.60997   5.23083   0.69693 
 O                    -0.77685   2.90893  -0.74368 
 C                    -1.10599   2.93242  -2.13942 
 O                     0.92846  -1.2311   -2.27808 
 C                     1.09962  -0.36538  -3.40875 
 O                    -1.23561  -2.94231  -2.74594 
 C                    -0.34365  -4.0134   -2.37837 
 H                     8.01664  -2.41999   3.66501 
 H                     5.79264  -1.32926   3.59512 
 H                     8.58967  -1.4192   -0.48695 
 H                     3.75621  -0.83785   1.42029 
 H                     4.37846   0.45582   2.434 
 H                     5.1303    1.72298   0.48467 
 H                     4.36949  -0.74664  -1.13708 
 H                     4.94516   0.79108  -1.82138 
 H                     2.16069  -0.52738  -0.12037 
 H                     9.87675  -2.92877   2.44047 
 H                     3.41296   4.56116   0.08067 
 H                    -3.15686  -3.26098  -2.1124 
 H                    -10.76883   0.33847   2.01517 
 H                    -1.78613   0.96983   0.66487 
 H                    -4.66581  -2.56627   0.73821 
 H                    -3.62231  -1.95972   2.04687 
 H                    -3.89093   0.34977   1.15606 
 H                    -5.24265  -0.92541  -1.26148 
 H                    -5.04513   0.79292  -0.9394 
 H                    -7.85017  -1.2077    3.27995 
 H                    -7.60361   0.92198  -1.1807 
 H                    -9.73813   0.96953   0.07574 
 H                    -0.4306    4.90441   0.62978 
 H                     1.01975   4.97158   1.68027 
 H                     0.67226   6.31079   0.54629 
 H                    -2.09369   3.39297  -2.21518 
 H                    -0.37788   3.531    -2.69975 
 H                    -1.14473   1.91913  -2.55462 
 H                     2.05002  -0.64563  -3.86871 
 H                     0.28636  -0.50564  -4.13082 
 H                     1.14063   0.68552  -3.10196 
 H                    -0.46521  -4.78509  -3.14158 
 H                     0.69072  -3.66187  -2.36443 
 H                    -0.61298  -4.42026  -1.39654 
 
 Stoichiometry    C34H34O10
 Framework group  C1[X(C34H34O10)]
 Deg. of freedom   228
 Full point group                 C1      NOp   1
 Largest Abelian subgroup         C1      NOp   1
 Largest concise Abelian subgroup C1      NOp   1
                         Standard orientation:                         
 ---------------------------------------------------------------------
 Center     Atomic      Atomic             Coordinates (Angstroms)
 Number     Number       Type             X           Y           Z
 ---------------------------------------------------------------------
      1          6           0       -8.446303   -1.986482   -1.589226
      2          6           0       -7.653940   -1.968746   -2.744568
      3          6           0       -6.403819   -1.355855   -2.695762
      4          6           0       -5.904277   -0.764269   -1.531127
      5          6           0       -6.718425   -0.803817   -0.384718
      6          6           0       -7.980362   -1.405840   -0.410636
      7          6           0       -4.553172   -0.086495   -1.497622
      8          6           0       -4.460462    0.877075   -0.304131
      9          6           0       -4.976790    0.147229    0.939598
     10          8           0       -6.352346   -0.241372    0.804778
     11          6           0       -3.065009    1.405361   -0.059791
     12          6           0       -1.987563    0.541749    0.155386
     13          6           0       -0.687807    0.990799    0.427398
     14          6           0       -0.467179    2.380581    0.481781
     15          6           0       -1.526514    3.263384    0.262053
     16          6           0       -2.816997    2.783295   -0.006848
     17          8           0       -9.685209   -2.561384   -1.559696
     18          8           0       -3.822113    3.680657   -0.199989
     19          8           0        3.521075   -2.665163    1.426541
     20          8           0       10.070277   -0.121561   -2.512943
     21          6           0        2.528443   -1.768695    1.159185
     22          6           0        1.304343   -1.914822    1.827536
     23          6           0        0.250739   -1.027522    1.597799
     24          6           0        0.412855    0.029770    0.682574
     25          6           0        1.650916    0.153393    0.035802
     26          6           0        2.723768   -0.715876    0.252513
     27          8           0        5.552833   -1.380242   -2.187710
     28          6           0        4.423879   -1.693556   -1.354354
     29          6           0        4.030856   -0.500826   -0.478319
     30          6           0        5.207896   -0.179016    0.459412
     31          6           0        7.803802   -0.740396   -2.301879
     32          6           0        6.609082   -0.767551   -1.575408
     33          6           0        6.512356   -0.169108   -0.305965
     34          6           0        7.659633    0.447075    0.203730
     35          6           0        8.863127    0.480856   -0.497410
     36          6           0        8.928188   -0.116894   -1.762833
     37          8           0       -1.395370    4.633924    0.353500
     38          6           0       -0.609974    5.230833   -0.696926
     39          8           0        0.776846    2.908930    0.743677
     40          6           0        1.105990    2.932415    2.139422
     41          8           0       -0.928458   -1.231095    2.278082
     42          6           0       -1.099624   -0.365375    3.408746
     43          8           0        1.235613   -2.942305    2.745935
     44          6           0        0.343654   -4.013405    2.378367
     45          1           0       -8.016642   -2.419993   -3.665009
     46          1           0       -5.792639   -1.329256   -3.595116
     47          1           0       -8.589674   -1.419200    0.486948
     48          1           0       -3.756208   -0.837847   -1.420285
     49          1           0       -4.378459    0.455823   -2.433995
     50          1           0       -5.130301    1.722983   -0.484673
     51          1           0       -4.369487   -0.746640    1.137082
     52          1           0       -4.945162    0.791082    1.821375
     53          1           0       -2.160688   -0.527380    0.120374
     54          1           0       -9.876746   -2.928769   -2.440469
     55          1           0       -3.412962    4.561155   -0.080667
     56          1           0        3.156862   -3.260978    2.112396
     57          1           0       10.768830    0.338473   -2.015172
     58          1           0        1.786126    0.969825   -0.664866
     59          1           0        4.665810   -2.566269   -0.738214
     60          1           0        3.622309   -1.959717   -2.046866
     61          1           0        3.890926    0.349766   -1.156058
     62          1           0        5.242650   -0.925412    1.261475
     63          1           0        5.045133    0.792917    0.939395
     64          1           0        7.850174   -1.207697   -3.279948
     65          1           0        7.603606    0.921982    1.180701
     66          1           0        9.738133    0.969528   -0.075736
     67          1           0        0.430601    4.904407   -0.629778
     68          1           0       -1.019750    4.971583   -1.680272
     69          1           0       -0.672258    6.310792   -0.546287
     70          1           0        2.093692    3.392969    2.215185
     71          1           0        0.377880    3.530998    2.699746
     72          1           0        1.144734    1.919128    2.554622
     73          1           0       -2.050015   -0.645628    3.868710
     74          1           0       -0.286355   -0.505642    4.130818
     75          1           0       -1.140629    0.685523    3.101957
     76          1           0        0.465208   -4.785092    3.141584
     77          1           0       -0.690715   -3.661873    2.364432
     78          1           0        0.612984   -4.420261    1.396539
 ---------------------------------------------------------------------
 Rotational constants (GHZ):           0.1241407           0.0292142           0.0273331
 Standard basis: 6-311+G(2d,p) (5D, 7F)
 There are  1480 symmetry adapted cartesian basis functions of A   symmetry.
 There are  1392 symmetry adapted basis functions of A   symmetry.
  1392 basis functions,  2120 primitive gaussians,  1480 cartesian basis functions
   159 alpha electrons      159 beta electrons
       nuclear repulsion energy      5175.0176755412 Hartrees.
 NAtoms=   78 NActive=   78 NUniq=   78 SFac= 1.00D+00 NAtFMM=   60 NAOKFM=T Big=T
 Integral buffers will be    131072 words long.
 Raffenetti 2 integral format.
 Two-electron integral symmetry is turned on.
 ------------------------------------------------------------------------------
 Polarizable Continuum Model (PCM)
 =================================
 Model                : PCM.
 Atomic radii         : SMD-Coulomb.
 Polarization charges : Total charges.
 Charge compensation  : None.
 Solution method      : On-the-fly selection.
 Cavity type          : VdW (van der Waals Surface) (Alpha=1.000).
 Cavity algorithm     : GePol (No added spheres)
                        Default sphere list used, NSphG=   78.
                        Lebedev-Laikov grids with approx.  5.0 points / Ang**2.
                        Smoothing algorithm: York/Karplus (Gamma=1.0000).
                        Polarization charges: spherical gaussians, with
                                              point-specific exponents (IZeta= 3).
                        Self-potential: point-specific (ISelfS= 7).
                        Self-field    : sphere-specific E.n sum rule (ISelfD= 2).
 Solvent              : DiMethylSulfoxide, Eps=  46.826000 Eps(inf)=   2.185371
 ------------------------------------------------------------------------------
 ------------------------------------------------------------------------------
 Atomic radii for non-electrostatic terms: SMD-CDS.
 ------------------------------------------------------------------------------
 Nuclear repulsion after PCM non-electrostatic terms =     5175.0131042240 Hartrees.
 One-electron integrals computed using PRISM.
 NBasis=  1392 RedAO= T EigKep=  1.04D-06  NBF=  1392
 NBsUse=  1379 1.00D-06 EigRej=  8.91D-07 NBFU=  1379
 ExpMin= 4.38D-02 ExpMax= 8.59D+03 ExpMxC= 1.30D+03 IAcc=3 IRadAn=         5 AccDes= 0.00D+00
 Harris functional with IExCor=  908 and IRadAn=       5 diagonalized for initial guess.
 HarFok:  IExCor=  908 AccDes= 0.00D+00 IRadAn=         5 IDoV= 1 UseB2=F ITyADJ=14
 ICtDFT=  3500011 ScaDFX=  1.000000  1.000000  1.000000  1.000000
 FoFCou: FMM=F IPFlag=           0 FMFlag=      100000 FMFlg1=        2001
         NFxFlg=           0 DoJE=T BraDBF=F KetDBF=T FulRan=T
         wScrn=  0.000000 ICntrl=       500 IOpCl=  0 I1Cent=   200000004 NGrid=           0
         NMat0=    1 NMatS0=      1 NMatT0=    0 NMatD0=    1 NMtDS0=    0 NMtDT0=    0
 Petite list used in FoFCou.
 Requested convergence on RMS density matrix=1.00D-08 within 128 cycles.
 Requested convergence on MAX density matrix=1.00D-06.
 Requested convergence on             energy=1.00D-06.
 No special actions if energy rises.
 Inv3:  Mode=1 IEnd=    96719052.
 Iteration    1 A*A^-1 deviation from unit magnitude is 3.33D-15 for   2833.
 Iteration    1 A*A^-1 deviation from orthogonality  is 4.00D-15 for   4302   1741.
 Iteration    1 A^-1*A deviation from unit magnitude is 3.22D-15 for   2327.
 Iteration    1 A^-1*A deviation from orthogonality  is 9.88D-15 for   2940   2879.
 Error on total polarization charges =  0.04986
 SCF Done:  E(RmPW1PW91) =  -2068.42465816     A.U. after   14 cycles
            NFock= 14  Conv=0.27D-08     -V/T= 2.0043
 SMD-CDS (non-electrostatic) energy       (kcal/mol) =      -2.87
 (included in total energy above)
 DoSCS=F DFT=T ScalE2(SS,OS)=  1.000000  1.000000
 Range of M.O.s used for correlation:     1  1379
 NBasis=  1392 NAE=   159 NBE=   159 NFC=     0 NFV=     0
 NROrb=   1379 NOA=   159 NOB=   159 NVA=  1220 NVB=  1220

 **** Warning!!: The largest alpha MO coefficient is  0.10370453D+03

 NEqPCM:  Using equilibrium solvation (IEInf=0, Eps=  46.8260, EpsInf=   2.1854)
          Differentiating once with respect to magnetic field using GIAOs.
          Electric field/nuclear overlap derivatives assumed to be zero.
 FoFJK:  IHMeth= 1 ICntrl=    6127 DoSepK=F KAlg= 0 I1Cent=           0 FoldK=F
 IRaf=         1 NMat=       1 IRICut=       1 DoRegI=T DoRafI=F ISym2E= 0 IDoP0=0 IntGTp=1.
          There are     3 degrees of freedom in the 1st order CPHF.  IDoFFX=0 NUNeed=     3.
      3 vectors produced by pass  0 Test12= 6.47D-12 3.33D-08 XBig12= 3.04D+03 7.59D+00.
 AX will form     3 AO Fock derivatives at one time.
      3 vectors produced by pass  1 Test12= 6.47D-12 3.33D-08 XBig12= 9.89D+00 5.99D-01.
      3 vectors produced by pass  2 Test12= 6.47D-12 3.33D-08 XBig12= 5.80D-02 5.28D-02.
      3 vectors produced by pass  3 Test12= 6.47D-12 3.33D-08 XBig12= 2.02D-04 2.15D-03.
      3 vectors produced by pass  4 Test12= 6.47D-12 3.33D-08 XBig12= 6.04D-07 1.05D-04.
      3 vectors produced by pass  5 Test12= 6.47D-12 3.33D-08 XBig12= 2.32D-09 8.03D-06.
      3 vectors produced by pass  6 Test12= 6.47D-12 3.33D-08 XBig12= 1.02D-11 5.38D-07.
      1 vectors produced by pass  7 Test12= 6.47D-12 3.33D-08 XBig12= 4.77D-14 3.40D-08.
 InvSVY:  IOpt=1 It=  1 EMax= 7.11D-15
 Solved reduced A of dimension    22 with     3 vectors.
 Calculating GIAO nuclear magnetic shielding tensors.
 SCF GIAO Magnetic shielding tensor (ppm):
      1  C    Isotropic =    24.0671   Anisotropy =   139.4692
   XX=   -30.8509   YX=   -67.3051   ZX=     8.7681
   XY=   -65.4064   YY=    78.1540   ZY=   -25.3832
   XZ=    11.2472   YZ=   -23.4067   ZZ=    24.8982
   Eigenvalues:   -62.2410    17.3957   117.0465
      2  C    Isotropic =    77.3410   Anisotropy =   125.2445
   XX=    79.5188   YX=   -43.8554   ZX=   -17.1676
   XY=   -42.2546   YY=   126.9787   ZY=   -45.0636
   XZ=   -10.3043   YZ=   -46.1953   ZZ=    25.5255
   Eigenvalues:    -2.7800    73.9657   160.8373
      3  C    Isotropic =    50.8414   Anisotropy =   169.3846
   XX=    28.8192   YX=   -48.0309   ZX=    51.0226
   XY=   -42.5477   YY=   136.6763   ZY=   -24.3011
   XZ=    58.3673   YZ=   -24.7202   ZZ=   -12.9713
   Eigenvalues:   -50.8091    39.5689   163.7645
      4  C    Isotropic =    66.2022   Anisotropy =   160.0595
   XX=    26.7535   YX=   -62.7463   ZX=    30.0509
   XY=   -71.8329   YY=   125.4389   ZY=   -39.9788
   XZ=    13.6053   YZ=   -30.0791   ZZ=    46.4141
   Eigenvalues:    -7.6469    33.3449   172.9085
      5  C    Isotropic =    24.2782   Anisotropy =   139.9742
   XX=    22.8045   YX=   -47.4140   ZX=    -6.4205
   XY=   -45.8709   YY=    80.9564   ZY=   -49.1479
   XZ=   -14.5104   YZ=   -50.9730   ZZ=   -30.9264
   Eigenvalues:   -59.6791    14.9193   117.5943
      6  C    Isotropic =    81.4377   Anisotropy =   113.9864
   XX=    68.4061   YX=   -30.9253   ZX=    35.4046
   XY=   -33.9066   YY=   135.8303   ZY=   -18.6093
   XZ=    35.4524   YZ=   -19.1917   ZZ=    40.0767
   Eigenvalues:    16.0233    70.8611   157.4286
      7  C    Isotropic =   152.6144   Anisotropy =    25.3197
   XX=   156.5059   YX=     8.1054   ZX=    11.1250
   XY=     3.5855   YY=   151.7202   ZY=     6.7698
   XZ=     9.6666   YZ=    10.3305   ZZ=   149.6171
   Eigenvalues:   140.4176   147.9313   169.4942
      8  C    Isotropic =   154.0120   Anisotropy =    16.4108
   XX=   164.4135   YX=     3.8237   ZX=     1.3185
   XY=    -7.7160   YY=   141.3145   ZY=    -2.5924
   XZ=     1.8344   YZ=    -2.3993   ZZ=   156.3081
   Eigenvalues:   140.7910   156.2926   164.9526
      9  C    Isotropic =   113.7687   Anisotropy =    66.5597
   XX=   152.8004   YX=    14.1120   ZX=     4.8775
   XY=    21.5324   YY=    98.4394   ZY=    -2.8977
   XZ=     1.8013   YZ=   -11.4861   ZZ=    90.0663
   Eigenvalues:    83.5878    99.5765   158.1418
     10  O    Isotropic =   202.3107   Anisotropy =   103.7040
   XX=   148.6340   YX=   -45.6075   ZX=   -20.3106
   XY=   -51.9922   YY=   252.0504   ZY=    20.0815
   XZ=    28.6432   YZ=   -15.5619   ZZ=   206.2477
   Eigenvalues:   128.9560   206.5294   271.4467
     11  C    Isotropic =    58.4531   Anisotropy =   156.1131
   XX=     4.7474   YX=   -18.4475   ZX=   -31.3551
   XY=    -0.7426   YY=    15.3468   ZY=     0.2716
   XZ=   -36.0260   YZ=     2.0198   ZZ=   155.2650
   Eigenvalues:    -6.3190    19.1498   162.5284
     12  C    Isotropic =    54.9701   Anisotropy =   170.8458
   XX=    41.4473   YX=   -16.0600   ZX=   -26.4106
   XY=   -11.8396   YY=   -40.3809   ZY=    -5.7560
   XZ=   -23.8331   YZ=    -7.3901   ZZ=   163.8440
   Eigenvalues:   -43.2530    39.2960   168.8673
     13  C    Isotropic =    58.5771   Anisotropy =   146.8460
   XX=    11.9552   YX=    35.5054   ZX=   -33.2991
   XY=    17.3962   YY=    15.1581   ZY=     3.4373
   XZ=   -34.0737   YZ=    10.4334   ZZ=   148.6181
   Eigenvalues:   -18.2587    37.5156   156.4745
     14  C    Isotropic =    31.1392   Anisotropy =   115.9154
   XX=   -11.3408   YX=    -7.6344   ZX=   -30.6143
   XY=   -24.2785   YY=     5.4908   ZY=   -10.9176
   XZ=   -35.5603   YZ=     0.4347   ZZ=    99.2677
   Eigenvalues:   -28.7124    13.7139   108.4162
     15  C    Isotropic =    41.2211   Anisotropy =   106.5868
   XX=    20.2023   YX=    -7.8633   ZX=   -19.7810
   XY=    -6.3424   YY=    -3.6670   ZY=    -1.0449
   XZ=   -21.6868   YZ=   -17.0702   ZZ=   107.1280
   Eigenvalues:    -7.5631    18.9474   112.2789
     16  C    Isotropic =    33.1933   Anisotropy =   127.0118
   XX=    -5.2230   YX=    18.6927   ZX=   -23.5999
   XY=    30.5060   YY=    -8.4637   ZY=     4.4390
   XZ=   -23.9771   YZ=     3.7087   ZZ=   113.2666
   Eigenvalues:   -34.0782    15.7903   117.8678
     17  O    Isotropic =   212.6032   Anisotropy =    64.5539
   XX=   248.1938   YX=    14.0396   ZX=     8.8225
   XY=    14.8944   YY=   226.4063   ZY=   -15.2811
   XZ=    14.7011   YZ=   -12.2231   ZZ=   163.2094
   Eigenvalues:   157.9768   224.1937   255.6391
     18  O    Isotropic =   228.8658   Anisotropy =   110.0829
   XX=   200.3938   YX=    -1.8907   ZX=   -22.3012
   XY=   -40.8023   YY=   188.0715   ZY=   -11.9127
   XZ=   -12.7071   YZ=   -17.5370   ZZ=   298.1321
   Eigenvalues:   168.1756   216.1674   302.2544
     19  O    Isotropic =   227.1187   Anisotropy =   107.4315
   XX=   207.0459   YX=    25.2203   ZX=    22.4538
   XY=   -14.1228   YY=   232.4978   ZY=    63.3188
   XZ=    46.1467   YZ=    40.3488   ZZ=   241.8123
   Eigenvalues:   172.0535   210.5629   298.7397
     20  O    Isotropic =   212.6265   Anisotropy =    64.8742
   XX=   236.4415   YX=   -14.1380   ZX=   -36.9299
   XY=   -10.0271   YY=   207.5969   ZY=   -27.0931
   XZ=   -32.2617   YZ=   -24.4894   ZZ=   193.8412
   Eigenvalues:   158.1714   223.8321   255.8760
     21  C    Isotropic =    32.2761   Anisotropy =   125.6259
   XX=     2.5645   YX=    38.1474   ZX=    19.3770
   XY=    48.5044   YY=    25.3855   ZY=    51.1630
   XZ=    12.9131   YZ=    51.8036   ZZ=    68.8783
   Eigenvalues:   -35.3421    16.1437   116.0266
     22  C    Isotropic =    40.7382   Anisotropy =   107.7886
   XX=    29.0301   YX=    12.7885   ZX=    28.2661
   XY=    16.4461   YY=    42.0270   ZY=    47.2949
   XZ=    28.2315   YZ=    61.6378   ZZ=    51.1576
   Eigenvalues:   -10.3274    19.9449   112.5973
     23  C    Isotropic =    30.6080   Anisotropy =   116.6688
   XX=    -2.7044   YX=    20.6099   ZX=    40.2778
   XY=    10.4619   YY=    44.3509   ZY=    50.3154
   XZ=    50.7140   YZ=    35.9224   ZZ=    50.1774
   Eigenvalues:   -30.0544    13.4912   108.3872
     24  C    Isotropic =    58.1855   Anisotropy =   146.6833
   XX=    19.6349   YX=    56.2937   ZX=    19.3004
   XY=    43.5363   YY=    55.1318   ZY=    59.9117
   XZ=    30.7402   YZ=    52.3045   ZZ=    99.7899
   Eigenvalues:   -17.2955    35.8776   155.9744
     25  C    Isotropic =    53.0430   Anisotropy =   146.5878
   XX=    59.6918   YX=     9.7475   ZX=    32.5283
   XY=    15.6343   YY=    35.3271   ZY=    85.0285
   XZ=    32.9437   YZ=    90.3817   ZZ=    64.1101
   Eigenvalues:   -40.5689    48.9297   150.7682
     26  C    Isotropic =    59.0647   Anisotropy =   155.9185
   XX=    18.4426   YX=    14.6562   ZX=    54.6029
   XY=    30.9259   YY=    68.8229   ZY=    59.2473
   XZ=    41.7831   YZ=    69.2983   ZZ=    89.9287
   Eigenvalues:    -7.6878    21.8715   163.0104
     27  O    Isotropic =   208.3707   Anisotropy =    98.7391
   XX=   176.1776   YX=   -18.1458   ZX=    50.3526
   XY=   -13.5869   YY=   247.8400   ZY=   -48.5824
   XZ=    66.6461   YZ=     7.2397   ZZ=   201.0946
   Eigenvalues:   128.8208   222.0946   274.1968
     28  C    Isotropic =   116.5827   Anisotropy =    62.3442
   XX=   134.8041   YX=    13.3299   ZX=   -33.2615
   XY=     4.6503   YY=   102.7161   ZY=    -5.5979
   XZ=   -28.2810   YZ=    -4.0511   ZZ=   112.2280
   Eigenvalues:    90.6051   100.9976   158.1455
     29  C    Isotropic =   143.0652   Anisotropy =    32.0096
   XX=   144.5135   YX=     0.5816   ZX=   -10.5041
   XY=     7.8905   YY=   142.9209   ZY=   -14.9960
   XZ=   -19.7107   YZ=    -8.8941   ZZ=   141.7611
   Eigenvalues:   125.3786   139.4120   164.4049
     30  C    Isotropic =   155.7684   Anisotropy =    21.2390
   XX=   169.4441   YX=     1.7762   ZX=     1.8058
   XY=     4.4696   YY=   149.4895   ZY=     1.3865
   XZ=    -3.1326   YZ=     2.4570   ZZ=   148.3715
   Eigenvalues:   146.6631   150.7144   169.9277
     31  C    Isotropic =    81.4878   Anisotropy =   114.0351
   XX=    77.0344   YX=   -19.5164   ZX=    14.0163
   XY=   -18.0387   YY=   124.8660   ZY=   -54.6000
   XZ=    11.7396   YZ=   -52.3617   ZZ=    42.5628
   Eigenvalues:    16.0479    70.9042   157.5112
     32  C    Isotropic =    24.1417   Anisotropy =   139.5595
   XX=   -25.2551   YX=   -50.3998   ZX=    -7.7198
   XY=   -53.9157   YY=    76.1094   ZY=   -46.4959
   XZ=   -13.1174   YZ=   -52.4377   ZZ=    21.5708
   Eigenvalues:   -59.2198    14.4636   117.1814
     33  C    Isotropic =    66.8362   Anisotropy =   159.2474
   XX=    12.8946   YX=   -30.1995   ZX=    40.3282
   XY=   -21.7728   YY=   143.2759   ZY=   -43.4935
   XZ=    25.9257   YZ=   -57.2350   ZZ=    44.3382
   Eigenvalues:    -8.2786    35.7861   173.0012
     34  C    Isotropic =    50.6065   Anisotropy =   169.1185
   XX=    50.1926   YX=   -28.6885   ZX=    18.2397
   XY=   -29.2337   YY=   112.8594   ZY=   -81.6029
   XZ=    26.0073   YZ=   -78.3609   ZZ=   -11.2326
   Eigenvalues:   -50.9487    39.4160   163.3522
     35  C    Isotropic =    77.0128   Anisotropy =   124.7697
   XX=    29.6961   YX=   -49.5873   ZX=   -15.3777
   XY=   -48.5734   YY=   121.6910   ZY=   -46.4099
   XZ=   -10.1228   YZ=   -42.9120   ZZ=    79.6513
   Eigenvalues:    -3.2795    74.1253   160.1925
     36  C    Isotropic =    24.0908   Anisotropy =   139.4982
   XX=   -33.0458   YX=   -25.3680   ZX=    45.0631
   XY=   -23.8877   YY=    92.3149   ZY=   -35.4381
   XZ=    48.4207   YZ=   -35.4007   ZZ=    13.0035
   Eigenvalues:   -62.1617    17.3446   117.0896
     37  O    Isotropic =   279.9875   Anisotropy =    96.8653
   XX=   220.3310   YX=   -18.5937   ZX=    -7.0920
   XY=   -10.2644   YY=   287.4906   ZY=    20.3258
   XZ=   -36.7564   YZ=    18.1196   ZZ=   332.1410
   Eigenvalues:   214.5579   280.8403   344.5644
     38  C    Isotropic =   124.5886   Anisotropy =    93.9866
   XX=   115.3484   YX=    25.8534   ZX=   -36.1454
   XY=    21.1767   YY=   118.5277   ZY=   -29.9644
   XZ=   -34.7106   YZ=   -32.2940   ZZ=   139.8897
   Eigenvalues:    89.9799    96.5396   187.2463
     39  O    Isotropic =   277.2160   Anisotropy =    93.2083
   XX=   276.1137   YX=    22.1256   ZX=   -35.4422
   XY=    27.9468   YY=   226.1142   ZY=     5.9085
   XZ=   -12.9966   YZ=    -3.2440   ZZ=   329.4199
   Eigenvalues:   214.7115   277.5816   339.3548
     40  C    Isotropic =   126.2419   Anisotropy =    86.1306
   XX=   107.4918   YX=     3.2604   ZX=    22.2037
   XY=    -0.1069   YY=    95.9386   ZY=     5.8909
   XZ=    26.2717   YZ=     8.2577   ZZ=   175.2953
   Eigenvalues:    95.2483    99.8152   183.6623
     41  O    Isotropic =   276.4668   Anisotropy =    96.7949
   XX=   278.3223   YX=    47.7415   ZX=    20.5133
   XY=    35.4408   YY=   259.2324   ZY=    39.0476
   XZ=    -2.7336   YZ=    51.0148   ZZ=   291.8457
   Eigenvalues:   212.8638   275.5398   340.9967
     42  C    Isotropic =   126.3609   Anisotropy =    85.9262
   XX=   103.0483   YX=    -6.5395   ZX=   -12.1353
   XY=   -10.8510   YY=   120.8292   ZY=    40.6380
   XZ=   -12.8780   YZ=    37.6500   ZZ=   155.2051
   Eigenvalues:    95.2276   100.2100   183.6450
     43  O    Isotropic =   281.7654   Anisotropy =    99.1335
   XX=   230.9628   YX=    -3.5908   ZX=    31.7461
   XY=    21.0902   YY=   286.9659   ZY=    13.7228
   XZ=    50.0611   YZ=    18.7212   ZZ=   327.3673
   Eigenvalues:   215.8462   281.5955   347.8544
     44  C    Isotropic =   124.5659   Anisotropy =    94.1507
   XX=   123.0479   YX=    46.3765   ZX=    11.4156
   XY=    41.5429   YY=   152.1726   ZY=    11.6561
   XZ=    13.2852   YZ=    13.4552   ZZ=    98.4774
   Eigenvalues:    89.9620    96.4027   187.3331
     45  H    Isotropic =    24.9873   Anisotropy =     4.5325
   XX=    26.8867   YX=     2.0387   ZX=    -1.4830
   XY=     2.4197   YY=    22.6468   ZY=     0.6953
   XZ=    -0.5682   YZ=     0.9004   ZZ=    25.4285
   Eigenvalues:    21.3670    25.5860    28.0090
     46  H    Isotropic =    24.2227   Anisotropy =     8.2402
   XX=    25.6176   YX=     3.0835   ZX=     2.9698
   XY=     2.9054   YY=    22.3094   ZY=     2.1163
   XZ=     2.3159   YZ=     2.2853   ZZ=    24.7411
   Eigenvalues:    20.4277    22.5242    29.7161
     47  H    Isotropic =    24.9116   Anisotropy =     6.8570
   XX=    27.1020   YX=     3.0666   ZX=     1.2847
   XY=     3.2449   YY=    23.0990   ZY=     1.6556
   XZ=     1.0158   YZ=     1.5149   ZZ=    24.5337
   Eigenvalues:    21.1309    24.1209    29.4829
     48  H    Isotropic =    28.6617   Anisotropy =     8.3668
   XX=    33.4063   YX=    -1.4520   ZX=     1.1378
   XY=    -2.5068   YY=    27.2245   ZY=     2.2932
   XZ=     3.4312   YZ=     3.6345   ZZ=    25.3543
   Eigenvalues:    22.3593    29.3862    34.2396
     49  H    Isotropic =    28.7946   Anisotropy =     7.5557
   XX=    26.1263   YX=     2.0989   ZX=     0.1779
   XY=     4.0102   YY=    26.5920   ZY=    -1.6057
   XZ=     1.9055   YZ=    -0.0037   ZZ=    33.6655
   Eigenvalues:    23.1325    29.4196    33.8318
     50  H    Isotropic =    27.9611   Anisotropy =     9.1718
   XX=    27.5614   YX=    -1.1403   ZX=     1.0192
   XY=     0.9505   YY=    34.0736   ZY=     0.6685
   XZ=     1.1985   YZ=    -0.7992   ZZ=    22.2482
   Eigenvalues:    22.0259    27.7817    34.0756
     51  H    Isotropic =    27.5640   Anisotropy =     9.0477
   XX=    32.8185   YX=    -0.9199   ZX=     2.5012
   XY=     0.4851   YY=    24.8747   ZY=    -3.6943
   XZ=     1.8499   YZ=    -4.4105   ZZ=    24.9990
   Eigenvalues:    20.7237    28.3725    33.5959
     52  H    Isotropic =    27.4143   Anisotropy =     4.5808
   XX=    29.0977   YX=     3.0519   ZX=     0.3035
   XY=     1.8983   YY=    24.2676   ZY=     2.3632
   XZ=    -2.8279   YZ=     0.4753   ZZ=    28.8775
   Eigenvalues:    22.6971    29.0776    30.4681
     53  H    Isotropic =    24.0672   Anisotropy =    14.7076
   XX=    31.7136   YX=    -2.7098   ZX=     3.6415
   XY=    -1.2193   YY=    19.6379   ZY=    -1.1102
   XZ=     5.8883   YZ=    -1.3824   ZZ=    20.8499
   Eigenvalues:    18.6838    19.6454    33.8722
     54  H    Isotropic =    27.0280   Anisotropy =    13.6429
   XX=    26.9157   YX=     4.8974   ZX=     3.7619
   XY=     4.2171   YY=    22.5887   ZY=     5.7326
   XZ=     1.5597   YZ=     4.6836   ZZ=    31.5797
   Eigenvalues:    18.8544    26.1063    36.1233
     55  H    Isotropic =    25.2932   Anisotropy =    15.0305
   XX=    29.0794   YX=     2.8373   ZX=     2.8268
   XY=     5.2138   YY=    32.3180   ZY=     1.5237
   XZ=     1.8192   YZ=     1.1007   ZZ=    14.4822
   Eigenvalues:    14.0945    26.4716    35.3135
     56  H    Isotropic =    25.3794   Anisotropy =    16.0394
   XX=    28.3721   YX=    -0.3894   ZX=    -5.7462
   XY=     2.0369   YY=    23.6950   ZY=    -8.9112
   XZ=    -6.1604   YZ=    -8.8857   ZZ=    24.0710
   Eigenvalues:    14.0079    26.0580    36.0723
     57  H    Isotropic =    27.0318   Anisotropy =    13.5790
   XX=    33.1691   YX=     5.7105   ZX=     2.6678
   XY=     4.6612   YY=    22.3797   ZY=     4.1589
   XZ=     0.4636   YZ=     3.4527   ZZ=    25.5466
   Eigenvalues:    18.8828    26.1282    36.0845
     58  H    Isotropic =    23.9505   Anisotropy =    12.4477
   XX=    28.9973   YX=    -4.0696   ZX=    -1.9983
   XY=    -4.7953   YY=    22.8156   ZY=     0.8307
   XZ=    -4.4065   YZ=     1.5223   ZZ=    20.0385
   Eigenvalues:    18.9833    20.6192    32.2489
     59  H    Isotropic =    26.8454   Anisotropy =     8.4660
   XX=    24.9871   YX=     1.5276   ZX=    -5.5320
   XY=     0.0810   YY=    29.0022   ZY=    -1.5364
   XZ=    -5.6602   YZ=    -2.1684   ZZ=    26.5469
   Eigenvalues:    20.0736    27.9731    32.4894
     60  H    Isotropic =    27.4410   Anisotropy =     4.2029
   XX=    29.5131   YX=     2.0887   ZX=     0.6894
   XY=     0.9854   YY=    24.1080   ZY=     2.8023
   XZ=    -2.6574   YZ=     2.9186   ZZ=    28.7020
   Eigenvalues:    22.2823    29.7979    30.2430
     61  H    Isotropic =    28.4314   Anisotropy =     7.4108
   XX=    30.3009   YX=    -2.2947   ZX=    -0.6211
   XY=    -4.6290   YY=    28.3551   ZY=    -3.0892
   XZ=     0.1257   YZ=    -2.9398   ZZ=    26.6381
   Eigenvalues:    23.4742    28.4480    33.3719
     62  H    Isotropic =    28.0138   Anisotropy =     7.9105
   XX=    29.6343   YX=     1.8625   ZX=    -0.8804
   XY=     4.7802   YY=    25.5158   ZY=    -4.8825
   XZ=     0.5640   YZ=    -3.9641   ZZ=    28.8913
   Eigenvalues:    21.5584    29.1954    33.2875
     63  H    Isotropic =    28.7998   Anisotropy =     6.5622
   XX=    30.8293   YX=     0.2494   ZX=    -1.2512
   XY=     0.8654   YY=    30.3998   ZY=     4.8887
   XZ=     1.0311   YZ=     4.3586   ZZ=    25.1704
   Eigenvalues:    22.4565    30.7684    33.1747
     64  H    Isotropic =    24.9196   Anisotropy =     6.7683
   XX=    28.8377   YX=     1.5943   ZX=    -1.3712
   XY=     1.3097   YY=    22.1415   ZY=     1.1092
   XZ=    -1.6154   YZ=     0.8595   ZZ=    23.7795
   Eigenvalues:    21.1729    24.1540    29.4318
     65  H    Isotropic =    24.1986   Anisotropy =     8.2594
   XX=    28.9130   YX=     2.4679   ZX=    -0.0570
   XY=     2.5407   YY=    21.7716   ZY=     1.1641
   XZ=    -0.6961   YZ=     0.5729   ZZ=    21.9111
   Eigenvalues:    20.3956    22.4952    29.7049
     66  H    Isotropic =    24.9592   Anisotropy =     4.5463
   XX=    26.4523   YX=     0.4772   ZX=    -2.0298
   XY=     0.8502   YY=    22.4095   ZY=     1.5803
   XZ=    -1.2660   YZ=     1.9434   ZZ=    26.0157
   Eigenvalues:    21.3717    25.5158    27.9900
     67  H    Isotropic =    26.9970   Anisotropy =     7.3654
   XX=    29.8090   YX=     0.0323   ZX=    -0.5948
   XY=     1.1462   YY=    26.9460   ZY=    -3.6324
   XZ=    -4.1157   YZ=    -4.8654   ZZ=    24.2360
   Eigenvalues:    20.8498    28.2338    31.9072
     68  H    Isotropic =    28.0856   Anisotropy =     9.1935
   XX=    26.4270   YX=     1.0440   ZX=    -2.2542
   XY=     0.8064   YY=    25.9024   ZY=    -3.9032
   XZ=     0.0152   YZ=    -4.1832   ZZ=    31.9272
   Eigenvalues:    23.8289    26.2133    34.2145
     69  H    Isotropic =    27.6166   Anisotropy =     9.9941
   XX=    25.6938   YX=     3.0942   ZX=    -1.0710
   XY=     0.9526   YY=    32.5025   ZY=    -1.4640
   XZ=    -1.3910   YZ=    -4.9655   ZZ=    24.6536
   Eigenvalues:    23.3773    25.1932    34.2794
     70  H    Isotropic =    28.0976   Anisotropy =     9.2502
   XX=    29.5638   YX=     2.4397   ZX=     2.2687
   XY=     1.3454   YY=    27.1844   ZY=     1.2958
   XZ=     6.1561   YZ=     3.9391   ZZ=    27.5446
   Eigenvalues:    23.8741    26.1544    34.2644
     71  H    Isotropic =    28.3199   Anisotropy =     8.7177
   XX=    24.9507   YX=    -0.8324   ZX=     1.1268
   XY=    -1.8834   YY=    27.7751   ZY=     1.7109
   XZ=     0.5245   YZ=     5.2343   ZZ=    32.2339
   Eigenvalues:    23.7602    27.0678    34.1317
     72  H    Isotropic =    28.4097   Anisotropy =     4.5565
   XX=    24.4258   YX=     0.5353   ZX=     2.0595
   XY=    -0.8261   YY=    30.4453   ZY=     1.0105
   XZ=     3.2358   YZ=    -0.2979   ZZ=    30.3581
   Eigenvalues:    23.4062    30.3756    31.4474
     73  H    Isotropic =    28.1321   Anisotropy =     8.9243
   XX=    28.4632   YX=     0.2239   ZX=    -2.6932
   XY=    -2.5726   YY=    24.7743   ZY=     1.4061
   XZ=    -5.3120   YZ=    -1.4719   ZZ=    31.1588
   Eigenvalues:    24.0960    26.2187    34.0816
     74  H    Isotropic =    28.3667   Anisotropy =     8.7949
   XX=    25.1151   YX=    -1.2729   ZX=     0.9867
   XY=    -1.1730   YY=    26.2505   ZY=     3.3557
   XZ=     1.9101   YZ=    -0.0874   ZZ=    33.7346
   Eigenvalues:    23.8817    26.9885    34.2300
     75  H    Isotropic =    28.4966   Anisotropy =     4.3989
   XX=    24.0335   YX=    -0.3496   ZX=    -0.8791
   XY=    -2.2432   YY=    30.2402   ZY=    -0.3978
   XZ=    -0.9631   YZ=     0.6901   ZZ=    31.2161
   Eigenvalues:    23.6720    30.3885    31.4292
     76  H    Isotropic =    27.6485   Anisotropy =     9.9075
   XX=    26.0085   YX=     3.2699   ZX=    -1.3950
   XY=     1.3776   YY=    32.3975   ZY=    -4.8672
   XZ=     0.3130   YZ=    -1.6468   ZZ=    24.5395
   Eigenvalues:    23.3285    25.3635    34.2535
     77  H    Isotropic =    27.0451   Anisotropy =     7.3456
   XX=    30.5248   YX=     0.3079   ZX=    -0.5635
   XY=     3.2344   YY=    29.7278   ZY=    -1.3028
   XZ=     1.6052   YZ=     0.2172   ZZ=    20.8826
   Eigenvalues:    20.8074    28.3857    31.9422
     78  H    Isotropic =    28.1565   Anisotropy =     8.9940
   XX=    27.0938   YX=     2.9820   ZX=     1.2730
   XY=     1.3673   YY=    31.7204   ZY=     3.6799
   XZ=    -0.3828   YZ=     3.7720   ZZ=    25.6553
   Eigenvalues:    23.7839    26.5331    34.1524
 End of Minotr F.D. properties file   721 does not exist.
 End of Minotr F.D. properties file   722 does not exist.
 End of Minotr F.D. properties file   788 does not exist.

 **********************************************************************

            Population analysis using the SCF Density.

 **********************************************************************

 Orbital symmetries:
       Occupied  (A) (A) (A) (A) (A) (A) (A) (A) (A) (A) (A) (A)
                 (A) (A) (A) (A) (A) (A) (A) (A) (A) (A) (A) (A)
                 (A) (A) (A) (A) (A) (A) (A) (A) (A) (A) (A) (A)
                 (A) (A) (A) (A) (A) (A) (A) (A) (A) (A) (A) (A)
                 (A) (A) (A) (A) (A) (A) (A) (A) (A) (A) (A) (A)
                 (A) (A) (A) (A) (A) (A) (A) (A) (A) (A) (A) (A)
                 (A) (A) (A) (A) (A) (A) (A) (A) (A) (A) (A) (A)
                 (A) (A) (A) (A) (A) (A) (A) (A) (A) (A) (A) (A)
                 (A) (A) (A) (A) (A) (A) (A) (A) (A) (A) (A) (A)
                 (A) (A) (A) (A) (A) (A) (A) (A) (A) (A) (A) (A)
                 (A) (A) (A) (A) (A) (A) (A) (A) (A) (A) (A) (A)
                 (A) (A) (A) (A) (A) (A) (A) (A) (A) (A) (A) (A)
                 (A) (A) (A) (A) (A) (A) (A) (A) (A) (A) (A) (A)
                 (A) (A) (A)
       Virtual   (A) (A) (A) (A) (A) (A) (A) (A) (A) (A) (A) (A)
                 (A) (A) (A) (A) (A) (A) (A) (A) (A) (A) (A) (A)
                 (A) (A) (A) (A) (A) (A) (A) (A) (A) (A) (A) (A)
                 (A) (A) (A) (A) (A) (A) (A) (A) (A) (A) (A) (A)
                 (A) (A) (A) (A) (A) (A) (A) (A) (A) (A) (A) (A)
                 (A) (A) (A) (A) (A) (A) (A) (A) (A) (A) (A) (A)
                 (A) (A) (A) (A) (A) (A) (A) (A) (A) (A) (A) (A)
                 (A) (A) (A) (A) (A) (A) (A) (A) (A) (A) (A) (A)
                 (A) (A) (A) (A) (A) (A) (A) (A) (A) (A) (A) (A)
                 (A) (A) (A) (A) (A) (A) (A) (A) (A) (A) (A) (A)
                 (A) (A) (A) (A) (A) (A) (A) (A) (A) (A) (A) (A)
                 (A) (A) (A) (A) (A) (A) (A) (A) (A) (A) (A) (A)
                 (A) (A) (A) (A) (A) (A) (A) (A) (A) (A) (A) (A)
                 (A) (A) (A) (A) (A) (A) (A) (A) (A) (A) (A) (A)
                 (A) (A) (A) (A) (A) (A) (A) (A) (A) (A) (A) (A)
                 (A) (A) (A) (A) (A) (A) (A) (A) (A) (A) (A) (A)
                 (A) (A) (A) (A) (A) (A) (A) (A) (A) (A) (A) (A)
                 (A) (A) (A) (A) (A) (A) (A) (A) (A) (A) (A) (A)
                 (A) (A) (A) (A) (A) (A) (A) (A) (A) (A) (A) (A)
                 (A) (A) (A) (A) (A) (A) (A) (A) (A) (A) (A) (A)
                 (A) (A) (A) (A) (A) (A) (A) (A) (A) (A) (A) (A)
                 (A) (A) (A) (A) (A) (A) (A) (A) (A) (A) (A) (A)
                 (A) (A) (A) (A) (A) (A) (A) (A) (A) (A) (A) (A)
                 (A) (A) (A) (A) (A) (A) (A) (A) (A) (A) (A) (A)
                 (A) (A) (A) (A) (A) (A) (A) (A) (A) (A) (A) (A)
                 (A) (A) (A) (A) (A) (A) (A) (A) (A) (A) (A) (A)
                 (A) (A) (A) (A) (A) (A) (A) (A) (A) (A) (A) (A)
                 (A) (A) (A) (A) (A) (A) (A) (A) (A) (A) (A) (A)
                 (A) (A) (A) (A) (A) (A) (A) (A) (A) (A) (A) (A)
                 (A) (A) (A) (A) (A) (A) (A) (A) (A) (A) (A) (A)
                 (A) (A) (A) (A) (A) (A) (A) (A) (A) (A) (A) (A)
                 (A) (A) (A) (A) (A) (A) (A) (A) (A) (A) (A) (A)
                 (A) (A) (A) (A) (A) (A) (A) (A) (A) (A) (A) (A)
                 (A) (A) (A) (A) (A) (A) (A) (A) (A) (A) (A) (A)
                 (A) (A) (A) (A) (A) (A) (A) (A) (A) (A) (A) (A)
                 (A) (A) (A) (A) (A) (A) (A) (A) (A) (A) (A) (A)
                 (A) (A) (A) (A) (A) (A) (A) (A) (A) (A) (A) (A)
                 (A) (A) (A) (A) (A) (A) (A) (A) (A) (A) (A) (A)
                 (A) (A) (A) (A) (A) (A) (A) (A) (A) (A) (A) (A)
                 (A) (A) (A) (A) (A) (A) (A) (A) (A) (A) (A) (A)
                 (A) (A) (A) (A) (A) (A) (A) (A) (A) (A) (A) (A)
                 (A) (A) (A) (A) (A) (A) (A) (A) (A) (A) (A) (A)
                 (A) (A) (A) (A) (A) (A) (A) (A) (A) (A) (A) (A)
                 (A) (A) (A) (A) (A) (A) (A) (A) (A) (A) (A) (A)
                 (A) (A) (A) (A) (A) (A) (A) (A) (A) (A) (A) (A)
                 (A) (A) (A) (A) (A) (A) (A) (A) (A) (A) (A) (A)
                 (A) (A) (A) (A) (A) (A) (A) (A) (A) (A) (A) (A)
                 (A) (A) (A) (A) (A) (A) (A) (A) (A) (A) (A) (A)
                 (A) (A) (A) (A) (A) (A) (A) (A) (A) (A) (A) (A)
                 (A) (A) (A) (A) (A) (A) (A) (A) (A) (A) (A) (A)
                 (A) (A) (A) (A) (A) (A) (A) (A) (A) (A) (A) (A)
                 (A) (A) (A) (A) (A) (A) (A) (A) (A) (A) (A) (A)
                 (A) (A) (A) (A) (A) (A) (A) (A) (A) (A) (A) (A)
                 (A) (A) (A) (A) (A) (A) (A) (A) (A) (A) (A) (A)
                 (A) (A) (A) (A) (A) (A) (A) (A) (A) (A) (A) (A)
                 (A) (A) (A) (A) (A) (A) (A) (A) (A) (A) (A) (A)
                 (A) (A) (A) (A) (A) (A) (A) (A) (A) (A) (A) (A)
                 (A) (A) (A) (A) (A) (A) (A) (A) (A) (A) (A) (A)
                 (A) (A) (A) (A) (A) (A) (A) (A) (A) (A) (A) (A)
                 (A) (A) (A) (A) (A) (A) (A) (A) (A) (A) (A) (A)
                 (A) (A) (A) (A) (A) (A) (A) (A) (A) (A) (A) (A)
                 (A) (A) (A) (A) (A) (A) (A) (A) (A) (A) (A) (A)
                 (A) (A) (A) (A) (A) (A) (A) (A) (A) (A) (A) (A)
                 (A) (A) (A) (A) (A) (A) (A) (A) (A) (A) (A) (A)
                 (A) (A) (A) (A) (A) (A) (A) (A) (A) (A) (A) (A)
                 (A) (A) (A) (A) (A) (A) (A) (A) (A) (A) (A) (A)
                 (A) (A) (A) (A) (A) (A) (A) (A) (A) (A) (A) (A)
                 (A) (A) (A) (A) (A) (A) (A) (A) (A) (A) (A) (A)
                 (A) (A) (A) (A) (A) (A) (A) (A) (A) (A) (A) (A)
                 (A) (A) (A) (A) (A) (A) (A) (A) (A) (A) (A) (A)
                 (A) (A) (A) (A) (A) (A) (A) (A) (A) (A) (A) (A)
                 (A) (A) (A) (A) (A) (A) (A) (A) (A) (A) (A) (A)
                 (A) (A) (A) (A) (A) (A) (A) (A) (A) (A) (A) (A)
                 (A) (A) (A) (A) (A) (A) (A) (A) (A) (A) (A) (A)
                 (A) (A) (A) (A) (A) (A) (A) (A) (A) (A) (A) (A)
                 (A) (A) (A) (A) (A) (A) (A) (A) (A) (A) (A) (A)
                 (A) (A) (A) (A) (A) (A) (A) (A) (A) (A) (A) (A)
                 (A) (A) (A) (A) (A) (A) (A) (A) (A) (A) (A) (A)
                 (A) (A) (A) (A) (A) (A) (A) (A) (A) (A) (A) (A)
                 (A) (A) (A) (A) (A) (A) (A) (A) (A) (A) (A) (A)
                 (A) (A) (A) (A) (A) (A) (A) (A) (A) (A) (A) (A)
                 (A) (A) (A) (A) (A) (A) (A) (A) (A) (A) (A) (A)
                 (A) (A) (A) (A) (A) (A) (A) (A) (A) (A) (A) (A)
                 (A) (A) (A) (A) (A) (A) (A) (A) (A) (A) (A) (A)
                 (A) (A) (A) (A) (A) (A) (A) (A) (A) (A) (A) (A)
                 (A) (A) (A) (A) (A) (A) (A) (A) (A) (A) (A) (A)
                 (A) (A) (A) (A) (A) (A) (A) (A) (A) (A) (A) (A)
                 (A) (A) (A) (A) (A) (A) (A) (A) (A) (A) (A) (A)
                 (A) (A) (A) (A) (A) (A) (A) (A) (A) (A) (A) (A)
                 (A) (A) (A) (A) (A) (A) (A) (A) (A) (A) (A) (A)
                 (A) (A) (A) (A) (A) (A) (A) (A) (A) (A) (A) (A)
                 (A) (A) (A) (A) (A) (A) (A) (A) (A) (A) (A) (A)
                 (A) (A) (A) (A) (A) (A) (A) (A) (A) (A) (A) (A)
                 (A) (A) (A) (A) (A) (A) (A) (A) (A) (A) (A) (A)
                 (A) (A) (A) (A) (A) (A) (A) (A) (A) (A) (A) (A)
                 (A) (A) (A) (A) (A) (A) (A) (A) (A) (A) (A) (A)
                 (A) (A) (A) (A) (A) (A) (A) (A) (A) (A) (A) (A)
                 (A) (A) (A) (A) (A) (A) (A) (A) (A) (A) (A) (A)
                 (A) (A) (A) (A) (A) (A) (A) (A) (A) (A) (A) (A)
                 (A) (A) (A) (A) (A) (A) (A) (A) (A) (A) (A) (A)
                 (A) (A) (A) (A) (A) (A) (A) (A) (A) (A) (A) (A)
                 (A) (A) (A) (A) (A) (A) (A) (A)
 The electronic state is 1-A.
 Alpha  occ. eigenvalues --  -19.25118 -19.25088 -19.25007 -19.24947 -19.24943
 Alpha  occ. eigenvalues --  -19.24930 -19.24681 -19.24565 -19.23743 -19.23709
 Alpha  occ. eigenvalues --  -10.30264 -10.30175 -10.30126 -10.30102 -10.29914
 Alpha  occ. eigenvalues --  -10.29855 -10.29758 -10.29712 -10.29292 -10.29241
 Alpha  occ. eigenvalues --  -10.28142 -10.27908 -10.27249 -10.27218 -10.27057
 Alpha  occ. eigenvalues --  -10.27053 -10.24991 -10.24954 -10.24836 -10.24700
 Alpha  occ. eigenvalues --  -10.24597 -10.24476 -10.23980 -10.23949 -10.23913
 Alpha  occ. eigenvalues --  -10.23881 -10.23871 -10.23814 -10.23373 -10.23214
 Alpha  occ. eigenvalues --  -10.23084 -10.23069 -10.22950 -10.22926  -1.11139
 Alpha  occ. eigenvalues --   -1.11076  -1.09549  -1.09435  -1.09202  -1.09165
 Alpha  occ. eigenvalues --   -1.08863  -1.08789  -1.07263  -1.07214  -0.89678
 Alpha  occ. eigenvalues --   -0.88301  -0.87976  -0.87901  -0.84431  -0.83596
 Alpha  occ. eigenvalues --   -0.79925  -0.78624  -0.78505  -0.77709  -0.77655
 Alpha  occ. eigenvalues --   -0.75898  -0.75428  -0.75121  -0.72548  -0.71649
 Alpha  occ. eigenvalues --   -0.69987  -0.69695  -0.68685  -0.68622  -0.66265
 Alpha  occ. eigenvalues --   -0.66039  -0.65440  -0.63362  -0.63192  -0.62682
 Alpha  occ. eigenvalues --   -0.61401  -0.60689  -0.59439  -0.58467  -0.58090
 Alpha  occ. eigenvalues --   -0.56988  -0.55818  -0.55572  -0.54241  -0.53511
 Alpha  occ. eigenvalues --   -0.52789  -0.52185  -0.51692  -0.51299  -0.50812
 Alpha  occ. eigenvalues --   -0.50068  -0.49609  -0.49317  -0.49136  -0.48945
 Alpha  occ. eigenvalues --   -0.48598  -0.48271  -0.47067  -0.46817  -0.46590
 Alpha  occ. eigenvalues --   -0.46427  -0.45853  -0.45529  -0.45319  -0.45088
 Alpha  occ. eigenvalues --   -0.44981  -0.44565  -0.44463  -0.44042  -0.43879
 Alpha  occ. eigenvalues --   -0.43400  -0.43171  -0.43004  -0.42299  -0.42273
 Alpha  occ. eigenvalues --   -0.41748  -0.41390  -0.41334  -0.41293  -0.40431
 Alpha  occ. eigenvalues --   -0.40362  -0.40126  -0.40071  -0.39578  -0.39300
 Alpha  occ. eigenvalues --   -0.38971  -0.37224  -0.37182  -0.36952  -0.36785
 Alpha  occ. eigenvalues --   -0.36696  -0.36442  -0.35969  -0.35261  -0.34794
 Alpha  occ. eigenvalues --   -0.34059  -0.33836  -0.33305  -0.32721  -0.32421
 Alpha  occ. eigenvalues --   -0.32124  -0.31925  -0.31423  -0.31219  -0.29071
 Alpha  occ. eigenvalues --   -0.28835  -0.25390  -0.25108  -0.24797  -0.24634
 Alpha  occ. eigenvalues --   -0.24493  -0.22731  -0.22548  -0.21698
 Alpha virt. eigenvalues --   -0.02152  -0.01267  -0.01079  -0.00771  -0.00623
 Alpha virt. eigenvalues --    0.00293   0.00469   0.00865   0.01161   0.01246
 Alpha virt. eigenvalues --    0.01299   0.01663   0.01916   0.02215   0.02394
 Alpha virt. eigenvalues --    0.02655   0.02924   0.02970   0.03297   0.03672
 Alpha virt. eigenvalues --    0.03745   0.04155   0.04193   0.04434   0.04684
 Alpha virt. eigenvalues --    0.04977   0.05306   0.05377   0.05572   0.05917
 Alpha virt. eigenvalues --    0.06067   0.06210   0.06514   0.06556   0.06943
 Alpha virt. eigenvalues --    0.07332   0.07419   0.07566   0.07778   0.08240
 Alpha virt. eigenvalues --    0.08657   0.08789   0.09110   0.09226   0.09688
 Alpha virt. eigenvalues --    0.09710   0.09908   0.10028   0.10167   0.10318
 Alpha virt. eigenvalues --    0.10768   0.10861   0.11216   0.11451   0.11572
 Alpha virt. eigenvalues --    0.11896   0.11944   0.12286   0.12392   0.12612
 Alpha virt. eigenvalues --    0.12710   0.12855   0.13152   0.13294   0.13435
 Alpha virt. eigenvalues --    0.13640   0.13898   0.14100   0.14574   0.14634
 Alpha virt. eigenvalues --    0.14668   0.14836   0.15117   0.15361   0.15503
 Alpha virt. eigenvalues --    0.15614   0.15661   0.15891   0.16069   0.16192
 Alpha virt. eigenvalues --    0.16441   0.16494   0.16726   0.16859   0.17058
 Alpha virt. eigenvalues --    0.17144   0.17413   0.17587   0.17733   0.17861
 Alpha virt. eigenvalues --    0.17899   0.18046   0.18190   0.18440   0.18571
 Alpha virt. eigenvalues --    0.18777   0.18838   0.18967   0.19158   0.19356
 Alpha virt. eigenvalues --    0.19482   0.19906   0.20092   0.20120   0.20381
 Alpha virt. eigenvalues --    0.20429   0.20481   0.20693   0.20776   0.20963
 Alpha virt. eigenvalues --    0.21230   0.21416   0.21528   0.21815   0.21936
 Alpha virt. eigenvalues --    0.21953   0.22143   0.22304   0.22484   0.22584
 Alpha virt. eigenvalues --    0.22612   0.22999   0.23095   0.23174   0.23360
 Alpha virt. eigenvalues --    0.23476   0.23632   0.23899   0.23966   0.24041
 Alpha virt. eigenvalues --    0.24209   0.24584   0.24615   0.24725   0.25058
 Alpha virt. eigenvalues --    0.25114   0.25329   0.25393   0.25478   0.25726
 Alpha virt. eigenvalues --    0.25823   0.26031   0.26315   0.26429   0.26614
 Alpha virt. eigenvalues --    0.26690   0.26991   0.27138   0.27300   0.27331
 Alpha virt. eigenvalues --    0.27594   0.27831   0.27979   0.28127   0.28312
 Alpha virt. eigenvalues --    0.28518   0.28604   0.28704   0.28824   0.28963
 Alpha virt. eigenvalues --    0.29029   0.29328   0.29541   0.29590   0.29852
 Alpha virt. eigenvalues --    0.30067   0.30181   0.30253   0.30475   0.30631
 Alpha virt. eigenvalues --    0.30725   0.30971   0.31355   0.31420   0.31669
 Alpha virt. eigenvalues --    0.31900   0.32062   0.32129   0.32392   0.32549
 Alpha virt. eigenvalues --    0.32816   0.32915   0.33215   0.33422   0.33579
 Alpha virt. eigenvalues --    0.33724   0.33823   0.33965   0.34251   0.34508
 Alpha virt. eigenvalues --    0.34885   0.34972   0.35110   0.35372   0.35475
 Alpha virt. eigenvalues --    0.35615   0.35748   0.35993   0.36348   0.36672
 Alpha virt. eigenvalues --    0.37073   0.37096   0.37280   0.37395   0.37486
 Alpha virt. eigenvalues --    0.37814   0.37931   0.38344   0.38496   0.38594
 Alpha virt. eigenvalues --    0.38795   0.38925   0.39198   0.39468   0.39533
 Alpha virt. eigenvalues --    0.39582   0.39776   0.39953   0.40298   0.40479
 Alpha virt. eigenvalues --    0.40854   0.40958   0.41101   0.41439   0.41832
 Alpha virt. eigenvalues --    0.41952   0.42366   0.42465   0.42690   0.43153
 Alpha virt. eigenvalues --    0.43300   0.43515   0.44061   0.44297   0.44566
 Alpha virt. eigenvalues --    0.44913   0.45072   0.45450   0.45871   0.46139
 Alpha virt. eigenvalues --    0.46431   0.46830   0.47125   0.47571   0.47715
 Alpha virt. eigenvalues --    0.48209   0.48322   0.48391   0.48600   0.48933
 Alpha virt. eigenvalues --    0.49684   0.49925   0.50367   0.50854   0.51264
 Alpha virt. eigenvalues --    0.51716   0.52362   0.52610   0.52664   0.53016
 Alpha virt. eigenvalues --    0.53249   0.53536   0.53626   0.53909   0.54139
 Alpha virt. eigenvalues --    0.54543   0.54607   0.54957   0.55132   0.55384
 Alpha virt. eigenvalues --    0.55806   0.56165   0.56229   0.56333   0.56689
 Alpha virt. eigenvalues --    0.56806   0.57076   0.57579   0.57621   0.57810
 Alpha virt. eigenvalues --    0.58125   0.58661   0.58924   0.59103   0.59377
 Alpha virt. eigenvalues --    0.59830   0.60092   0.60552   0.60679   0.61058
 Alpha virt. eigenvalues --    0.61425   0.61558   0.62128   0.62392   0.62527
 Alpha virt. eigenvalues --    0.62818   0.62938   0.63223   0.63262   0.63455
 Alpha virt. eigenvalues --    0.63877   0.63939   0.64505   0.64658   0.65158
 Alpha virt. eigenvalues --    0.65475   0.65573   0.65844   0.65987   0.66354
 Alpha virt. eigenvalues --    0.66486   0.66618   0.66836   0.66971   0.67187
 Alpha virt. eigenvalues --    0.67276   0.67581   0.67739   0.68022   0.68429
 Alpha virt. eigenvalues --    0.68964   0.69128   0.69295   0.69617   0.69634
 Alpha virt. eigenvalues --    0.69933   0.70089   0.70344   0.70769   0.70894
 Alpha virt. eigenvalues --    0.71325   0.71475   0.71756   0.71884   0.72178
 Alpha virt. eigenvalues --    0.72501   0.72679   0.72762   0.72966   0.73015
 Alpha virt. eigenvalues --    0.73550   0.73696   0.73848   0.74168   0.74611
 Alpha virt. eigenvalues --    0.74650   0.74960   0.75065   0.75293   0.75663
 Alpha virt. eigenvalues --    0.75820   0.76062   0.76132   0.76413   0.76786
 Alpha virt. eigenvalues --    0.77067   0.77198   0.77382   0.77760   0.78037
 Alpha virt. eigenvalues --    0.78056   0.78320   0.78590   0.78754   0.78938
 Alpha virt. eigenvalues --    0.79117   0.79253   0.79635   0.79921   0.80323
 Alpha virt. eigenvalues --    0.80468   0.80821   0.81275   0.81551   0.81693
 Alpha virt. eigenvalues --    0.81841   0.82141   0.82475   0.82611   0.82911
 Alpha virt. eigenvalues --    0.83119   0.83194   0.83627   0.83842   0.84127
 Alpha virt. eigenvalues --    0.84344   0.84604   0.84738   0.85265   0.85591
 Alpha virt. eigenvalues --    0.85954   0.86031   0.86071   0.86345   0.86906
 Alpha virt. eigenvalues --    0.86976   0.87319   0.87557   0.87745   0.87989
 Alpha virt. eigenvalues --    0.88078   0.88629   0.89159   0.89280   0.89738
 Alpha virt. eigenvalues --    0.90178   0.90672   0.91086   0.91611   0.91688
 Alpha virt. eigenvalues --    0.91919   0.92019   0.92582   0.92641   0.92878
 Alpha virt. eigenvalues --    0.93159   0.93663   0.93784   0.94723   0.95139
 Alpha virt. eigenvalues --    0.95373   0.95749   0.96316   0.96894   0.97285
 Alpha virt. eigenvalues --    0.97555   0.97935   0.98672   0.98689   0.99200
 Alpha virt. eigenvalues --    0.99778   1.00480   1.00778   1.01173   1.01405
 Alpha virt. eigenvalues --    1.01691   1.01935   1.02880   1.02992   1.03536
 Alpha virt. eigenvalues --    1.03827   1.03947   1.04277   1.04706   1.05094
 Alpha virt. eigenvalues --    1.05331   1.05817   1.06037   1.06309   1.06601
 Alpha virt. eigenvalues --    1.06996   1.07564   1.07688   1.08029   1.08281
 Alpha virt. eigenvalues --    1.08492   1.08628   1.09283   1.09554   1.09785
 Alpha virt. eigenvalues --    1.10101   1.10397   1.10786   1.10855   1.11181
 Alpha virt. eigenvalues --    1.11892   1.12179   1.12481   1.12872   1.13042
 Alpha virt. eigenvalues --    1.14283   1.14577   1.14679   1.15483   1.15712
 Alpha virt. eigenvalues --    1.15891   1.16061   1.16429   1.16603   1.16842
 Alpha virt. eigenvalues --    1.17027   1.17312   1.17534   1.17692   1.18766
 Alpha virt. eigenvalues --    1.19058   1.19354   1.19531   1.20147   1.20309
 Alpha virt. eigenvalues --    1.20696   1.20805   1.21015   1.21240   1.21584
 Alpha virt. eigenvalues --    1.21762   1.22370   1.22883   1.23359   1.23401
 Alpha virt. eigenvalues --    1.23762   1.24027   1.24686   1.25188   1.25502
 Alpha virt. eigenvalues --    1.25902   1.26178   1.26945   1.27015   1.27148
 Alpha virt. eigenvalues --    1.27605   1.27937   1.28147   1.28662   1.28696
 Alpha virt. eigenvalues --    1.29058   1.29353   1.29597   1.29720   1.30391
 Alpha virt. eigenvalues --    1.30581   1.31045   1.31502   1.31880   1.32444
 Alpha virt. eigenvalues --    1.32464   1.32961   1.33192   1.33633   1.33907
 Alpha virt. eigenvalues --    1.34174   1.34732   1.34838   1.35173   1.35248
 Alpha virt. eigenvalues --    1.35937   1.36054   1.36565   1.36632   1.37093
 Alpha virt. eigenvalues --    1.37886   1.37926   1.38142   1.38345   1.38968
 Alpha virt. eigenvalues --    1.39113   1.39501   1.39759   1.39845   1.40671
 Alpha virt. eigenvalues --    1.40922   1.41191   1.41515   1.41850   1.42572
 Alpha virt. eigenvalues --    1.42783   1.43517   1.43997   1.44327   1.44408
 Alpha virt. eigenvalues --    1.44860   1.45108   1.46049   1.46428   1.46828
 Alpha virt. eigenvalues --    1.47475   1.47990   1.48051   1.48815   1.49106
 Alpha virt. eigenvalues --    1.49862   1.50453   1.50699   1.50899   1.51297
 Alpha virt. eigenvalues --    1.52035   1.53139   1.53451   1.54058   1.54257
 Alpha virt. eigenvalues --    1.54547   1.54992   1.55320   1.55973   1.56261
 Alpha virt. eigenvalues --    1.56447   1.56683   1.57609   1.57786   1.58557
 Alpha virt. eigenvalues --    1.59049   1.59456   1.59921   1.60715   1.60956
 Alpha virt. eigenvalues --    1.61172   1.62166   1.63013   1.63375   1.63775
 Alpha virt. eigenvalues --    1.63969   1.64354   1.65588   1.65759   1.66562
 Alpha virt. eigenvalues --    1.67044   1.67695   1.68148   1.68409   1.69131
 Alpha virt. eigenvalues --    1.69452   1.70196   1.70777   1.71562   1.72095
 Alpha virt. eigenvalues --    1.72566   1.73037   1.73642   1.74057   1.74119
 Alpha virt. eigenvalues --    1.74891   1.75781   1.76329   1.76676   1.77037
 Alpha virt. eigenvalues --    1.77430   1.77726   1.78014   1.78462   1.78724
 Alpha virt. eigenvalues --    1.79094   1.80031   1.80540   1.80627   1.81051
 Alpha virt. eigenvalues --    1.81438   1.81851   1.82128   1.83001   1.83877
 Alpha virt. eigenvalues --    1.84228   1.84580   1.84908   1.85649   1.86193
 Alpha virt. eigenvalues --    1.87029   1.87724   1.88230   1.88872   1.89386
 Alpha virt. eigenvalues --    1.90619   1.91328   1.91955   1.92317   1.92725
 Alpha virt. eigenvalues --    1.92968   1.93883   1.95649   1.96268   1.96784
 Alpha virt. eigenvalues --    1.97102   1.97538   1.97998   1.98340   1.98660
 Alpha virt. eigenvalues --    1.98968   1.99413   1.99825   2.00055   2.00195
 Alpha virt. eigenvalues --    2.00332   2.00632   2.01322   2.01715   2.02094
 Alpha virt. eigenvalues --    2.03414   2.04943   2.05622   2.06038   2.06188
 Alpha virt. eigenvalues --    2.06798   2.07581   2.07722   2.08235   2.08717
 Alpha virt. eigenvalues --    2.09139   2.09357   2.10519   2.11020   2.11941
 Alpha virt. eigenvalues --    2.13172   2.14175   2.14620   2.15293   2.17530
 Alpha virt. eigenvalues --    2.18092   2.18611   2.19509   2.20256   2.21037
 Alpha virt. eigenvalues --    2.21377   2.22473   2.23208   2.23343   2.25310
 Alpha virt. eigenvalues --    2.25758   2.26685   2.27668   2.27913   2.28317
 Alpha virt. eigenvalues --    2.28442   2.28908   2.29369   2.29463   2.29992
 Alpha virt. eigenvalues --    2.30190   2.30574   2.30877   2.31781   2.31901
 Alpha virt. eigenvalues --    2.33376   2.34292   2.34461   2.34590   2.35641
 Alpha virt. eigenvalues --    2.36579   2.36971   2.38005   2.38447   2.38791
 Alpha virt. eigenvalues --    2.39636   2.40047   2.40760   2.40923   2.41129
 Alpha virt. eigenvalues --    2.42043   2.42222   2.42597   2.42924   2.43421
 Alpha virt. eigenvalues --    2.44198   2.44501   2.44947   2.45625   2.45867
 Alpha virt. eigenvalues --    2.46258   2.46615   2.46949   2.47561   2.47626
 Alpha virt. eigenvalues --    2.48069   2.48470   2.49214   2.49731   2.51206
 Alpha virt. eigenvalues --    2.52193   2.52756   2.53454   2.53900   2.54734
 Alpha virt. eigenvalues --    2.57928   2.58165   2.58743   2.59741   2.60268
 Alpha virt. eigenvalues --    2.61418   2.62320   2.62555   2.63137   2.63530
 Alpha virt. eigenvalues --    2.64605   2.64810   2.65634   2.66172   2.67390
 Alpha virt. eigenvalues --    2.67690   2.68237   2.69536   2.69610   2.70025
 Alpha virt. eigenvalues --    2.71683   2.71899   2.72728   2.73038   2.74402
 Alpha virt. eigenvalues --    2.75229   2.75574   2.76243   2.76812   2.77455
 Alpha virt. eigenvalues --    2.78540   2.78838   2.79187   2.79322   2.79519
 Alpha virt. eigenvalues --    2.79950   2.80162   2.82824   2.83080   2.84721
 Alpha virt. eigenvalues --    2.85280   2.85494   2.85999   2.86752   2.88242
 Alpha virt. eigenvalues --    2.88646   2.88827   2.89638   2.90713   2.91142
 Alpha virt. eigenvalues --    2.91626   2.92240   2.93452   2.93780   2.94335
 Alpha virt. eigenvalues --    2.94521   2.94969   2.96611   2.97080   2.97247
 Alpha virt. eigenvalues --    2.99209   2.99985   3.00467   3.00897   3.01414
 Alpha virt. eigenvalues --    3.01575   3.02667   3.03189   3.03546   3.03682
 Alpha virt. eigenvalues --    3.04336   3.04919   3.05281   3.05446   3.05545
 Alpha virt. eigenvalues --    3.06333   3.06663   3.07943   3.08107   3.08737
 Alpha virt. eigenvalues --    3.09402   3.09999   3.10172   3.11151   3.12489
 Alpha virt. eigenvalues --    3.12733   3.13190   3.13835   3.15012   3.15088
 Alpha virt. eigenvalues --    3.16265   3.16656   3.17614   3.18535   3.19305
 Alpha virt. eigenvalues --    3.20159   3.20838   3.21157   3.21543   3.22236
 Alpha virt. eigenvalues --    3.22959   3.23565   3.24130   3.25086   3.25381
 Alpha virt. eigenvalues --    3.25643   3.25960   3.26482   3.27059   3.27338
 Alpha virt. eigenvalues --    3.27832   3.28126   3.28864   3.29397   3.30835
 Alpha virt. eigenvalues --    3.31110   3.31869   3.32750   3.33653   3.34054
 Alpha virt. eigenvalues --    3.34606   3.35194   3.35800   3.36786   3.37135
 Alpha virt. eigenvalues --    3.37406   3.37610   3.37867   3.38152   3.38507
 Alpha virt. eigenvalues --    3.38663   3.39488   3.39791   3.40111   3.40524
 Alpha virt. eigenvalues --    3.40986   3.41444   3.41968   3.42899   3.43359
 Alpha virt. eigenvalues --    3.43711   3.43847   3.44539   3.44687   3.45072
 Alpha virt. eigenvalues --    3.45246   3.45461   3.46169   3.46728   3.47152
 Alpha virt. eigenvalues --    3.47178   3.47299   3.48118   3.49132   3.49405
 Alpha virt. eigenvalues --    3.49601   3.50294   3.50750   3.50941   3.51131
 Alpha virt. eigenvalues --    3.51537   3.51871   3.52317   3.52723   3.53612
 Alpha virt. eigenvalues --    3.53758   3.54223   3.54706   3.54836   3.55364
 Alpha virt. eigenvalues --    3.55827   3.56311   3.56717   3.57138   3.57561
 Alpha virt. eigenvalues --    3.58198   3.58685   3.59214   3.59911   3.60937
 Alpha virt. eigenvalues --    3.61432   3.61450   3.61864   3.62071   3.62250
 Alpha virt. eigenvalues --    3.62393   3.62839   3.63302   3.63555   3.64151
 Alpha virt. eigenvalues --    3.64390   3.64428   3.65011   3.65391   3.65880
 Alpha virt. eigenvalues --    3.66457   3.67070   3.67496   3.67953   3.68282
 Alpha virt. eigenvalues --    3.68686   3.68933   3.69056   3.70012   3.70282
 Alpha virt. eigenvalues --    3.70425   3.70551   3.71386   3.71740   3.72447
 Alpha virt. eigenvalues --    3.73086   3.73178   3.73739   3.74055   3.74441
 Alpha virt. eigenvalues --    3.74881   3.75436   3.76073   3.76739   3.76839
 Alpha virt. eigenvalues --    3.77078   3.77887   3.78096   3.78329   3.79396
 Alpha virt. eigenvalues --    3.80131   3.80623   3.80909   3.81499   3.81607
 Alpha virt. eigenvalues --    3.82239   3.82811   3.83181   3.84459   3.85079
 Alpha virt. eigenvalues --    3.85858   3.86359   3.86574   3.87131   3.87510
 Alpha virt. eigenvalues --    3.87907   3.88139   3.88854   3.89290   3.89900
 Alpha virt. eigenvalues --    3.90494   3.90789   3.91448   3.92325   3.92930
 Alpha virt. eigenvalues --    3.93587   3.94735   3.95155   3.95849   3.96186
 Alpha virt. eigenvalues --    3.96510   3.96830   3.97401   3.97993   3.99096
 Alpha virt. eigenvalues --    3.99641   4.00146   4.01424   4.02035   4.02534
 Alpha virt. eigenvalues --    4.04796   4.05384   4.06696   4.07468   4.07817
 Alpha virt. eigenvalues --    4.08889   4.10124   4.10208   4.11308   4.11846
 Alpha virt. eigenvalues --    4.12462   4.13250   4.13460   4.13933   4.14233
 Alpha virt. eigenvalues --    4.17469   4.18711   4.19602   4.20145   4.21203
 Alpha virt. eigenvalues --    4.22157   4.22526   4.22723   4.22950   4.23412
 Alpha virt. eigenvalues --    4.24625   4.25340   4.26930   4.27471   4.27778
 Alpha virt. eigenvalues --    4.27858   4.28681   4.29151   4.30597   4.30758
 Alpha virt. eigenvalues --    4.31430   4.31837   4.33353   4.35302   4.36347
 Alpha virt. eigenvalues --    4.36551   4.41874   4.44119   4.44999   4.46246
 Alpha virt. eigenvalues --    4.46459   4.50233   4.50384   4.50622   4.52971
 Alpha virt. eigenvalues --    4.54972   4.56868   4.59040   4.60496   4.61647
 Alpha virt. eigenvalues --    4.68302   4.68450   4.72375   4.77986   4.79735
 Alpha virt. eigenvalues --    4.81873   4.82601   4.83363   4.88024   4.92522
 Alpha virt. eigenvalues --    4.93644   5.05962   5.06044   5.07106   5.09418
 Alpha virt. eigenvalues --    5.11909   5.16440   5.16929   5.24503   5.25332
 Alpha virt. eigenvalues --    5.28109   5.28258   5.30464   5.31903   5.43169
 Alpha virt. eigenvalues --    5.43738   5.48763   5.49389   5.53949   5.55482
 Alpha virt. eigenvalues --    5.59243   5.59665   5.60788   5.60802   5.70211
 Alpha virt. eigenvalues --    5.73420   5.84112   5.85177   5.93998   5.94497
 Alpha virt. eigenvalues --    5.96515   5.97353   6.02513   6.02636   6.04658
 Alpha virt. eigenvalues --    6.04925   6.87248   6.87262   6.89325   6.91688
 Alpha virt. eigenvalues --    6.98058   6.98077   6.99275   6.99315   7.03013
 Alpha virt. eigenvalues --    7.03509   7.04907   7.05280   7.06658   7.07281
 Alpha virt. eigenvalues --    7.07307   7.07470   7.08239   7.08793   7.10346
 Alpha virt. eigenvalues --    7.10913   7.11168   7.12047   7.13694   7.14436
 Alpha virt. eigenvalues --    7.16541   7.16572   7.21935   7.22173   7.27315
 Alpha virt. eigenvalues --    7.27874   7.31580   7.31588   7.33993   7.34425
 Alpha virt. eigenvalues --    7.37421   7.37822   7.37883   7.38463   7.39998
 Alpha virt. eigenvalues --    7.41250   7.43906   7.45458   7.49233   7.49349
 Alpha virt. eigenvalues --    7.56240   7.56443   7.58251   7.58680   7.58910
 Alpha virt. eigenvalues --    7.59416  23.77088  23.77980  23.80937  23.87950
 Alpha virt. eigenvalues --   24.01991  24.02595  24.06461  24.07097  24.07317
 Alpha virt. eigenvalues --   24.07682  24.09317  24.11133  24.11735  24.11892
 Alpha virt. eigenvalues --   24.12090  24.12436  24.14716  24.17555  24.17647
 Alpha virt. eigenvalues --   24.21015  24.22221  24.23128  24.23996  24.24923
 Alpha virt. eigenvalues --   24.27320  24.29486  24.30005  24.32719  24.33050
 Alpha virt. eigenvalues --   24.33922  24.36150  24.38922  24.39115  24.49640
 Alpha virt. eigenvalues --   50.10301  50.10321  50.11933  50.12463  50.16474
 Alpha virt. eigenvalues --   50.17567  50.20312  50.20565  50.22095  50.22417
          Condensed to atoms (all electrons):
 Mulliken charges:
               1
     1  C    0.105107
     2  C   -0.118162
     3  C   -0.326687
     4  C    1.015618
     5  C   -0.205053
     6  C   -0.571875
     7  C   -0.769225
     8  C    0.361602
     9  C   -0.328090
    10  O   -0.398026
    11  C    0.495731
    12  C   -0.778191
    13  C    0.671135
    14  C    0.244088
    15  C   -0.149577
    16  C   -0.210634
    17  O   -0.448635
    18  O   -0.519733
    19  O   -0.493565
    20  O   -0.447765
    21  C   -0.235274
    22  C   -0.478214
    23  C    0.280954
    24  C    0.915861
    25  C   -0.741221
    26  C    0.301998
    27  O   -0.397212
    28  C   -0.403537
    29  C    0.728321
    30  C   -1.000213
    31  C   -0.559527
    32  C   -0.229052
    33  C    1.290584
    34  C   -0.444591
    35  C   -0.122080
    36  C    0.054384
    37  O   -0.436183
    38  C   -0.259794
    39  O   -0.357960
    40  C   -0.304955
    41  O   -0.335481
    42  C   -0.336932
    43  O   -0.444179
    44  C   -0.253015
    45  H    0.150872
    46  H    0.150319
    47  H    0.147340
    48  H    0.196447
    49  H    0.183052
    50  H    0.160363
    51  H    0.190247
    52  H    0.184556
    53  H    0.184528
    54  H    0.316956
    55  H    0.343032
    56  H    0.352812
    57  H    0.316630
    58  H    0.166800
    59  H    0.188963
    60  H    0.180288
    61  H    0.136011
    62  H    0.205202
    63  H    0.186239
    64  H    0.147311
    65  H    0.150360
    66  H    0.150952
    67  H    0.191669
    68  H    0.184925
    69  H    0.175619
    70  H    0.185170
    71  H    0.192254
    72  H    0.188827
    73  H    0.188949
    74  H    0.193840
    75  H    0.195137
    76  H    0.176158
    77  H    0.193574
    78  H    0.183850
 Sum of Mulliken charges =  -0.00000
 Mulliken charges with hydrogens summed into heavy atoms:
               1
     1  C    0.105107
     2  C    0.032710
     3  C   -0.176368
     4  C    1.015618
     5  C   -0.205053
     6  C   -0.424535
     7  C   -0.389726
     8  C    0.521964
     9  C    0.046713
    10  O   -0.398026
    11  C    0.495731
    12  C   -0.593663
    13  C    0.671135
    14  C    0.244088
    15  C   -0.149577
    16  C   -0.210634
    17  O   -0.131678
    18  O   -0.176700
    19  O   -0.140753
    20  O   -0.131135
    21  C   -0.235274
    22  C   -0.478214
    23  C    0.280954
    24  C    0.915861
    25  C   -0.574421
    26  C    0.301998
    27  O   -0.397212
    28  C   -0.034286
    29  C    0.864332
    30  C   -0.608771
    31  C   -0.412216
    32  C   -0.229052
    33  C    1.290584
    34  C   -0.294231
    35  C    0.028872
    36  C    0.054384
    37  O   -0.436183
    38  C    0.292419
    39  O   -0.357960
    40  C    0.261296
    41  O   -0.335481
    42  C    0.240995
    43  O   -0.444179
    44  C    0.300567
 Electronic spatial extent (au):  <R**2>=          38368.6496
 Charge=             -0.0000 electrons
 Dipole moment (field-independent basis, Debye):
    X=              1.5024    Y=              1.7347    Z=              2.6781  Tot=              3.5268
 Quadrupole moment (field-independent basis, Debye-Ang):
   XX=           -291.5828   YY=           -227.1814   ZZ=           -240.9363
   XY=             23.1721   XZ=             40.5051   YZ=              0.3913
 Traceless Quadrupole moment (field-independent basis, Debye-Ang):
   XX=            -38.3493   YY=             26.0521   ZZ=             12.2972
   XY=             23.1721   XZ=             40.5051   YZ=              0.3913
 Octapole moment (field-independent basis, Debye-Ang**2):
  XXX=            428.1494  YYY=             44.1306  ZZZ=             35.5490  XYY=            -22.1953
  XXY=            104.3120  XXZ=              2.2574  XZZ=           -164.9862  YZZ=            -23.2065
  YYZ=              0.3920  XYZ=            -77.9750
 Hexadecapole moment (field-independent basis, Debye-Ang**3):
 XXXX=         -38380.8908 YYYY=          -5753.2545 ZZZZ=          -3766.2458 XXXY=           2343.3806
 XXXZ=           2738.7012 YYYX=           -147.4944 YYYZ=           -291.6122 ZZZX=            480.8322
 ZZZY=             96.2948 XXYY=          -7745.6456 XXZZ=          -7097.5032 YYZZ=          -1593.3260
 XXYZ=            552.4201 YYXZ=            298.5138 ZZXY=            333.2236
 N-N= 5.175013104224D+03 E-N=-1.518226229651D+04  KE= 2.059475718331D+03
 Unable to Open any file for archive entry.
 1\1\GINC-C09B01N03\SP\RmPW1PW91\6-311+G(2d,p)\C34H34O10\ROOT\25-Sep-20
 25\0\\# mPW1PW91/6-311+g(2d,p) NMR scrf(SMD,solvent=dmso) geom=connect
 ivity\\58RR\\0,1\C,0,8.446303,-1.986482,1.589226\C,0,7.65394,-1.968746
 ,2.744568\C,0,6.403819,-1.355855,2.695762\C,0,5.904277,-0.764269,1.531
 127\C,0,6.718425,-0.803817,0.384718\C,0,7.980362,-1.40584,0.410636\C,0
 ,4.553172,-0.086495,1.497622\C,0,4.460462,0.877075,0.304131\C,0,4.9767
 9,0.147229,-0.939598\O,0,6.352346,-0.241372,-0.804778\C,0,3.065009,1.4
 05361,0.059791\C,0,1.987563,0.541749,-0.155386\C,0,0.687807,0.990799,-
 0.427398\C,0,0.467179,2.380581,-0.481781\C,0,1.526514,3.263384,-0.2620
 53\C,0,2.816997,2.783295,0.006848\O,0,9.685209,-2.561384,1.559696\O,0,
 3.822113,3.680657,0.199989\O,0,-3.521075,-2.665163,-1.426541\O,0,-10.0
 70277,-0.121561,2.512943\C,0,-2.528443,-1.768695,-1.159185\C,0,-1.3043
 43,-1.914822,-1.827536\C,0,-0.250739,-1.027522,-1.597799\C,0,-0.412855
 ,0.02977,-0.682574\C,0,-1.650916,0.153393,-0.035802\C,0,-2.723768,-0.7
 15876,-0.252513\O,0,-5.552833,-1.380242,2.18771\C,0,-4.423879,-1.69355
 6,1.354354\C,0,-4.030856,-0.500826,0.478319\C,0,-5.207896,-0.179016,-0
 .459412\C,0,-7.803802,-0.740396,2.301879\C,0,-6.609082,-0.767551,1.575
 408\C,0,-6.512356,-0.169108,0.305965\C,0,-7.659633,0.447075,-0.20373\C
 ,0,-8.863127,0.480856,0.49741\C,0,-8.928188,-0.116894,1.762833\O,0,1.3
 9537,4.633924,-0.3535\C,0,0.609974,5.230833,0.696926\O,0,-0.776846,2.9
 0893,-0.743677\C,0,-1.10599,2.932415,-2.139422\O,0,0.928458,-1.231095,
 -2.278082\C,0,1.099624,-0.365375,-3.408746\O,0,-1.235613,-2.942305,-2.
 745935\C,0,-0.343654,-4.013405,-2.378367\H,0,8.016642,-2.419993,3.6650
 09\H,0,5.792639,-1.329256,3.595116\H,0,8.589674,-1.4192,-0.486948\H,0,
 3.756208,-0.837847,1.420285\H,0,4.378459,0.455823,2.433995\H,0,5.13030
 1,1.722983,0.484673\H,0,4.369487,-0.74664,-1.137082\H,0,4.945162,0.791
 082,-1.821375\H,0,2.160688,-0.52738,-0.120374\H,0,9.876746,-2.928769,2
 .440469\H,0,3.412962,4.561155,0.080667\H,0,-3.156862,-3.260978,-2.1123
 96\H,0,-10.76883,0.338473,2.015172\H,0,-1.786126,0.969825,0.664866\H,0
 ,-4.66581,-2.566269,0.738214\H,0,-3.622309,-1.959717,2.046866\H,0,-3.8
 90926,0.349766,1.156058\H,0,-5.24265,-0.925412,-1.261475\H,0,-5.045133
 ,0.792917,-0.939395\H,0,-7.850174,-1.207697,3.279948\H,0,-7.603606,0.9
 21982,-1.180701\H,0,-9.738133,0.969528,0.075736\H,0,-0.430601,4.904407
 ,0.629778\H,0,1.01975,4.971583,1.680272\H,0,0.672258,6.310792,0.546287
 \H,0,-2.093692,3.392969,-2.215185\H,0,-0.37788,3.530998,-2.699746\H,0,
 -1.144734,1.919128,-2.554622\H,0,2.050015,-0.645628,-3.86871\H,0,0.286
 355,-0.505642,-4.130818\H,0,1.140629,0.685523,-3.101957\H,0,-0.465208,
 -4.785092,-3.141584\H,0,0.690715,-3.661873,-2.364432\H,0,-0.612984,-4.
 420261,-1.396539\\Version=ES64L-G16RevC.02\State=1-A\HF=-2068.4246582\
 RMSD=2.700e-09\Dipole=-0.5910794,0.6824715,-1.0536304\Quadrupole=-28.5
 117648,19.3691165,9.1426482,-17.2279059,30.1145714,-0.2909487\PG=C01 [
 X(C34H34O10)]\\@
 The archive entry for this job was punched.


 WE LEARN WISDOM FROM FAILURE MUCH MORE THAN FROM SUCCESS.
 WE DISCOVER WHAT WILL DO BY FINDING OUT WHAT WILL NOT DO...
 AND HE WHO NEVER MADE A MISTAKE NEVER MADE A DISCOVERY
 Job cpu time:       0 days  8 hours 56 minutes 33.0 seconds.
 Elapsed time:       0 days  0 hours 11 minutes 54.8 seconds.
 File lengths (MBytes):  RWF=   1630 Int=      0 D2E=      0 Chk=    151 Scr=      1
 Normal termination of Gaussian 16 at Thu Sep 25 18:08:16 2025.
