 Entering Gaussian System, Link 0=/home/tupf/tupf_yangsy/lustre1/g16/Gaussian16_AVX2/g16/g16
 Input=58RR_2.gjf
 Output=58RR_2.log
 Initial command:
 /home/tupf/tupf_yangsy/lustre1/g16/Gaussian16_AVX2/g16/l1.exe "/home/tupf/tupf_yangsy/lustre1/g16/tmp/Gau-3135715.inp" -scrdir="/home/tupf/tupf_yangsy/lustre1/g16/tmp/"
 Entering Link 1 = /home/tupf/tupf_yangsy/lustre1/g16/Gaussian16_AVX2/g16/l1.exe PID=   3135716.
  
 Copyright (c) 1988-2021, Gaussian, Inc.  All Rights Reserved.
  
 This is part of the Gaussian(R) 16 program.  It is based on
 the Gaussian(R) 09 system (copyright 2009, Gaussian, Inc.),
 the Gaussian(R) 03 system (copyright 2003, Gaussian, Inc.),
 the Gaussian(R) 98 system (copyright 1998, Gaussian, Inc.),
 the Gaussian(R) 94 system (copyright 1995, Gaussian, Inc.),
 the Gaussian 92(TM) system (copyright 1992, Gaussian, Inc.),
 the Gaussian 90(TM) system (copyright 1990, Gaussian, Inc.),
 the Gaussian 88(TM) system (copyright 1988, Gaussian, Inc.),
 the Gaussian 86(TM) system (copyright 1986, Carnegie Mellon
 University), and the Gaussian 82(TM) system (copyright 1983,
 Carnegie Mellon University). Gaussian is a federally registered
 trademark of Gaussian, Inc.
  
 This software contains proprietary and confidential information,
 including trade secrets, belonging to Gaussian, Inc.
  
 This software is provided under written license and may be
 used, copied, transmitted, or stored only in accord with that
 written license.
  
 The following legend is applicable only to US Government
 contracts under FAR:
  
                    RESTRICTED RIGHTS LEGEND
  
 Use, reproduction and disclosure by the US Government is
 subject to restrictions as set forth in subparagraphs (a)
 and (c) of the Commercial Computer Software - Restricted
 Rights clause in FAR 52.227-19.
  
 Gaussian, Inc.
 340 Quinnipiac St., Bldg. 40, Wallingford CT 06492
  
  
 ---------------------------------------------------------------
 Warning -- This program may not be used in any manner that
 competes with the business of Gaussian, Inc. or will provide
 assistance to any competitor of Gaussian, Inc.  The licensee
 of this program is prohibited from giving any competitor of
 Gaussian, Inc. access to this program.  By using this program,
 the user acknowledges that Gaussian, Inc. is engaged in the
 business of creating and licensing software in the field of
 computational chemistry and represents and warrants to the
 licensee that it is not a competitor of Gaussian, Inc. and that
 it will not use this program in any manner prohibited above.
 ---------------------------------------------------------------
  

 Cite this work as:
 Gaussian 16, Revision C.02,
 M. J. Frisch, G. W. Trucks, H. B. Schlegel, G. E. Scuseria, 
 M. A. Robb, J. R. Cheeseman, G. Scalmani, V. Barone, 
 G. A. Petersson, H. Nakatsuji, X. Li, M. Caricato, A. V. Marenich, 
 J. Bloino, B. G. Janesko, R. Gomperts, B. Mennucci, H. P. Hratchian, 
 J. V. Ortiz, A. F. Izmaylov, J. L. Sonnenberg, D. Williams-Young, 
 F. Ding, F. Lipparini, F. Egidi, J. Goings, B. Peng, A. Petrone, 
 T. Henderson, D. Ranasinghe, V. G. Zakrzewski, J. Gao, N. Rega, 
 G. Zheng, W. Liang, M. Hada, M. Ehara, K. Toyota, R. Fukuda, 
 J. Hasegawa, M. Ishida, T. Nakajima, Y. Honda, O. Kitao, H. Nakai, 
 T. Vreven, K. Throssell, J. A. Montgomery, Jr., J. E. Peralta, 
 F. Ogliaro, M. J. Bearpark, J. J. Heyd, E. N. Brothers, K. N. Kudin, 
 V. N. Staroverov, T. A. Keith, R. Kobayashi, J. Normand, 
 K. Raghavachari, A. P. Rendell, J. C. Burant, S. S. Iyengar, 
 J. Tomasi, M. Cossi, J. M. Millam, M. Klene, C. Adamo, R. Cammi, 
 J. W. Ochterski, R. L. Martin, K. Morokuma, O. Farkas, 
 J. B. Foresman, and D. J. Fox, Gaussian, Inc., Wallingford CT, 2019.
 
 ******************************************
 Gaussian 16:  ES64L-G16RevC.02  7-Dec-2021
                25-Sep-2025 
 ******************************************
 %mem=400GB
 %nprocshared=64
 Will use up to   64 processors via shared memory.
 ---------------------------------------------------------------------
 # mPW1PW91/6-311+g(2d,p) NMR scrf(SMD,solvent=dmso) geom=connectivity
 ---------------------------------------------------------------------
 1/38=1,57=2,172=1/1;
 2/12=2,17=6,18=5,40=1/2;
 3/5=4,6=6,7=112,11=2,25=1,30=1,70=32201,72=21,74=-7/1,2,3,8;
 4//1;
 5/5=2,38=5,53=21/2;
 8/6=1,10=90,11=11/1;
 10/13=100,45=16/2;
 6/7=2,8=2,9=2,10=2,28=1/1;
 99/9=1/99;
 ----
 58RR
 ----
 Symbolic Z-matrix:
 Charge =  0 Multiplicity = 1
 C                     9.11982  -0.94876   1.46044 
 C                     8.97703  -1.11524   0.07681 
 C                     7.77349  -0.7552   -0.5256 
 C                     6.70174  -0.22461   0.19941 
 C                     6.87616  -0.06196   1.58587 
 C                     8.07213  -0.4226    2.21473 
 C                     5.39396   0.1416   -0.46646 
 C                     4.26843   0.25648   0.57662 
 C                     4.78912   1.07704   1.76007 
 O                     5.89578   0.42322   2.40394 
 C                     2.97664   0.80439   0.01094 
 C                     1.82516   0.01213   0.00378 
 C                     0.59292   0.44568  -0.5054 
 C                     0.51929   1.74648  -1.0364 
 C                     1.65396   2.56076  -1.03825 
 C                     2.87101   2.10113  -0.51473 
 O                     10.26653  -1.28343   2.12367 
 O                     3.94508   2.94129  -0.54434 
 O                    -3.94508  -2.9413   -0.54435 
 O                    -10.26653   1.28342   2.12368 
 C                    -2.87101  -2.10114  -0.51474 
 C                    -1.65396  -2.56076  -1.03827 
 C                    -0.51929  -1.74648  -1.03642 
 C                    -0.59292  -0.44568  -0.50541 
 C                    -1.82516  -0.01214   0.00378 
 C                    -2.97665  -0.8044    0.01094 
 O                    -5.8958   -0.42331   2.40391 
 C                    -4.78915  -1.07711   1.76002 
 C                    -4.26843  -0.2565    0.57662 
 C                    -5.39394  -0.14154  -0.46646 
 C                    -8.07214   0.42255   2.21473 
 C                    -6.87617   0.06193   1.58586 
 C                    -6.70173   0.22466   0.19941 
 C                    -7.77346   0.7553   -0.52558 
 C                    -8.977     1.11533   0.07683 
 C                    -9.11981   0.94877   1.46045 
 O                     1.67146   3.82553  -1.58956 
 C                     0.90474   4.80589  -0.8621 
 O                    -0.64939   2.25697  -1.55355 
 C                    -0.92204   1.82704  -2.89442 
 O                     0.64938  -2.25697  -1.55357 
 C                     0.92203  -1.82703  -2.89444 
 O                    -1.67146  -3.82553  -1.58959 
 C                    -0.90474  -4.8059   -0.86214 
 H                     9.79226  -1.52795  -0.51255 
 H                     7.65608  -0.89658  -1.59771 
 H                     8.17912  -0.28857   3.28608 
 H                     5.4904    1.09573  -0.9974 
 H                     5.12926  -0.61218  -1.21695 
 H                     4.05655  -0.74752   0.96326 
 H                     5.10393   2.07415   1.43373 
 H                     4.028     1.18213   2.53636 
 H                     1.89069  -0.99191   0.40865 
 H                     10.90829  -1.62717   1.47765 
 H                     3.62936   3.75312  -0.99076 
 H                    -3.62936  -3.75313  -0.99078 
 H                    -10.90827   1.62721   1.47767 
 H                    -1.8907    0.99189   0.40866 
 H                    -5.10396  -2.0742    1.43362 
 H                    -4.02804  -1.18225   2.53632 
 H                    -4.05654   0.74748   0.96332 
 H                    -5.4904   -1.09564  -0.99746 
 H                    -5.12923   0.61228  -1.21691 
 H                    -8.17915   0.28847   3.28607 
 H                    -7.65603   0.89674  -1.59769 
 H                    -9.79221   1.52809  -0.51252 
 H                     1.23577   4.85773   0.18178 
 H                     1.09085   5.76282  -1.35453 
 H                    -0.16036   4.5659   -0.90333 
 H                    -1.84384   2.32942  -3.19659 
 H                    -0.10759   2.1181   -3.56848 
 H                    -1.06709   0.74207  -2.94156 
 H                     1.84384  -2.3294   -3.19661 
 H                     0.10759  -2.11808  -3.5685 
 H                     1.06708  -0.74206  -2.94157 
 H                    -1.23577  -4.85773   0.18175 
 H                    -1.09085  -5.76282  -1.35457 
 H                     0.16036  -4.56591  -0.90337 
 
 Stoichiometry    C34H34O10
 Framework group  C1[X(C34H34O10)]
 Deg. of freedom   228
 Full point group                 C1      NOp   1
 Largest Abelian subgroup         C1      NOp   1
 Largest concise Abelian subgroup C1      NOp   1
                         Standard orientation:                         
 ---------------------------------------------------------------------
 Center     Atomic      Atomic             Coordinates (Angstroms)
 Number     Number       Type             X           Y           Z
 ---------------------------------------------------------------------
      1          6           0       -9.119815    0.948757    1.460443
      2          6           0       -8.977032    1.115244    0.076812
      3          6           0       -7.773486    0.755202   -0.525597
      4          6           0       -6.701744    0.224614    0.199410
      5          6           0       -6.876163    0.061962    1.585873
      6          6           0       -8.072131    0.422598    2.214731
      7          6           0       -5.393958   -0.141596   -0.466455
      8          6           0       -4.268428   -0.256483    0.576618
      9          6           0       -4.789124   -1.077036    1.760067
     10          8           0       -5.895775   -0.423218    2.403938
     11          6           0       -2.976643   -0.804386    0.010941
     12          6           0       -1.825158   -0.012132    0.003776
     13          6           0       -0.592915   -0.445675   -0.505402
     14          6           0       -0.519285   -1.746476   -1.036403
     15          6           0       -1.653955   -2.560758   -1.038253
     16          6           0       -2.871005   -2.101134   -0.514730
     17          8           0      -10.266532    1.283427    2.123668
     18          8           0       -3.945083   -2.941289   -0.544341
     19          8           0        3.945081    2.941301   -0.544351
     20          8           0       10.266527   -1.283422    2.123681
     21          6           0        2.871006    2.101142   -0.514744
     22          6           0        1.653956    2.560761   -1.038273
     23          6           0        0.519287    1.746478   -1.036419
     24          6           0        0.592917    0.445682   -0.505405
     25          6           0        1.825159    0.012144    0.003778
     26          6           0        2.976645    0.804397    0.010935
     27          8           0        5.895802    0.423310    2.403913
     28          6           0        4.789153    1.077109    1.760020
     29          6           0        4.268428    0.256501    0.576623
     30          6           0        5.393943    0.141537   -0.466459
     31          6           0        8.072141   -0.422552    2.214725
     32          6           0        6.876172   -0.061931    1.585862
     33          6           0        6.701732   -0.224657    0.199410
     34          6           0        7.773456   -0.755303   -0.525581
     35          6           0        8.977004   -1.115331    0.076832
     36          6           0        9.119808   -0.948769    1.460453
     37          8           0       -1.671455   -3.825527   -1.589557
     38          6           0       -0.904741   -4.805893   -0.862101
     39          8           0        0.649386   -2.256974   -1.553546
     40          6           0        0.922039   -1.827041   -2.894423
     41          8           0       -0.649383    2.256971   -1.553568
     42          6           0       -0.922033    1.827025   -2.894442
     43          8           0        1.671457    3.825526   -1.589586
     44          6           0        0.904742    4.805897   -0.862138
     45          1           0       -9.792255    1.527953   -0.512548
     46          1           0       -7.656076    0.896580   -1.597714
     47          1           0       -8.179124    0.288570    3.286080
     48          1           0       -5.490403   -1.095731   -0.997397
     49          1           0       -5.129263    0.612182   -1.216952
     50          1           0       -4.056551    0.747521    0.963260
     51          1           0       -5.103925   -2.074146    1.433728
     52          1           0       -4.027998   -1.182126    2.536360
     53          1           0       -1.890694    0.991906    0.408648
     54          1           0      -10.908291    1.627170    1.477646
     55          1           0       -3.629364   -3.753124   -0.990763
     56          1           0        3.629361    3.753134   -0.990776
     57          1           0       10.908273   -1.627211    1.477670
     58          1           0        1.890695   -0.991890    0.408659
     59          1           0        5.103963    2.074198    1.433623
     60          1           0        4.028038    1.182254    2.536317
     61          1           0        4.056539   -0.747479    0.963320
     62          1           0        5.490398    1.095640   -0.997455
     63          1           0        5.129226   -0.612279   -1.216910
     64          1           0        8.179151   -0.288467    3.286065
     65          1           0        7.656030   -0.896738   -1.597689
     66          1           0        9.792213   -1.528085   -0.512515
     67          1           0       -1.235769   -4.857725    0.181781
     68          1           0       -1.090848   -5.762817   -1.354532
     69          1           0        0.160357   -4.565902   -0.903328
     70          1           0        1.843842   -2.329421   -3.196585
     71          1           0        0.107593   -2.118101   -3.568482
     72          1           0        1.067090   -0.742074   -2.941559
     73          1           0       -1.843837    2.329400   -3.196610
     74          1           0       -0.107587    2.118080   -3.568503
     75          1           0       -1.067082    0.742056   -2.941569
     76          1           0        1.235765    4.857734    0.181745
     77          1           0        1.090853    5.762818   -1.354573
     78          1           0       -0.160357    4.565908   -0.903369
 ---------------------------------------------------------------------
 Rotational constants (GHZ):           0.1433716           0.0269731           0.0255255
 Standard basis: 6-311+G(2d,p) (5D, 7F)
 There are  1480 symmetry adapted cartesian basis functions of A   symmetry.
 There are  1392 symmetry adapted basis functions of A   symmetry.
  1392 basis functions,  2120 primitive gaussians,  1480 cartesian basis functions
   159 alpha electrons      159 beta electrons
       nuclear repulsion energy      5143.2383883054 Hartrees.
 NAtoms=   78 NActive=   78 NUniq=   78 SFac= 1.00D+00 NAtFMM=   60 NAOKFM=T Big=T
 Integral buffers will be    131072 words long.
 Raffenetti 2 integral format.
 Two-electron integral symmetry is turned on.
 ------------------------------------------------------------------------------
 Polarizable Continuum Model (PCM)
 =================================
 Model                : PCM.
 Atomic radii         : SMD-Coulomb.
 Polarization charges : Total charges.
 Charge compensation  : None.
 Solution method      : On-the-fly selection.
 Cavity type          : VdW (van der Waals Surface) (Alpha=1.000).
 Cavity algorithm     : GePol (No added spheres)
                        Default sphere list used, NSphG=   78.
                        Lebedev-Laikov grids with approx.  5.0 points / Ang**2.
                        Smoothing algorithm: York/Karplus (Gamma=1.0000).
                        Polarization charges: spherical gaussians, with
                                              point-specific exponents (IZeta= 3).
                        Self-potential: point-specific (ISelfS= 7).
                        Self-field    : sphere-specific E.n sum rule (ISelfD= 2).
 Solvent              : DiMethylSulfoxide, Eps=  46.826000 Eps(inf)=   2.185371
 ------------------------------------------------------------------------------
 ------------------------------------------------------------------------------
 Atomic radii for non-electrostatic terms: SMD-CDS.
 ------------------------------------------------------------------------------
 Nuclear repulsion after PCM non-electrostatic terms =     5143.2341010574 Hartrees.
 One-electron integrals computed using PRISM.
 NBasis=  1392 RedAO= T EigKep=  1.01D-06  NBF=  1392
 NBsUse=  1380 1.00D-06 EigRej=  9.90D-07 NBFU=  1380
 ExpMin= 4.38D-02 ExpMax= 8.59D+03 ExpMxC= 1.30D+03 IAcc=3 IRadAn=         5 AccDes= 0.00D+00
 Harris functional with IExCor=  908 and IRadAn=       5 diagonalized for initial guess.
 HarFok:  IExCor=  908 AccDes= 0.00D+00 IRadAn=         5 IDoV= 1 UseB2=F ITyADJ=14
 ICtDFT=  3500011 ScaDFX=  1.000000  1.000000  1.000000  1.000000
 FoFCou: FMM=F IPFlag=           0 FMFlag=      100000 FMFlg1=        2001
         NFxFlg=           0 DoJE=T BraDBF=F KetDBF=T FulRan=T
         wScrn=  0.000000 ICntrl=       500 IOpCl=  0 I1Cent=   200000004 NGrid=           0
         NMat0=    1 NMatS0=      1 NMatT0=    0 NMatD0=    1 NMtDS0=    0 NMtDT0=    0
 Petite list used in FoFCou.
 Requested convergence on RMS density matrix=1.00D-08 within 128 cycles.
 Requested convergence on MAX density matrix=1.00D-06.
 Requested convergence on             energy=1.00D-06.
 No special actions if energy rises.
 Inv3:  Mode=1 IEnd=    94080000.
 Iteration    1 A*A^-1 deviation from unit magnitude is 3.44D-15 for   4719.
 Iteration    1 A*A^-1 deviation from orthogonality  is 2.44D-15 for   4386    110.
 Iteration    1 A^-1*A deviation from unit magnitude is 3.11D-15 for   2480.
 Iteration    1 A^-1*A deviation from orthogonality  is 2.66D-15 for   3818   2118.
 Error on total polarization charges =  0.05075
 SCF Done:  E(RmPW1PW91) =  -2068.42313966     A.U. after   14 cycles
            NFock= 14  Conv=0.37D-08     -V/T= 2.0043
 SMD-CDS (non-electrostatic) energy       (kcal/mol) =      -2.69
 (included in total energy above)
 DoSCS=F DFT=T ScalE2(SS,OS)=  1.000000  1.000000
 Range of M.O.s used for correlation:     1  1380
 NBasis=  1392 NAE=   159 NBE=   159 NFC=     0 NFV=     0
 NROrb=   1380 NOA=   159 NOB=   159 NVA=  1221 NVB=  1221

 **** Warning!!: The largest alpha MO coefficient is  0.12202013D+03

 NEqPCM:  Using equilibrium solvation (IEInf=0, Eps=  46.8260, EpsInf=   2.1854)
          Differentiating once with respect to magnetic field using GIAOs.
          Electric field/nuclear overlap derivatives assumed to be zero.
 FoFJK:  IHMeth= 1 ICntrl=    6127 DoSepK=F KAlg= 0 I1Cent=           0 FoldK=F
 IRaf=         1 NMat=       1 IRICut=       1 DoRegI=T DoRafI=F ISym2E= 0 IDoP0=0 IntGTp=1.
          There are     3 degrees of freedom in the 1st order CPHF.  IDoFFX=0 NUNeed=     3.
      3 vectors produced by pass  0 Test12= 6.47D-12 3.33D-08 XBig12= 3.49D+03 8.24D+00.
 AX will form     3 AO Fock derivatives at one time.
      3 vectors produced by pass  1 Test12= 6.47D-12 3.33D-08 XBig12= 1.13D+01 9.31D-01.
      3 vectors produced by pass  2 Test12= 6.47D-12 3.33D-08 XBig12= 6.62D-02 6.17D-02.
      3 vectors produced by pass  3 Test12= 6.47D-12 3.33D-08 XBig12= 2.21D-04 2.99D-03.
      3 vectors produced by pass  4 Test12= 6.47D-12 3.33D-08 XBig12= 6.22D-07 1.34D-04.
      3 vectors produced by pass  5 Test12= 6.47D-12 3.33D-08 XBig12= 2.41D-09 7.81D-06.
      3 vectors produced by pass  6 Test12= 6.47D-12 3.33D-08 XBig12= 1.06D-11 6.29D-07.
      1 vectors produced by pass  7 Test12= 6.47D-12 3.33D-08 XBig12= 5.17D-14 4.29D-08.
 InvSVY:  IOpt=1 It=  1 EMax= 2.84D-14
 Solved reduced A of dimension    22 with     3 vectors.
 Calculating GIAO nuclear magnetic shielding tensors.
 SCF GIAO Magnetic shielding tensor (ppm):
      1  C    Isotropic =    24.1252   Anisotropy =   139.5191
   XX=   -28.0903   YX=    50.2224   ZX=    33.8990
   XY=    49.6720   YY=    97.5131   ZY=     3.9022
   XZ=    37.6870   YZ=     3.5907   ZZ=     2.9527
   Eigenvalues:   -62.1509    17.3885   117.1379
      2  C    Isotropic =    77.1097   Anisotropy =   125.0075
   XX=    40.8049   YX=    51.0610   ZX=   -28.2690
   XY=    51.4327   YY=   135.5600   ZY=    30.1025
   XZ=   -23.4227   YZ=    26.2991   ZZ=    54.9641
   Eigenvalues:    -3.1992    74.0803   160.4480
      3  C    Isotropic =    50.6348   Anisotropy =   169.4138
   XX=    55.8675   YX=    40.2622   ZX=    15.5869
   XY=    43.1537   YY=   141.1601   ZY=    30.6021
   XZ=    22.4864   YZ=    26.3991   ZZ=   -45.1233
   Eigenvalues:   -51.0375    39.3645   163.5773
      4  C    Isotropic =    66.8320   Anisotropy =   159.3114
   XX=    18.5379   YX=    53.5804   ZX=    28.9448
   XY=    42.1743   YY=   155.7459   ZY=     3.9070
   XZ=    19.0950   YZ=    18.7101   ZZ=    26.2122
   Eigenvalues:    -8.2040    35.6604   173.0396
      5  C    Isotropic =    24.1486   Anisotropy =   139.8759
   XX=   -13.6657   YX=    54.7459   ZX=   -21.5526
   XY=    57.4786   YY=    90.4444   ZY=    26.0476
   XZ=   -26.8958   YZ=    31.7754   ZZ=    -4.3330
   Eigenvalues:   -59.4584    14.5050   117.3992
      6  C    Isotropic =    81.3645   Anisotropy =   114.2525
   XX=    80.5511   YX=    28.3826   ZX=    11.7634
   XY=    26.4243   YY=   143.8875   ZY=    20.0072
   XZ=     9.8682   YZ=    18.3576   ZZ=    19.6550
   Eigenvalues:    16.0111    70.5496   157.5329
      7  C    Isotropic =   155.6705   Anisotropy =    21.3838
   XX=   168.6776   YX=    -2.7428   ZX=     2.9847
   XY=    -7.1843   YY=   148.5372   ZY=    -2.1518
   XZ=    -1.2630   YZ=    -2.3980   ZZ=   149.7967
   Eigenvalues:   146.2156   150.8695   169.9264
      8  C    Isotropic =   143.1939   Anisotropy =    32.2976
   XX=   144.2170   YX=    -3.5067   ZX=    -8.1023
   XY=   -13.9708   YY=   151.6888   ZY=    12.5863
   XZ=   -15.1174   YZ=     7.7167   ZZ=   133.6757
   Eigenvalues:   125.4711   139.3848   164.7256
      9  C    Isotropic =   116.6140   Anisotropy =    62.4320
   XX=   133.8074   YX=   -25.5411   ZX=   -25.5962
   XY=   -15.9991   YY=   109.9047   ZY=     8.9872
   XZ=   -23.6271   YZ=     7.0417   ZZ=   106.1299
   Eigenvalues:    90.5702   101.0365   158.2353
     10  O    Isotropic =   208.4891   Anisotropy =    99.4829
   XX=   178.2244   YX=    40.8911   ZX=    44.2991
   XY=    40.3474   YY=   248.5649   ZY=    28.9464
   XZ=    55.8040   YZ=   -28.1498   ZZ=   198.6780
   Eigenvalues:   128.7939   221.8623   274.8110
     11  C    Isotropic =    58.9960   Anisotropy =   155.8865
   XX=    12.8159   YX=     7.1302   ZX=    46.6008
   XY=   -12.1534   YY=    33.5075   ZY=   -46.2208
   XZ=    38.7570   YZ=   -54.3913   ZZ=   130.6645
   Eigenvalues:    -7.7183    21.7859   162.9203
     12  C    Isotropic =    52.8886   Anisotropy =   145.8383
   XX=    56.2540   YX=    -1.8430   ZX=    24.9895
   XY=    -7.6392   YY=   -13.6760   ZY=   -62.1302
   XZ=    27.2369   YZ=   -67.5471   ZZ=   116.0877
   Eigenvalues:   -40.8570    49.4086   150.1141
     13  C    Isotropic =    58.1493   Anisotropy =   146.3636
   XX=     8.7035   YX=   -44.4061   ZX=    26.1782
   XY=   -28.3506   YY=    33.1915   ZY=   -39.9296
   XZ=    33.4975   YZ=   -33.4700   ZZ=   132.5530
   Eigenvalues:   -17.5016    36.2244   155.7251
     14  C    Isotropic =    30.2782   Anisotropy =   117.4587
   XX=    -7.8058   YX=    -3.1942   ZX=    36.1041
   XY=    11.1875   YY=    18.8086   ZY=   -43.4334
   XZ=    45.5662   YZ=   -31.2892   ZZ=    79.8318
   Eigenvalues:   -31.2186    13.4692   108.5840
     15  C    Isotropic =    40.6351   Anisotropy =   107.7299
   XX=    24.9308   YX=    -1.9036   ZX=    24.4235
   XY=    -6.3928   YY=    11.3535   ZY=   -36.9517
   XZ=    23.8144   YZ=   -51.0288   ZZ=    85.6210
   Eigenvalues:   -10.4204    19.8707   112.4550
     16  C    Isotropic =    32.1057   Anisotropy =   125.1202
   XX=    -6.5637   YX=   -28.0131   ZX=    22.0186
   XY=   -40.0826   YY=     5.3391   ZY=   -32.6482
   XZ=    19.5662   YZ=   -32.0035   ZZ=    97.5419
   Eigenvalues:   -35.3890    16.1870   115.5192
     17  O    Isotropic =   212.7458   Anisotropy =    64.7610
   XX=   239.5288   YX=    -0.3845   ZX=   -35.1345
   XY=    -2.7354   YY=   221.5616   ZY=    21.2050
   XZ=   -29.4036   YZ=    18.3263   ZZ=   177.1468
   Eigenvalues:   158.4850   223.8325   255.9198
     18  O    Isotropic =   226.8606   Anisotropy =   106.8562
   XX=   204.6203   YX=   -15.6663   ZX=    20.8873
   XY=    30.0077   YY=   201.0342   ZY=   -50.8331
   XZ=    32.6650   YZ=   -30.6327   ZZ=   274.9273
   Eigenvalues:   172.3347   210.1491   298.0981
     19  O    Isotropic =   226.8606   Anisotropy =   106.8555
   XX=   204.6204   YX=   -15.6660   ZX=   -20.8874
   XY=    30.0076   YY=   201.0348   ZY=    50.8328
   XZ=   -32.6655   YZ=    30.6327   ZZ=   274.9265
   Eigenvalues:   172.3348   210.1495   298.0976
     20  O    Isotropic =   212.7457   Anisotropy =    64.7603
   XX=   239.5291   YX=    -0.3829   ZX=    35.1333
   XY=    -2.7340   YY=   221.5597   ZY=   -21.2078
   XZ=    29.4024   YZ=   -18.3292   ZZ=   177.1481
   Eigenvalues:   158.4850   223.8328   255.9192
     21  C    Isotropic =    32.1056   Anisotropy =   125.1202
   XX=    -6.5636   YX=   -28.0134   ZX=   -22.0191
   XY=   -40.0827   YY=     5.3391   ZY=    32.6483
   XZ=   -19.5665   YZ=    32.0037   ZZ=    97.5414
   Eigenvalues:   -35.3891    16.1869   115.5191
     22  C    Isotropic =    40.6351   Anisotropy =   107.7298
   XX=    24.9309   YX=    -1.9037   ZX=   -24.4237
   XY=    -6.3931   YY=    11.3539   ZY=    36.9524
   XZ=   -23.8148   YZ=    51.0287   ZZ=    85.6204
   Eigenvalues:   -10.4204    19.8706   112.4549
     23  C    Isotropic =    30.2782   Anisotropy =   117.4588
   XX=    -7.8055   YX=    -3.1945   ZX=   -36.1042
   XY=    11.1869   YY=    18.8091   ZY=    43.4340
   XZ=   -45.5666   YZ=    31.2897   ZZ=    79.8310
   Eigenvalues:   -31.2186    13.4692   108.5841
     24  C    Isotropic =    58.1494   Anisotropy =   146.3635
   XX=     8.7037   YX=   -44.4063   ZX=   -26.1779
   XY=   -28.3508   YY=    33.1923   ZY=    39.9305
   XZ=   -33.4972   YZ=    33.4707   ZZ=   132.5523
   Eigenvalues:   -17.5014    36.2246   155.7251
     25  C    Isotropic =    52.8887   Anisotropy =   145.8385
   XX=    56.2537   YX=    -1.8432   ZX=   -24.9893
   XY=    -7.6391   YY=   -13.6745   ZY=    62.1315
   XZ=   -27.2359   YZ=    67.5489   ZZ=   116.0868
   Eigenvalues:   -40.8569    49.4086   150.1143
     26  C    Isotropic =    58.9958   Anisotropy =   155.8867
   XX=    12.8159   YX=     7.1294   ZX=   -46.6010
   XY=   -12.1544   YY=    33.5081   ZY=    46.2217
   XZ=   -38.7578   YZ=    54.3920   ZZ=   130.6633
   Eigenvalues:    -7.7183    21.7854   162.9202
     27  O    Isotropic =   208.4892   Anisotropy =    99.4832
   XX=   178.2246   YX=    40.8901   ZX=   -44.3021
   XY=    40.3450   YY=   248.5635   ZY=   -28.9492
   XZ=   -55.8060   YZ=    28.1474   ZZ=   198.6794
   Eigenvalues:   128.7937   221.8625   274.8113
     28  C    Isotropic =   116.6142   Anisotropy =    62.4321
   XX=   133.8074   YX=   -25.5404   ZX=    25.5970
   XY=   -15.9988   YY=   109.9051   ZY=    -8.9879
   XZ=    23.6274   YZ=    -7.0419   ZZ=   106.1301
   Eigenvalues:    90.5703   101.0367   158.2356
     29  C    Isotropic =   143.1940   Anisotropy =    32.2975
   XX=   144.2171   YX=    -3.5060   ZX=     8.1028
   XY=   -13.9702   YY=   151.6881   ZY=   -12.5870
   XZ=    15.1176   YZ=    -7.7177   ZZ=   133.6768
   Eigenvalues:   125.4712   139.3851   164.7257
     30  C    Isotropic =   155.6700   Anisotropy =    21.3847
   XX=   168.6775   YX=    -2.7433   ZX=    -2.9847
   XY=    -7.1845   YY=   148.5372   ZY=     2.1519
   XZ=     1.2627   YZ=     2.3978   ZZ=   149.7955
   Eigenvalues:   146.2152   150.8685   169.9265
     31  C    Isotropic =    81.3645   Anisotropy =   114.2526
   XX=    80.5517   YX=    28.3828   ZX=   -11.7660
   XY=    26.4247   YY=   143.8845   ZY=   -20.0140
   XZ=    -9.8708   YZ=   -18.3646   ZZ=    19.6573
   Eigenvalues:    16.0111    70.5495   157.5329
     32  C    Isotropic =    24.1487   Anisotropy =   139.8760
   XX=   -13.6632   YX=    54.7482   ZX=    21.5491
   XY=    57.4814   YY=    90.4397   ZY=   -26.0539
   XZ=    26.8921   YZ=   -31.7818   ZZ=    -4.3304
   Eigenvalues:   -59.4581    14.5049   117.3994
     33  C    Isotropic =    66.8322   Anisotropy =   159.3111
   XX=    18.5391   YX=    53.5806   ZX=   -28.9478
   XY=    42.1754   YY=   155.7431   ZY=    -3.9142
   XZ=   -19.0978   YZ=   -18.7175   ZZ=    26.2143
   Eigenvalues:    -8.2039    35.6608   173.0396
     34  C    Isotropic =    50.6348   Anisotropy =   169.4140
   XX=    55.8683   YX=    40.2624   ZX=   -15.5910
   XY=    43.1534   YY=   141.1558   ZY=   -30.6129
   XZ=   -22.4904   YZ=   -26.4096   ZZ=   -45.1196
   Eigenvalues:   -51.0375    39.3645   163.5775
     35  C    Isotropic =    77.1096   Anisotropy =   125.0074
   XX=    40.8070   YX=    51.0637   ZX=    28.2657
   XY=    51.4352   YY=   135.5550   ZY=   -30.1086
   XZ=    23.4196   YZ=   -26.3045   ZZ=    54.9667
   Eigenvalues:    -3.1993    74.0802   160.4479
     36  C    Isotropic =    24.1250   Anisotropy =   139.5195
   XX=   -28.0899   YX=    50.2227   ZX=   -33.9014
   XY=    49.6721   YY=    97.5111   ZY=    -3.9074
   XZ=   -37.6894   YZ=    -3.5959   ZZ=     2.9538
   Eigenvalues:   -62.1513    17.3883   117.1380
     37  O    Isotropic =   281.8210   Anisotropy =    99.8393
   XX=   227.9062   YX=    18.6421   ZX=    23.2808
   XY=     0.2567   YY=   279.7456   ZY=    -1.4236
   XZ=    48.0090   YZ=    -6.6679   ZZ=   337.8112
   Eigenvalues:   215.7297   281.3528   348.3805
     38  C    Isotropic =   124.5057   Anisotropy =    94.1033
   XX=   113.4597   YX=   -36.7394   ZX=    22.9265
   XY=   -31.6797   YY=   146.2119   ZY=   -29.3005
   XZ=    22.9091   YZ=   -31.1309   ZZ=   113.8454
   Eigenvalues:    89.9601    96.3157   187.2412
     39  O    Isotropic =   276.4971   Anisotropy =    95.1690
   XX=   270.8373   YX=   -39.8878   ZX=    29.1164
   XY=   -36.1948   YY=   243.1128   ZY=   -26.0594
   XZ=     4.0371   YZ=   -34.4326   ZZ=   315.5412
   Eigenvalues:   213.9003   275.6479   339.9431
     40  C    Isotropic =   126.1637   Anisotropy =    85.8583
   XX=   105.3537   YX=     2.7770   ZX=   -19.0370
   XY=     7.1302   YY=    99.5723   ZY=   -19.9599
   XZ=   -21.1051   YZ=   -17.0155   ZZ=   173.5651
   Eigenvalues:    95.2011    99.8873   183.4026
     41  O    Isotropic =   276.4970   Anisotropy =    95.1690
   XX=   270.8371   YX=   -39.8878   ZX=   -29.1161
   XY=   -36.1948   YY=   243.1133   ZY=    26.0600
   XZ=    -4.0370   YZ=    34.4330   ZZ=   315.5405
   Eigenvalues:   213.9004   275.6476   339.9430
     42  C    Isotropic =   126.1636   Anisotropy =    85.8584
   XX=   105.3534   YX=     2.7772   ZX=    19.0369
   XY=     7.1305   YY=    99.5726   ZY=    19.9606
   XZ=    21.1050   YZ=    17.0162   ZZ=   173.5647
   Eigenvalues:    95.2010    99.8871   183.4025
     43  O    Isotropic =   281.8210   Anisotropy =    99.8394
   XX=   227.9064   YX=    18.6420   ZX=   -23.2812
   XY=     0.2566   YY=   279.7454   ZY=     1.4237
   XZ=   -48.0089   YZ=     6.6682   ZZ=   337.8111
   Eigenvalues:   215.7298   281.3526   348.3806
     44  C    Isotropic =   124.5057   Anisotropy =    94.1033
   XX=   113.4598   YX=   -36.7396   ZX=   -22.9262
   XY=   -31.6798   YY=   146.2123   ZY=    29.3002
   XZ=   -22.9089   YZ=    31.1306   ZZ=   113.8449
   Eigenvalues:    89.9601    96.3157   187.2412
     45  H    Isotropic =    24.9638   Anisotropy =     4.5466
   XX=    26.3315   YX=    -1.4621   ZX=    -1.8184
   XY=    -1.5486   YY=    21.9810   ZY=    -0.0531
   XZ=    -1.0093   YZ=    -0.5100   ZZ=    26.5790
   Eigenvalues:    21.4131    25.4836    27.9949
     46  H    Isotropic =    24.1875   Anisotropy =     8.2413
   XX=    28.3383   YX=    -2.9777   ZX=     0.8690
   XY=    -3.2523   YY=    21.7919   ZY=    -1.0414
   XZ=     0.3164   YZ=    -0.5281   ZZ=    22.4324
   Eigenvalues:    20.4133    22.4676    29.6817
     47  H    Isotropic =    24.9289   Anisotropy =     6.7641
   XX=    28.5139   YX=    -2.5416   ZX=    -0.6775
   XY=    -2.3883   YY=    22.1390   ZY=    -0.4561
   XZ=    -0.9476   YZ=    -0.2247   ZZ=    24.1339
   Eigenvalues:    21.1792    24.1692    29.4383
     48  H    Isotropic =    27.9656   Anisotropy =     7.9809
   XX=    28.8727   YX=    -2.2487   ZX=     0.3070
   XY=    -4.7584   YY=    29.0273   ZY=     4.7253
   XZ=     2.4675   YZ=     3.8419   ZZ=    25.9969
   Eigenvalues:    21.5331    29.0776    33.2862
     49  H    Isotropic =    28.8021   Anisotropy =     6.5864
   XX=    30.6970   YX=    -0.6926   ZX=    -1.5063
   XY=    -0.6361   YY=    27.2189   ZY=    -5.4754
   XZ=     0.8626   YZ=    -5.0924   ZZ=    28.4905
   Eigenvalues:    22.4713    30.7420    33.1931
     50  H    Isotropic =    28.4402   Anisotropy =     7.4572
   XX=    30.9707   YX=     1.8468   ZX=    -0.8296
   XY=     4.2774   YY=    29.4087   ZY=     2.3535
   XZ=    -0.8750   YZ=     2.0827   ZZ=    24.9411
   Eigenvalues:    23.4486    28.4602    33.4116
     51  H    Isotropic =    26.8198   Anisotropy =     8.4830
   XX=    25.0165   YX=    -2.7739   ZX=    -4.7625
   XY=    -1.4439   YY=    30.2686   ZY=     0.7733
   XZ=    -5.2958   YZ=     1.4012   ZZ=    25.1744
   Eigenvalues:    20.0095    27.9748    32.4752
     52  H    Isotropic =    27.4043   Anisotropy =     4.2335
   XX=    29.1654   YX=    -2.2579   ZX=     1.1812
   XY=    -2.2511   YY=    23.1631   ZY=    -1.1304
   XZ=    -2.3451   YZ=    -0.8837   ZZ=    29.8845
   Eigenvalues:    22.2406    29.7457    30.2267
     53  H    Isotropic =    24.0257   Anisotropy =    12.4929
   XX=    30.1068   YX=     2.6791   ZX=    -2.8215
   XY=     2.5309   YY=    21.2455   ZY=    -0.8632
   XZ=    -5.3456   YZ=    -1.3429   ZZ=    20.7249
   Eigenvalues:    19.1864    20.5365    32.3543
     54  H    Isotropic =    27.0379   Anisotropy =    13.6064
   XX=    31.9929   YX=    -5.5790   ZX=     4.2922
   XY=    -5.2570   YY=    21.3448   ZY=    -3.1071
   XZ=     1.9430   YZ=    -2.1867   ZZ=    27.7759
   Eigenvalues:    18.8798    26.1250    36.1088
     55  H    Isotropic =    25.3512   Anisotropy =    16.0859
   XX=    28.2746   YX=    -1.7339   ZX=    -4.4124
   XY=    -4.1857   YY=    29.5367   ZY=     7.5175
   XZ=    -4.0813   YZ=     7.5957   ZZ=    18.2424
   Eigenvalues:    13.9938    25.9847    36.0752
     56  H    Isotropic =    25.3512   Anisotropy =    16.0860
   XX=    28.2745   YX=    -1.7339   ZX=     4.4125
   XY=    -4.1856   YY=    29.5366   ZY=    -7.5175
   XZ=     4.0814   YZ=    -7.5958   ZZ=    18.2425
   Eigenvalues:    13.9938    25.9846    36.0752
     57  H    Isotropic =    27.0378   Anisotropy =    13.6064
   XX=    31.9926   YX=    -5.5794   ZX=    -4.2919
   XY=    -5.2572   YY=    21.3452   ZY=     3.1075
   XZ=    -1.9427   YZ=     2.1872   ZZ=    27.7757
   Eigenvalues:    18.8798    26.1250    36.1087
     58  H    Isotropic =    24.0258   Anisotropy =    12.4929
   XX=    30.1068   YX=     2.6791   ZX=     2.8214
   XY=     2.5309   YY=    21.2455   ZY=     0.8633
   XZ=     5.3455   YZ=     1.3429   ZZ=    20.7249
   Eigenvalues:    19.1864    20.5365    32.3543
     59  H    Isotropic =    26.8197   Anisotropy =     8.4836
   XX=    25.0164   YX=    -2.7738   ZX=     4.7628
   XY=    -1.4438   YY=    30.2685   ZY=    -0.7738
   XZ=     5.2960   YZ=    -1.4016   ZZ=    25.1741
   Eigenvalues:    20.0091    27.9745    32.4754
     60  H    Isotropic =    27.4043   Anisotropy =     4.2336
   XX=    29.1652   YX=    -2.2581   ZX=    -1.1811
   XY=    -2.2512   YY=    23.1633   ZY=     1.1307
   XZ=     2.3453   YZ=     0.8841   ZZ=    29.8844
   Eigenvalues:    22.2406    29.7457    30.2267
     61  H    Isotropic =    28.4402   Anisotropy =     7.4571
   XX=    30.9708   YX=     1.8468   ZX=     0.8294
   XY=     4.2774   YY=    29.4084   ZY=    -2.3537
   XZ=     0.8748   YZ=    -2.0830   ZZ=    24.9414
   Eigenvalues:    23.4487    28.4603    33.4116
     62  H    Isotropic =    27.9658   Anisotropy =     7.9802
   XX=    28.8727   YX=    -2.2485   ZX=    -0.3070
   XY=    -4.7583   YY=    29.0270   ZY=    -4.7251
   XZ=    -2.4674   YZ=    -3.8417   ZZ=    25.9978
   Eigenvalues:    21.5336    29.0779    33.2859
     63  H    Isotropic =    28.8021   Anisotropy =     6.5864
   XX=    30.6970   YX=    -0.6925   ZX=     1.5065
   XY=    -0.6360   YY=    27.2194   ZY=     5.4755
   XZ=    -0.8625   YZ=     5.0926   ZZ=    28.4899
   Eigenvalues:    22.4712    30.7421    33.1931
     64  H    Isotropic =    24.9289   Anisotropy =     6.7641
   XX=    28.5138   YX=    -2.5417   ZX=     0.6776
   XY=    -2.3883   YY=    22.1391   ZY=     0.4563
   XZ=     0.9477   YZ=     0.2248   ZZ=    24.1338
   Eigenvalues:    21.1793    24.1692    29.4383
     65  H    Isotropic =    24.1875   Anisotropy =     8.2413
   XX=    28.3382   YX=    -2.9779   ZX=    -0.8689
   XY=    -3.2524   YY=    21.7921   ZY=     1.0415
   XZ=    -0.3163   YZ=     0.5282   ZZ=    22.4324
   Eigenvalues:    20.4133    22.4676    29.6817
     66  H    Isotropic =    24.9639   Anisotropy =     4.5466
   XX=    26.3315   YX=    -1.4621   ZX=     1.8185
   XY=    -1.5486   YY=    21.9811   ZY=     0.0533
   XZ=     1.0094   YZ=     0.5103   ZZ=    26.5789
   Eigenvalues:    21.4131    25.4836    27.9949
     67  H    Isotropic =    28.1207   Anisotropy =     9.1408
   XX=    26.5205   YX=    -2.0409   ZX=     1.5263
   XY=    -1.0540   YY=    29.2635   ZY=    -5.0577
   XZ=    -0.5837   YZ=    -4.9545   ZZ=    28.5780
   Eigenvalues:    23.7085    26.4389    34.2146
     68  H    Isotropic =    27.6383   Anisotropy =     9.9732
   XX=    25.5187   YX=    -2.7939   ZX=    -0.0845
   XY=    -0.6229   YY=    33.9540   ZY=     1.7892
   XZ=     0.6193   YZ=    -1.5870   ZZ=    23.4421
   Eigenvalues:    23.3975    25.2302    34.2871
     69  H    Isotropic =    27.0240   Anisotropy =     7.4408
   XX=    29.9490   YX=    -0.5341   ZX=    -0.2535
   XY=    -2.6952   YY=    29.5201   ZY=    -1.6726
   XZ=     2.5588   YZ=    -3.2863   ZZ=    21.6031
   Eigenvalues:    20.8405    28.2470    31.9846
     70  H    Isotropic =    28.1130   Anisotropy =     9.1868
   XX=    28.7713   YX=    -1.6101   ZX=    -2.8947
   XY=     0.4923   YY=    25.7228   ZY=     0.7320
   XZ=    -5.8859   YZ=     3.7848   ZZ=    29.8448
   Eigenvalues:    23.9889    26.1125    34.2375
     71  H    Isotropic =    28.3402   Anisotropy =     8.5230
   XX=    25.2997   YX=     1.4477   ZX=    -0.1776
   XY=     1.9240   YY=    25.8689   ZY=    -0.6811
   XZ=     1.1137   YZ=     2.6315   ZZ=    33.8520
   Eigenvalues:    23.8670    27.1315    34.0222
     72  H    Isotropic =    28.3972   Anisotropy =     4.3383
   XX=    24.2984   YX=     0.6842   ZX=    -1.5820
   XY=     2.4655   YY=    30.1528   ZY=     0.9820
   XZ=    -2.3004   YZ=    -0.2837   ZZ=    30.7405
   Eigenvalues:    23.3757    30.5265    31.2894
     73  H    Isotropic =    28.1130   Anisotropy =     9.1868
   XX=    28.7712   YX=    -1.6100   ZX=     2.8947
   XY=     0.4924   YY=    25.7228   ZY=    -0.7319
   XZ=     5.8859   YZ=    -3.7848   ZZ=    29.8449
   Eigenvalues:    23.9889    26.1125    34.2375
     74  H    Isotropic =    28.3402   Anisotropy =     8.5230
   XX=    25.2997   YX=     1.4477   ZX=     0.1776
   XY=     1.9240   YY=    25.8689   ZY=     0.6812
   XZ=    -1.1137   YZ=    -2.6314   ZZ=    33.8520
   Eigenvalues:    23.8670    27.1315    34.0222
     75  H    Isotropic =    28.3972   Anisotropy =     4.3383
   XX=    24.2983   YX=     0.6843   ZX=     1.5819
   XY=     2.4655   YY=    30.1528   ZY=    -0.9819
   XZ=     2.3003   YZ=     0.2837   ZZ=    30.7405
   Eigenvalues:    23.3757    30.5265    31.2894
     76  H    Isotropic =    28.1207   Anisotropy =     9.1408
   XX=    26.5205   YX=    -2.0409   ZX=    -1.5263
   XY=    -1.0540   YY=    29.2635   ZY=     5.0577
   XZ=     0.5837   YZ=     4.9545   ZZ=    28.5779
   Eigenvalues:    23.7085    26.4389    34.2146
     77  H    Isotropic =    27.6383   Anisotropy =     9.9732
   XX=    25.5186   YX=    -2.7939   ZX=     0.0845
   XY=    -0.6229   YY=    33.9540   ZY=    -1.7893
   XZ=    -0.6192   YZ=     1.5869   ZZ=    23.4421
   Eigenvalues:    23.3975    25.2302    34.2871
     78  H    Isotropic =    27.0240   Anisotropy =     7.4409
   XX=    29.9490   YX=    -0.5341   ZX=     0.2536
   XY=    -2.6952   YY=    29.5201   ZY=     1.6725
   XZ=    -2.5587   YZ=     3.2863   ZZ=    21.6030
   Eigenvalues:    20.8405    28.2470    31.9846
 End of Minotr F.D. properties file   721 does not exist.
 End of Minotr F.D. properties file   722 does not exist.
 End of Minotr F.D. properties file   788 does not exist.

 **********************************************************************

            Population analysis using the SCF Density.

 **********************************************************************

 Orbital symmetries:
       Occupied  (A) (A) (A) (A) (A) (A) (A) (A) (A) (A) (A) (A)
                 (A) (A) (A) (A) (A) (A) (A) (A) (A) (A) (A) (A)
                 (A) (A) (A) (A) (A) (A) (A) (A) (A) (A) (A) (A)
                 (A) (A) (A) (A) (A) (A) (A) (A) (A) (A) (A) (A)
                 (A) (A) (A) (A) (A) (A) (A) (A) (A) (A) (A) (A)
                 (A) (A) (A) (A) (A) (A) (A) (A) (A) (A) (A) (A)
                 (A) (A) (A) (A) (A) (A) (A) (A) (A) (A) (A) (A)
                 (A) (A) (A) (A) (A) (A) (A) (A) (A) (A) (A) (A)
                 (A) (A) (A) (A) (A) (A) (A) (A) (A) (A) (A) (A)
                 (A) (A) (A) (A) (A) (A) (A) (A) (A) (A) (A) (A)
                 (A) (A) (A) (A) (A) (A) (A) (A) (A) (A) (A) (A)
                 (A) (A) (A) (A) (A) (A) (A) (A) (A) (A) (A) (A)
                 (A) (A) (A) (A) (A) (A) (A) (A) (A) (A) (A) (A)
                 (A) (A) (A)
       Virtual   (A) (A) (A) (A) (A) (A) (A) (A) (A) (A) (A) (A)
                 (A) (A) (A) (A) (A) (A) (A) (A) (A) (A) (A) (A)
                 (A) (A) (A) (A) (A) (A) (A) (A) (A) (A) (A) (A)
                 (A) (A) (A) (A) (A) (A) (A) (A) (A) (A) (A) (A)
                 (A) (A) (A) (A) (A) (A) (A) (A) (A) (A) (A) (A)
                 (A) (A) (A) (A) (A) (A) (A) (A) (A) (A) (A) (A)
                 (A) (A) (A) (A) (A) (A) (A) (A) (A) (A) (A) (A)
                 (A) (A) (A) (A) (A) (A) (A) (A) (A) (A) (A) (A)
                 (A) (A) (A) (A) (A) (A) (A) (A) (A) (A) (A) (A)
                 (A) (A) (A) (A) (A) (A) (A) (A) (A) (A) (A) (A)
                 (A) (A) (A) (A) (A) (A) (A) (A) (A) (A) (A) (A)
                 (A) (A) (A) (A) (A) (A) (A) (A) (A) (A) (A) (A)
                 (A) (A) (A) (A) (A) (A) (A) (A) (A) (A) (A) (A)
                 (A) (A) (A) (A) (A) (A) (A) (A) (A) (A) (A) (A)
                 (A) (A) (A) (A) (A) (A) (A) (A) (A) (A) (A) (A)
                 (A) (A) (A) (A) (A) (A) (A) (A) (A) (A) (A) (A)
                 (A) (A) (A) (A) (A) (A) (A) (A) (A) (A) (A) (A)
                 (A) (A) (A) (A) (A) (A) (A) (A) (A) (A) (A) (A)
                 (A) (A) (A) (A) (A) (A) (A) (A) (A) (A) (A) (A)
                 (A) (A) (A) (A) (A) (A) (A) (A) (A) (A) (A) (A)
                 (A) (A) (A) (A) (A) (A) (A) (A) (A) (A) (A) (A)
                 (A) (A) (A) (A) (A) (A) (A) (A) (A) (A) (A) (A)
                 (A) (A) (A) (A) (A) (A) (A) (A) (A) (A) (A) (A)
                 (A) (A) (A) (A) (A) (A) (A) (A) (A) (A) (A) (A)
                 (A) (A) (A) (A) (A) (A) (A) (A) (A) (A) (A) (A)
                 (A) (A) (A) (A) (A) (A) (A) (A) (A) (A) (A) (A)
                 (A) (A) (A) (A) (A) (A) (A) (A) (A) (A) (A) (A)
                 (A) (A) (A) (A) (A) (A) (A) (A) (A) (A) (A) (A)
                 (A) (A) (A) (A) (A) (A) (A) (A) (A) (A) (A) (A)
                 (A) (A) (A) (A) (A) (A) (A) (A) (A) (A) (A) (A)
                 (A) (A) (A) (A) (A) (A) (A) (A) (A) (A) (A) (A)
                 (A) (A) (A) (A) (A) (A) (A) (A) (A) (A) (A) (A)
                 (A) (A) (A) (A) (A) (A) (A) (A) (A) (A) (A) (A)
                 (A) (A) (A) (A) (A) (A) (A) (A) (A) (A) (A) (A)
                 (A) (A) (A) (A) (A) (A) (A) (A) (A) (A) (A) (A)
                 (A) (A) (A) (A) (A) (A) (A) (A) (A) (A) (A) (A)
                 (A) (A) (A) (A) (A) (A) (A) (A) (A) (A) (A) (A)
                 (A) (A) (A) (A) (A) (A) (A) (A) (A) (A) (A) (A)
                 (A) (A) (A) (A) (A) (A) (A) (A) (A) (A) (A) (A)
                 (A) (A) (A) (A) (A) (A) (A) (A) (A) (A) (A) (A)
                 (A) (A) (A) (A) (A) (A) (A) (A) (A) (A) (A) (A)
                 (A) (A) (A) (A) (A) (A) (A) (A) (A) (A) (A) (A)
                 (A) (A) (A) (A) (A) (A) (A) (A) (A) (A) (A) (A)
                 (A) (A) (A) (A) (A) (A) (A) (A) (A) (A) (A) (A)
                 (A) (A) (A) (A) (A) (A) (A) (A) (A) (A) (A) (A)
                 (A) (A) (A) (A) (A) (A) (A) (A) (A) (A) (A) (A)
                 (A) (A) (A) (A) (A) (A) (A) (A) (A) (A) (A) (A)
                 (A) (A) (A) (A) (A) (A) (A) (A) (A) (A) (A) (A)
                 (A) (A) (A) (A) (A) (A) (A) (A) (A) (A) (A) (A)
                 (A) (A) (A) (A) (A) (A) (A) (A) (A) (A) (A) (A)
                 (A) (A) (A) (A) (A) (A) (A) (A) (A) (A) (A) (A)
                 (A) (A) (A) (A) (A) (A) (A) (A) (A) (A) (A) (A)
                 (A) (A) (A) (A) (A) (A) (A) (A) (A) (A) (A) (A)
                 (A) (A) (A) (A) (A) (A) (A) (A) (A) (A) (A) (A)
                 (A) (A) (A) (A) (A) (A) (A) (A) (A) (A) (A) (A)
                 (A) (A) (A) (A) (A) (A) (A) (A) (A) (A) (A) (A)
                 (A) (A) (A) (A) (A) (A) (A) (A) (A) (A) (A) (A)
                 (A) (A) (A) (A) (A) (A) (A) (A) (A) (A) (A) (A)
                 (A) (A) (A) (A) (A) (A) (A) (A) (A) (A) (A) (A)
                 (A) (A) (A) (A) (A) (A) (A) (A) (A) (A) (A) (A)
                 (A) (A) (A) (A) (A) (A) (A) (A) (A) (A) (A) (A)
                 (A) (A) (A) (A) (A) (A) (A) (A) (A) (A) (A) (A)
                 (A) (A) (A) (A) (A) (A) (A) (A) (A) (A) (A) (A)
                 (A) (A) (A) (A) (A) (A) (A) (A) (A) (A) (A) (A)
                 (A) (A) (A) (A) (A) (A) (A) (A) (A) (A) (A) (A)
                 (A) (A) (A) (A) (A) (A) (A) (A) (A) (A) (A) (A)
                 (A) (A) (A) (A) (A) (A) (A) (A) (A) (A) (A) (A)
                 (A) (A) (A) (A) (A) (A) (A) (A) (A) (A) (A) (A)
                 (A) (A) (A) (A) (A) (A) (A) (A) (A) (A) (A) (A)
                 (A) (A) (A) (A) (A) (A) (A) (A) (A) (A) (A) (A)
                 (A) (A) (A) (A) (A) (A) (A) (A) (A) (A) (A) (A)
                 (A) (A) (A) (A) (A) (A) (A) (A) (A) (A) (A) (A)
                 (A) (A) (A) (A) (A) (A) (A) (A) (A) (A) (A) (A)
                 (A) (A) (A) (A) (A) (A) (A) (A) (A) (A) (A) (A)
                 (A) (A) (A) (A) (A) (A) (A) (A) (A) (A) (A) (A)
                 (A) (A) (A) (A) (A) (A) (A) (A) (A) (A) (A) (A)
                 (A) (A) (A) (A) (A) (A) (A) (A) (A) (A) (A) (A)
                 (A) (A) (A) (A) (A) (A) (A) (A) (A) (A) (A) (A)
                 (A) (A) (A) (A) (A) (A) (A) (A) (A) (A) (A) (A)
                 (A) (A) (A) (A) (A) (A) (A) (A) (A) (A) (A) (A)
                 (A) (A) (A) (A) (A) (A) (A) (A) (A) (A) (A) (A)
                 (A) (A) (A) (A) (A) (A) (A) (A) (A) (A) (A) (A)
                 (A) (A) (A) (A) (A) (A) (A) (A) (A) (A) (A) (A)
                 (A) (A) (A) (A) (A) (A) (A) (A) (A) (A) (A) (A)
                 (A) (A) (A) (A) (A) (A) (A) (A) (A) (A) (A) (A)
                 (A) (A) (A) (A) (A) (A) (A) (A) (A) (A) (A) (A)
                 (A) (A) (A) (A) (A) (A) (A) (A) (A) (A) (A) (A)
                 (A) (A) (A) (A) (A) (A) (A) (A) (A) (A) (A) (A)
                 (A) (A) (A) (A) (A) (A) (A) (A) (A) (A) (A) (A)
                 (A) (A) (A) (A) (A) (A) (A) (A) (A) (A) (A) (A)
                 (A) (A) (A) (A) (A) (A) (A) (A) (A) (A) (A) (A)
                 (A) (A) (A) (A) (A) (A) (A) (A) (A) (A) (A) (A)
                 (A) (A) (A) (A) (A) (A) (A) (A) (A) (A) (A) (A)
                 (A) (A) (A) (A) (A) (A) (A) (A) (A) (A) (A) (A)
                 (A) (A) (A) (A) (A) (A) (A) (A) (A) (A) (A) (A)
                 (A) (A) (A) (A) (A) (A) (A) (A) (A) (A) (A) (A)
                 (A) (A) (A) (A) (A) (A) (A) (A) (A) (A) (A) (A)
                 (A) (A) (A) (A) (A) (A) (A) (A) (A) (A) (A) (A)
                 (A) (A) (A) (A) (A) (A) (A) (A) (A) (A) (A) (A)
                 (A) (A) (A) (A) (A) (A) (A) (A) (A) (A) (A) (A)
                 (A) (A) (A) (A) (A) (A) (A) (A) (A) (A) (A) (A)
                 (A) (A) (A) (A) (A) (A) (A) (A) (A)
 The electronic state is 1-A.
 Alpha  occ. eigenvalues --  -19.25126 -19.25126 -19.25015 -19.25015 -19.24930
 Alpha  occ. eigenvalues --  -19.24930 -19.24571 -19.24571 -19.23741 -19.23741
 Alpha  occ. eigenvalues --  -10.30281 -10.30281 -10.30099 -10.30099 -10.29859
 Alpha  occ. eigenvalues --  -10.29859 -10.29760 -10.29760 -10.29307 -10.29307
 Alpha  occ. eigenvalues --  -10.27917 -10.27917 -10.27251 -10.27251 -10.27065
 Alpha  occ. eigenvalues --  -10.27065 -10.24993 -10.24958 -10.24854 -10.24854
 Alpha  occ. eigenvalues --  -10.24608 -10.24608 -10.23951 -10.23951 -10.23900
 Alpha  occ. eigenvalues --  -10.23900 -10.23884 -10.23884 -10.23216 -10.23216
 Alpha  occ. eigenvalues --  -10.23066 -10.23066 -10.22925 -10.22925  -1.11151
 Alpha  occ. eigenvalues --   -1.11137  -1.09442  -1.09442  -1.09169  -1.09169
 Alpha  occ. eigenvalues --   -1.08876  -1.08800  -1.07278  -1.07231  -0.89692
 Alpha  occ. eigenvalues --   -0.88286  -0.87950  -0.87890  -0.84414  -0.83586
 Alpha  occ. eigenvalues --   -0.79908  -0.78640  -0.78524  -0.77666  -0.77653
 Alpha  occ. eigenvalues --   -0.75954  -0.75466  -0.75111  -0.72534  -0.71544
 Alpha  occ. eigenvalues --   -0.70074  -0.69838  -0.68632  -0.68621  -0.66075
 Alpha  occ. eigenvalues --   -0.66040  -0.65457  -0.63261  -0.63164  -0.62707
 Alpha  occ. eigenvalues --   -0.61232  -0.60867  -0.59710  -0.58662  -0.57972
 Alpha  occ. eigenvalues --   -0.57055  -0.55892  -0.55713  -0.53601  -0.53521
 Alpha  occ. eigenvalues --   -0.53022  -0.52243  -0.51754  -0.51606  -0.50246
 Alpha  occ. eigenvalues --   -0.49970  -0.49686  -0.49461  -0.49111  -0.48994
 Alpha  occ. eigenvalues --   -0.48649  -0.48397  -0.47092  -0.46760  -0.46514
 Alpha  occ. eigenvalues --   -0.46455  -0.45655  -0.45483  -0.45289  -0.45232
 Alpha  occ. eigenvalues --   -0.44985  -0.44561  -0.44427  -0.44081  -0.43990
 Alpha  occ. eigenvalues --   -0.43183  -0.43160  -0.43135  -0.42322  -0.42283
 Alpha  occ. eigenvalues --   -0.41918  -0.41310  -0.41304  -0.41117  -0.40412
 Alpha  occ. eigenvalues --   -0.40339  -0.40162  -0.40084  -0.39808  -0.39368
 Alpha  occ. eigenvalues --   -0.39012  -0.37241  -0.37140  -0.36871  -0.36789
 Alpha  occ. eigenvalues --   -0.36736  -0.36674  -0.35680  -0.35107  -0.34534
 Alpha  occ. eigenvalues --   -0.33968  -0.33718  -0.33622  -0.32712  -0.32483
 Alpha  occ. eigenvalues --   -0.32075  -0.31987  -0.31502  -0.31142  -0.29057
 Alpha  occ. eigenvalues --   -0.28890  -0.25404  -0.25166  -0.24803  -0.24637
 Alpha  occ. eigenvalues --   -0.24530  -0.22671  -0.22517  -0.21799
 Alpha virt. eigenvalues --   -0.02199  -0.01176  -0.01039  -0.00784  -0.00677
 Alpha virt. eigenvalues --    0.00246   0.00339   0.01057   0.01189   0.01252
 Alpha virt. eigenvalues --    0.01332   0.01755   0.01761   0.02160   0.02369
 Alpha virt. eigenvalues --    0.02667   0.02958   0.03071   0.03220   0.03616
 Alpha virt. eigenvalues --    0.03791   0.04115   0.04187   0.04209   0.04614
 Alpha virt. eigenvalues --    0.04955   0.05330   0.05430   0.05613   0.05681
 Alpha virt. eigenvalues --    0.05936   0.06249   0.06414   0.06557   0.07033
 Alpha virt. eigenvalues --    0.07171   0.07232   0.07671   0.07722   0.08150
 Alpha virt. eigenvalues --    0.08694   0.08773   0.08826   0.09177   0.09604
 Alpha virt. eigenvalues --    0.09657   0.09990   0.10102   0.10280   0.10378
 Alpha virt. eigenvalues --    0.10700   0.10913   0.11000   0.11290   0.11546
 Alpha virt. eigenvalues --    0.11645   0.11991   0.12075   0.12337   0.12498
 Alpha virt. eigenvalues --    0.12517   0.12938   0.13033   0.13146   0.13410
 Alpha virt. eigenvalues --    0.13542   0.13922   0.14214   0.14216   0.14704
 Alpha virt. eigenvalues --    0.14762   0.15136   0.15153   0.15374   0.15566
 Alpha virt. eigenvalues --    0.15612   0.15690   0.15819   0.15826   0.16179
 Alpha virt. eigenvalues --    0.16464   0.16482   0.16785   0.16995   0.17144
 Alpha virt. eigenvalues --    0.17323   0.17469   0.17473   0.17700   0.17770
 Alpha virt. eigenvalues --    0.17955   0.17975   0.18066   0.18353   0.18771
 Alpha virt. eigenvalues --    0.18805   0.18843   0.19200   0.19220   0.19426
 Alpha virt. eigenvalues --    0.19584   0.19900   0.19947   0.20014   0.20141
 Alpha virt. eigenvalues --    0.20378   0.20591   0.20639   0.20734   0.20950
 Alpha virt. eigenvalues --    0.21122   0.21174   0.21338   0.21486   0.21766
 Alpha virt. eigenvalues --    0.21961   0.22121   0.22151   0.22155   0.22391
 Alpha virt. eigenvalues --    0.22755   0.22788   0.22910   0.23077   0.23230
 Alpha virt. eigenvalues --    0.23363   0.23571   0.23720   0.23768   0.23992
 Alpha virt. eigenvalues --    0.24107   0.24462   0.24728   0.24803   0.24873
 Alpha virt. eigenvalues --    0.24881   0.25229   0.25417   0.25702   0.25782
 Alpha virt. eigenvalues --    0.25889   0.26098   0.26234   0.26384   0.26474
 Alpha virt. eigenvalues --    0.26591   0.26857   0.26938   0.27084   0.27151
 Alpha virt. eigenvalues --    0.27569   0.27803   0.27861   0.28001   0.28187
 Alpha virt. eigenvalues --    0.28261   0.28522   0.28599   0.28738   0.28761
 Alpha virt. eigenvalues --    0.29094   0.29121   0.29240   0.29433   0.29610
 Alpha virt. eigenvalues --    0.29612   0.30072   0.30156   0.30281   0.30477
 Alpha virt. eigenvalues --    0.30545   0.30865   0.31112   0.31428   0.31586
 Alpha virt. eigenvalues --    0.31866   0.32084   0.32178   0.32586   0.32613
 Alpha virt. eigenvalues --    0.32803   0.32844   0.33164   0.33443   0.33552
 Alpha virt. eigenvalues --    0.33668   0.33949   0.34042   0.34491   0.34584
 Alpha virt. eigenvalues --    0.34863   0.34913   0.35060   0.35198   0.35359
 Alpha virt. eigenvalues --    0.35732   0.35802   0.36191   0.36303   0.36553
 Alpha virt. eigenvalues --    0.36621   0.36628   0.37241   0.37380   0.37516
 Alpha virt. eigenvalues --    0.37781   0.37921   0.37998   0.38376   0.38425
 Alpha virt. eigenvalues --    0.38641   0.38799   0.38810   0.39278   0.39311
 Alpha virt. eigenvalues --    0.39388   0.39773   0.39947   0.40135   0.40301
 Alpha virt. eigenvalues --    0.40418   0.40560   0.41113   0.41179   0.41783
 Alpha virt. eigenvalues --    0.42170   0.42356   0.42419   0.42990   0.43328
 Alpha virt. eigenvalues --    0.43500   0.43637   0.43867   0.44107   0.44240
 Alpha virt. eigenvalues --    0.44457   0.45087   0.45302   0.45865   0.46003
 Alpha virt. eigenvalues --    0.46268   0.46929   0.47315   0.47464   0.47672
 Alpha virt. eigenvalues --    0.47920   0.48214   0.48634   0.48692   0.48954
 Alpha virt. eigenvalues --    0.49154   0.49423   0.50180   0.50972   0.51113
 Alpha virt. eigenvalues --    0.51680   0.52121   0.52415   0.52547   0.52943
 Alpha virt. eigenvalues --    0.53089   0.53190   0.53496   0.54040   0.54042
 Alpha virt. eigenvalues --    0.54390   0.54707   0.54729   0.55215   0.55323
 Alpha virt. eigenvalues --    0.55604   0.56107   0.56127   0.56247   0.56414
 Alpha virt. eigenvalues --    0.56479   0.57164   0.57165   0.57690   0.58055
 Alpha virt. eigenvalues --    0.58188   0.58303   0.58474   0.58965   0.58996
 Alpha virt. eigenvalues --    0.59370   0.59605   0.59926   0.60105   0.61072
 Alpha virt. eigenvalues --    0.61187   0.61581   0.61834   0.61901   0.62250
 Alpha virt. eigenvalues --    0.62618   0.62843   0.63036   0.63139   0.63447
 Alpha virt. eigenvalues --    0.63611   0.63903   0.64693   0.64892   0.65190
 Alpha virt. eigenvalues --    0.65699   0.65719   0.65827   0.65948   0.66203
 Alpha virt. eigenvalues --    0.66238   0.66459   0.66681   0.66826   0.66955
 Alpha virt. eigenvalues --    0.67183   0.67238   0.67378   0.67613   0.68362
 Alpha virt. eigenvalues --    0.68682   0.68870   0.69108   0.69416   0.69576
 Alpha virt. eigenvalues --    0.69853   0.70056   0.70219   0.70474   0.70481
 Alpha virt. eigenvalues --    0.70634   0.71007   0.71518   0.71877   0.72049
 Alpha virt. eigenvalues --    0.72235   0.72368   0.72435   0.72481   0.72747
 Alpha virt. eigenvalues --    0.73052   0.73268   0.73618   0.73861   0.73954
 Alpha virt. eigenvalues --    0.74362   0.74380   0.74991   0.75203   0.75335
 Alpha virt. eigenvalues --    0.75495   0.75912   0.76008   0.76092   0.76267
 Alpha virt. eigenvalues --    0.76818   0.77172   0.77344   0.77401   0.77895
 Alpha virt. eigenvalues --    0.77927   0.78211   0.78225   0.79025   0.79027
 Alpha virt. eigenvalues --    0.79282   0.79393   0.79487   0.79653   0.79963
 Alpha virt. eigenvalues --    0.80252   0.80591   0.80738   0.80897   0.81006
 Alpha virt. eigenvalues --    0.81733   0.81932   0.81992   0.82049   0.82490
 Alpha virt. eigenvalues --    0.82588   0.83015   0.83178   0.83376   0.83612
 Alpha virt. eigenvalues --    0.84439   0.84521   0.84708   0.84943   0.85170
 Alpha virt. eigenvalues --    0.85333   0.85764   0.85980   0.86298   0.86552
 Alpha virt. eigenvalues --    0.87093   0.87164   0.87348   0.87717   0.87724
 Alpha virt. eigenvalues --    0.87871   0.88095   0.88646   0.89110   0.89321
 Alpha virt. eigenvalues --    0.90016   0.90152   0.90926   0.91161   0.91290
 Alpha virt. eigenvalues --    0.91425   0.91923   0.92033   0.92035   0.92729
 Alpha virt. eigenvalues --    0.92864   0.93099   0.93229   0.93726   0.94475
 Alpha virt. eigenvalues --    0.95327   0.95330   0.95927   0.96639   0.97051
 Alpha virt. eigenvalues --    0.97068   0.97862   0.98122   0.98352   0.98877
 Alpha virt. eigenvalues --    0.99106   1.00214   1.00514   1.00611   1.01200
 Alpha virt. eigenvalues --    1.01244   1.01936   1.02197   1.02668   1.03169
 Alpha virt. eigenvalues --    1.03444   1.03447   1.03887   1.04287   1.04764
 Alpha virt. eigenvalues --    1.05357   1.05490   1.05971   1.05977   1.06337
 Alpha virt. eigenvalues --    1.06441   1.07019   1.07500   1.07645   1.08011
 Alpha virt. eigenvalues --    1.08295   1.08532   1.08670   1.09219   1.09529
 Alpha virt. eigenvalues --    1.09986   1.10138   1.10417   1.10720   1.11135
 Alpha virt. eigenvalues --    1.11540   1.12197   1.12588   1.12729   1.13388
 Alpha virt. eigenvalues --    1.13566   1.14109   1.14793   1.14976   1.14998
 Alpha virt. eigenvalues --    1.15861   1.15978   1.16160   1.16557   1.16661
 Alpha virt. eigenvalues --    1.16994   1.17099   1.17639   1.17682   1.18080
 Alpha virt. eigenvalues --    1.18847   1.19008   1.19567   1.20043   1.20108
 Alpha virt. eigenvalues --    1.20321   1.20748   1.21145   1.21285   1.21364
 Alpha virt. eigenvalues --    1.21469   1.21801   1.22630   1.23250   1.23263
 Alpha virt. eigenvalues --    1.23560   1.23906   1.23987   1.24461   1.25278
 Alpha virt. eigenvalues --    1.25481   1.26238   1.26316   1.26845   1.26980
 Alpha virt. eigenvalues --    1.27395   1.27648   1.27699   1.28570   1.28624
 Alpha virt. eigenvalues --    1.28906   1.28921   1.29051   1.29723   1.29910
 Alpha virt. eigenvalues --    1.30270   1.30786   1.31126   1.31128   1.31413
 Alpha virt. eigenvalues --    1.32364   1.32463   1.33415   1.33674   1.33677
 Alpha virt. eigenvalues --    1.34177   1.34195   1.34817   1.34857   1.35601
 Alpha virt. eigenvalues --    1.35635   1.36133   1.36494   1.36653   1.36672
 Alpha virt. eigenvalues --    1.36833   1.37917   1.38199   1.38231   1.38791
 Alpha virt. eigenvalues --    1.38829   1.39389   1.39506   1.39640   1.40145
 Alpha virt. eigenvalues --    1.40553   1.40867   1.41285   1.41329   1.41738
 Alpha virt. eigenvalues --    1.42156   1.43561   1.43799   1.43965   1.44181
 Alpha virt. eigenvalues --    1.44700   1.44847   1.45657   1.45755   1.46267
 Alpha virt. eigenvalues --    1.46956   1.46996   1.47940   1.48334   1.49390
 Alpha virt. eigenvalues --    1.49842   1.50278   1.50418   1.50770   1.51358
 Alpha virt. eigenvalues --    1.51620   1.52694   1.53512   1.53786   1.53907
 Alpha virt. eigenvalues --    1.54345   1.54550   1.55353   1.55767   1.56274
 Alpha virt. eigenvalues --    1.56669   1.56711   1.57562   1.57710   1.58376
 Alpha virt. eigenvalues --    1.59050   1.59184   1.60015   1.60573   1.60873
 Alpha virt. eigenvalues --    1.61091   1.61501   1.61639   1.63145   1.63490
 Alpha virt. eigenvalues --    1.63710   1.63897   1.64061   1.65639   1.65748
 Alpha virt. eigenvalues --    1.66770   1.67295   1.67656   1.68364   1.69037
 Alpha virt. eigenvalues --    1.69665   1.69787   1.70366   1.71242   1.72045
 Alpha virt. eigenvalues --    1.72120   1.72322   1.73199   1.73551   1.73920
 Alpha virt. eigenvalues --    1.74443   1.74509   1.76494   1.76706   1.76853
 Alpha virt. eigenvalues --    1.77224   1.77300   1.77634   1.78183   1.78447
 Alpha virt. eigenvalues --    1.78695   1.78956   1.79885   1.80609   1.80671
 Alpha virt. eigenvalues --    1.81169   1.81934   1.82138   1.82390   1.82583
 Alpha virt. eigenvalues --    1.82787   1.83614   1.83753   1.84458   1.85093
 Alpha virt. eigenvalues --    1.86470   1.86675   1.88026   1.88115   1.89099
 Alpha virt. eigenvalues --    1.89223   1.90251   1.91436   1.91975   1.92241
 Alpha virt. eigenvalues --    1.92677   1.92815   1.93482   1.95061   1.95868
 Alpha virt. eigenvalues --    1.96224   1.97523   1.97584   1.98131   1.98484
 Alpha virt. eigenvalues --    1.98506   1.98903   1.99361   1.99742   1.99919
 Alpha virt. eigenvalues --    2.00292   2.00388   2.00691   2.01091   2.01896
 Alpha virt. eigenvalues --    2.01988   2.03592   2.04806   2.05586   2.06136
 Alpha virt. eigenvalues --    2.06503   2.06827   2.06971   2.07567   2.07960
 Alpha virt. eigenvalues --    2.08503   2.08589   2.09789   2.10707   2.11414
 Alpha virt. eigenvalues --    2.11968   2.13900   2.14225   2.14700   2.15423
 Alpha virt. eigenvalues --    2.17528   2.18225   2.18627   2.19552   2.19694
 Alpha virt. eigenvalues --    2.19885   2.21887   2.22255   2.22811   2.23188
 Alpha virt. eigenvalues --    2.24681   2.26361   2.26564   2.27674   2.27707
 Alpha virt. eigenvalues --    2.28044   2.28478   2.28779   2.29316   2.29457
 Alpha virt. eigenvalues --    2.29850   2.30082   2.30814   2.30824   2.31318
 Alpha virt. eigenvalues --    2.32050   2.33751   2.34144   2.34413   2.34757
 Alpha virt. eigenvalues --    2.35665   2.36021   2.37091   2.38120   2.38448
 Alpha virt. eigenvalues --    2.38732   2.40024   2.40117   2.40745   2.40768
 Alpha virt. eigenvalues --    2.40975   2.41266   2.42280   2.42422   2.42663
 Alpha virt. eigenvalues --    2.42892   2.44274   2.44922   2.45187   2.45511
 Alpha virt. eigenvalues --    2.45814   2.45948   2.46777   2.47110   2.47341
 Alpha virt. eigenvalues --    2.47493   2.48084   2.48354   2.48718   2.49625
 Alpha virt. eigenvalues --    2.50893   2.52005   2.52997   2.53470   2.54110
 Alpha virt. eigenvalues --    2.54146   2.58055   2.58322   2.59211   2.59741
 Alpha virt. eigenvalues --    2.61401   2.61446   2.62266   2.62488   2.63197
 Alpha virt. eigenvalues --    2.63341   2.64536   2.64577   2.65947   2.66226
 Alpha virt. eigenvalues --    2.67440   2.67902   2.68056   2.69509   2.69546
 Alpha virt. eigenvalues --    2.70321   2.71613   2.71831   2.72877   2.73624
 Alpha virt. eigenvalues --    2.75149   2.75291   2.75697   2.76153   2.76497
 Alpha virt. eigenvalues --    2.77750   2.77863   2.79247   2.79320   2.79357
 Alpha virt. eigenvalues --    2.79650   2.79913   2.79993   2.81510   2.83406
 Alpha virt. eigenvalues --    2.85004   2.85175   2.85275   2.85706   2.86837
 Alpha virt. eigenvalues --    2.88420   2.88580   2.89016   2.89817   2.90011
 Alpha virt. eigenvalues --    2.90658   2.91276   2.92270   2.93509   2.93634
 Alpha virt. eigenvalues --    2.94387   2.94438   2.95493   2.96183   2.96951
 Alpha virt. eigenvalues --    2.97414   2.98972   3.00055   3.00592   3.00725
 Alpha virt. eigenvalues --    3.01213   3.01479   3.02005   3.03287   3.03770
 Alpha virt. eigenvalues --    3.04127   3.04449   3.04721   3.05192   3.05740
 Alpha virt. eigenvalues --    3.05941   3.06305   3.06998   3.07283   3.08308
 Alpha virt. eigenvalues --    3.09059   3.09748   3.09961   3.10072   3.11461
 Alpha virt. eigenvalues --    3.12454   3.13019   3.13141   3.13770   3.14954
 Alpha virt. eigenvalues --    3.15162   3.16219   3.16371   3.16525   3.18456
 Alpha virt. eigenvalues --    3.19091   3.20763   3.20790   3.21288   3.21483
 Alpha virt. eigenvalues --    3.22106   3.22139   3.23824   3.24450   3.24699
 Alpha virt. eigenvalues --    3.25081   3.25799   3.25962   3.26216   3.26982
 Alpha virt. eigenvalues --    3.27112   3.27523   3.27839   3.29494   3.29547
 Alpha virt. eigenvalues --    3.30626   3.31066   3.31648   3.32724   3.33732
 Alpha virt. eigenvalues --    3.33917   3.35092   3.35631   3.35691   3.35804
 Alpha virt. eigenvalues --    3.36949   3.37266   3.37461   3.37561   3.38152
 Alpha virt. eigenvalues --    3.38577   3.38754   3.38973   3.39677   3.39783
 Alpha virt. eigenvalues --    3.40744   3.40768   3.41685   3.42819   3.42955
 Alpha virt. eigenvalues --    3.43489   3.43700   3.43944   3.44509   3.44871
 Alpha virt. eigenvalues --    3.44902   3.45095   3.45563   3.46126   3.46607
 Alpha virt. eigenvalues --    3.46729   3.47306   3.47352   3.47656   3.48078
 Alpha virt. eigenvalues --    3.48469   3.49583   3.49960   3.50568   3.50879
 Alpha virt. eigenvalues --    3.50920   3.51148   3.51711   3.52207   3.52508
 Alpha virt. eigenvalues --    3.53456   3.53998   3.54543   3.54853   3.54909
 Alpha virt. eigenvalues --    3.56042   3.56150   3.56900   3.57523   3.57660
 Alpha virt. eigenvalues --    3.57711   3.58323   3.58920   3.59350   3.59589
 Alpha virt. eigenvalues --    3.60460   3.60657   3.61615   3.61668   3.61994
 Alpha virt. eigenvalues --    3.62142   3.62744   3.62939   3.63266   3.63437
 Alpha virt. eigenvalues --    3.63841   3.64301   3.64945   3.65172   3.65248
 Alpha virt. eigenvalues --    3.65912   3.66941   3.67185   3.67494   3.67976
 Alpha virt. eigenvalues --    3.68281   3.68429   3.68964   3.69702   3.69790
 Alpha virt. eigenvalues --    3.70369   3.70525   3.70692   3.70752   3.72036
 Alpha virt. eigenvalues --    3.72543   3.73063   3.73429   3.73735   3.74247
 Alpha virt. eigenvalues --    3.74838   3.74944   3.75347   3.76125   3.76590
 Alpha virt. eigenvalues --    3.76771   3.77150   3.78099   3.78328   3.78445
 Alpha virt. eigenvalues --    3.78597   3.79394   3.80219   3.80676   3.80966
 Alpha virt. eigenvalues --    3.82294   3.83008   3.83197   3.83869   3.84592
 Alpha virt. eigenvalues --    3.85123   3.85812   3.86125   3.86418   3.86644
 Alpha virt. eigenvalues --    3.87635   3.87869   3.88061   3.88973   3.89247
 Alpha virt. eigenvalues --    3.89258   3.90163   3.90625   3.90973   3.92172
 Alpha virt. eigenvalues --    3.92896   3.94776   3.94879   3.95148   3.95452
 Alpha virt. eigenvalues --    3.96458   3.96820   3.97038   3.97867   3.98443
 Alpha virt. eigenvalues --    3.99007   3.99820   4.00198   4.01304   4.01863
 Alpha virt. eigenvalues --    4.02966   4.05160   4.05635   4.06275   4.08077
 Alpha virt. eigenvalues --    4.08207   4.08615   4.09854   4.09946   4.10907
 Alpha virt. eigenvalues --    4.12296   4.12389   4.12521   4.13206   4.14529
 Alpha virt. eigenvalues --    4.14810   4.15462   4.18782   4.19042   4.20065
 Alpha virt. eigenvalues --    4.20328   4.21789   4.22350   4.22548   4.23353
 Alpha virt. eigenvalues --    4.23632   4.24742   4.24990   4.27349   4.27671
 Alpha virt. eigenvalues --    4.27789   4.28484   4.28574   4.29483   4.30453
 Alpha virt. eigenvalues --    4.30927   4.31118   4.32074   4.32416   4.35485
 Alpha virt. eigenvalues --    4.36356   4.36798   4.41921   4.44540   4.45005
 Alpha virt. eigenvalues --    4.46288   4.46321   4.50152   4.50361   4.50604
 Alpha virt. eigenvalues --    4.51633   4.55283   4.56489   4.57842   4.60949
 Alpha virt. eigenvalues --    4.62079   4.68284   4.68302   4.72227   4.78243
 Alpha virt. eigenvalues --    4.80102   4.81922   4.82604   4.83424   4.87448
 Alpha virt. eigenvalues --    4.92480   4.93331   5.05982   5.06018   5.06326
 Alpha virt. eigenvalues --    5.11828   5.11890   5.16614   5.17396   5.24650
 Alpha virt. eigenvalues --    5.25341   5.28234   5.28250   5.31459   5.31908
 Alpha virt. eigenvalues --    5.43018   5.43491   5.48811   5.49082   5.55069
 Alpha virt. eigenvalues --    5.55219   5.59527   5.59742   5.60786   5.60811
 Alpha virt. eigenvalues --    5.72034   5.74208   5.84456   5.85349   5.94042
 Alpha virt. eigenvalues --    5.94060   5.96673   5.97293   6.02530   6.02557
 Alpha virt. eigenvalues --    6.04743   6.04996   6.87263   6.87265   6.91659
 Alpha virt. eigenvalues --    6.91711   6.98073   6.98084   6.99271   6.99271
 Alpha virt. eigenvalues --    7.03462   7.03513   7.04786   7.05216   7.06741
 Alpha virt. eigenvalues --    7.07294   7.07347   7.07550   7.08237   7.08656
 Alpha virt. eigenvalues --    7.10365   7.10874   7.11119   7.12067   7.13754
 Alpha virt. eigenvalues --    7.14506   7.16537   7.16608   7.21977   7.22003
 Alpha virt. eigenvalues --    7.27604   7.28125   7.31592   7.31597   7.34296
 Alpha virt. eigenvalues --    7.34435   7.37160   7.37851   7.37876   7.38531
 Alpha virt. eigenvalues --    7.40207   7.41237   7.44831   7.45798   7.49260
 Alpha virt. eigenvalues --    7.49277   7.56291   7.56546   7.58186   7.58641
 Alpha virt. eigenvalues --    7.58964   7.59057  23.77284  23.77972  23.80484
 Alpha virt. eigenvalues --   23.87829  24.02457  24.02681  24.06599  24.06914
 Alpha virt. eigenvalues --   24.07215  24.07576  24.09500  24.11111  24.11736
 Alpha virt. eigenvalues --   24.11804  24.12018  24.12151  24.14529  24.17560
 Alpha virt. eigenvalues --   24.17564  24.20817  24.22116  24.22859  24.23575
 Alpha virt. eigenvalues --   24.24994  24.27157  24.29695  24.29977  24.32539
 Alpha virt. eigenvalues --   24.33262  24.33599  24.36566  24.38620  24.39574
 Alpha virt. eigenvalues --   24.49538  50.10321  50.10325  50.12056  50.12703
 Alpha virt. eigenvalues --   50.16389  50.17677  50.20311  50.20338  50.22020
 Alpha virt. eigenvalues --   50.22405
          Condensed to atoms (all electrons):
 Mulliken charges:
               1
     1  C    0.058355
     2  C   -0.081224
     3  C   -0.446321
     4  C    1.121335
     5  C   -0.203253
     6  C   -0.593234
     7  C   -0.824005
     8  C    0.769769
     9  C   -0.410435
    10  O   -0.395913
    11  C    0.452284
    12  C   -0.876286
    13  C    0.914348
    14  C    0.302233
    15  C   -0.483464
    16  C   -0.322553
    17  O   -0.447419
    18  O   -0.489225
    19  O   -0.489232
    20  O   -0.447419
    21  C   -0.322515
    22  C   -0.483417
    23  C    0.302182
    24  C    0.914338
    25  C   -0.876287
    26  C    0.452281
    27  O   -0.395913
    28  C   -0.410439
    29  C    0.769773
    30  C   -0.824063
    31  C   -0.593240
    32  C   -0.203226
    33  C    1.121366
    34  C   -0.446337
    35  C   -0.081226
    36  C    0.058365
    37  O   -0.442253
    38  C   -0.248729
    39  O   -0.346942
    40  C   -0.311450
    41  O   -0.346941
    42  C   -0.311452
    43  O   -0.442254
    44  C   -0.248728
    45  H    0.150285
    46  H    0.150425
    47  H    0.147196
    48  H    0.204630
    49  H    0.184957
    50  H    0.136113
    51  H    0.190101
    52  H    0.180050
    53  H    0.167671
    54  H    0.316574
    55  H    0.353894
    56  H    0.353896
    57  H    0.316574
    58  H    0.167669
    59  H    0.190103
    60  H    0.180050
    61  H    0.136113
    62  H    0.204627
    63  H    0.184958
    64  H    0.147196
    65  H    0.150425
    66  H    0.150285
    67  H    0.184967
    68  H    0.176022
    69  H    0.192166
    70  H    0.185529
    71  H    0.193480
    72  H    0.190324
    73  H    0.185529
    74  H    0.193481
    75  H    0.190324
    76  H    0.184967
    77  H    0.176022
    78  H    0.192166
 Sum of Mulliken charges =  -0.00000
 Mulliken charges with hydrogens summed into heavy atoms:
               1
     1  C    0.058355
     2  C    0.069061
     3  C   -0.295896
     4  C    1.121335
     5  C   -0.203253
     6  C   -0.446038
     7  C   -0.434417
     8  C    0.905882
     9  C   -0.040285
    10  O   -0.395913
    11  C    0.452284
    12  C   -0.708615
    13  C    0.914348
    14  C    0.302233
    15  C   -0.483464
    16  C   -0.322553
    17  O   -0.130846
    18  O   -0.135331
    19  O   -0.135336
    20  O   -0.130845
    21  C   -0.322515
    22  C   -0.483417
    23  C    0.302182
    24  C    0.914338
    25  C   -0.708618
    26  C    0.452281
    27  O   -0.395913
    28  C   -0.040286
    29  C    0.905886
    30  C   -0.434478
    31  C   -0.446044
    32  C   -0.203226
    33  C    1.121366
    34  C   -0.295912
    35  C    0.069059
    36  C    0.058365
    37  O   -0.442253
    38  C    0.304426
    39  O   -0.346942
    40  C    0.257884
    41  O   -0.346941
    42  C    0.257882
    43  O   -0.442254
    44  C    0.304427
 Electronic spatial extent (au):  <R**2>=          40452.2841
 Charge=             -0.0000 electrons
 Dipole moment (field-independent basis, Debye):
    X=             -0.0000    Y=             -0.0002    Z=             -8.2492  Tot=              8.2492
 Quadrupole moment (field-independent basis, Debye-Ang):
   XX=           -271.6880   YY=           -223.0986   ZZ=           -259.4426
   XY=            -15.7127   XZ=              0.0004   YZ=             -0.0001
 Traceless Quadrupole moment (field-independent basis, Debye-Ang):
   XX=            -20.2783   YY=             28.3111   ZZ=             -8.0328
   XY=            -15.7127   XZ=              0.0004   YZ=             -0.0001
 Octapole moment (field-independent basis, Debye-Ang**2):
  XXX=             -0.0087  YYY=              0.0000  ZZZ=            -83.1091  XYY=              0.0056
  XXY=             -0.0149  XXZ=           -459.5671  XZZ=             -0.0008  YZZ=             -0.0004
  YYZ=            -27.2091  XYZ=             49.0171
 Hexadecapole moment (field-independent basis, Debye-Ang**3):
 XXXX=         -38426.2531 YYYY=          -4825.1953 ZZZZ=          -3348.8915 XXXY=          -3070.2755
 XXXZ=              0.0576 YYYX=            374.4387 YYYZ=             -0.0041 ZZZX=              0.0005
 ZZZY=              0.0011 XXYY=          -8119.6558 XXZZ=          -9069.0497 YYZZ=          -1575.1856
 XXYZ=             -0.0086 YYXZ=             -0.0003 ZZXY=             77.8758
 N-N= 5.143234101057D+03 E-N=-1.511892964806D+04  KE= 2.059475174429D+03
 Unable to Open any file for archive entry.
 1\1\GINC-C01B01N04\SP\RmPW1PW91\6-311+G(2d,p)\C34H34O10\ROOT\25-Sep-20
 25\0\\# mPW1PW91/6-311+g(2d,p) NMR scrf(SMD,solvent=dmso) geom=connect
 ivity\\58RR\\0,1\C,0,9.119815,-0.948757,1.460443\C,0,8.977032,-1.11524
 4,0.076812\C,0,7.773486,-0.755202,-0.525597\C,0,6.701744,-0.224614,0.1
 9941\C,0,6.876163,-0.061962,1.585873\C,0,8.072131,-0.422598,2.214731\C
 ,0,5.393958,0.141596,-0.466455\C,0,4.268428,0.256483,0.576618\C,0,4.78
 9124,1.077036,1.760067\O,0,5.895775,0.423218,2.403938\C,0,2.976643,0.8
 04386,0.010941\C,0,1.825158,0.012132,0.003776\C,0,0.592915,0.445675,-0
 .505402\C,0,0.519285,1.746476,-1.036403\C,0,1.653955,2.560758,-1.03825
 3\C,0,2.871005,2.101134,-0.51473\O,0,10.266532,-1.283427,2.123668\O,0,
 3.945083,2.941289,-0.544341\O,0,-3.945081,-2.941301,-0.544351\O,0,-10.
 266527,1.283422,2.123681\C,0,-2.871006,-2.101142,-0.514744\C,0,-1.6539
 56,-2.560761,-1.038273\C,0,-0.519287,-1.746478,-1.036419\C,0,-0.592917
 ,-0.445682,-0.505405\C,0,-1.825159,-0.012144,0.003778\C,0,-2.976645,-0
 .804397,0.010935\O,0,-5.895802,-0.42331,2.403913\C,0,-4.789153,-1.0771
 09,1.76002\C,0,-4.268428,-0.256501,0.576623\C,0,-5.393943,-0.141537,-0
 .466459\C,0,-8.072141,0.422552,2.214725\C,0,-6.876172,0.061931,1.58586
 2\C,0,-6.701732,0.224657,0.19941\C,0,-7.773456,0.755303,-0.525581\C,0,
 -8.977004,1.115331,0.076832\C,0,-9.119808,0.948769,1.460453\O,0,1.6714
 55,3.825527,-1.589557\C,0,0.904741,4.805893,-0.862101\O,0,-0.649386,2.
 256974,-1.553546\C,0,-0.922039,1.827041,-2.894423\O,0,0.649383,-2.2569
 71,-1.553568\C,0,0.922033,-1.827025,-2.894442\O,0,-1.671457,-3.825526,
 -1.589586\C,0,-0.904742,-4.805897,-0.862138\H,0,9.792255,-1.527953,-0.
 512548\H,0,7.656076,-0.89658,-1.597714\H,0,8.179124,-0.28857,3.28608\H
 ,0,5.490403,1.095731,-0.997397\H,0,5.129263,-0.612182,-1.216952\H,0,4.
 056551,-0.747521,0.96326\H,0,5.103925,2.074146,1.433728\H,0,4.027998,1
 .182126,2.53636\H,0,1.890694,-0.991906,0.408648\H,0,10.908291,-1.62717
 ,1.477646\H,0,3.629364,3.753124,-0.990763\H,0,-3.629361,-3.753134,-0.9
 90776\H,0,-10.908273,1.627211,1.47767\H,0,-1.890695,0.99189,0.408659\H
 ,0,-5.103963,-2.074198,1.433623\H,0,-4.028038,-1.182254,2.536317\H,0,-
 4.056539,0.747479,0.96332\H,0,-5.490398,-1.09564,-0.997455\H,0,-5.1292
 26,0.612279,-1.21691\H,0,-8.179151,0.288467,3.286065\H,0,-7.65603,0.89
 6738,-1.597689\H,0,-9.792213,1.528085,-0.512515\H,0,1.235769,4.857725,
 0.181781\H,0,1.090848,5.762817,-1.354532\H,0,-0.160357,4.565902,-0.903
 328\H,0,-1.843842,2.329421,-3.196585\H,0,-0.107593,2.118101,-3.568482\
 H,0,-1.06709,0.742074,-2.941559\H,0,1.843837,-2.3294,-3.19661\H,0,0.10
 7587,-2.11808,-3.568503\H,0,1.067082,-0.742056,-2.941569\H,0,-1.235765
 ,-4.857734,0.181745\H,0,-1.090853,-5.762818,-1.354573\H,0,0.160357,-4.
 565908,-0.903369\\Version=ES64L-G16RevC.02\State=1-A\HF=-2068.4231397\
 RMSD=3.683e-09\Dipole=0.0000047,0.0000705,-3.2454841\Quadrupole=-15.07
 64151,21.0486343,-5.9722192,-11.6819815,-0.0002746,0.0000673\PG=C01 [X
 (C34H34O10)]\\@
 The archive entry for this job was punched.


    UPON JULIA'S CLOTHES

 WHENAS IN SILKS MY JULIA GOES,
 THEN, THEN, METHINKS, HOW SWEETLY FLOWS
 THAT LIQUEFACTION OF HER CLOTHES.

 NEXT, WHEN I CAST MINE EYES, AND SEE
 THAT BRAVE VIBRATION, EACH WAY FREE,
 O, HOW THAT GLITTERING TAKETH ME!
     -- ROBERT HERRICK, 1648
 Job cpu time:       0 days  8 hours 43 minutes 36.3 seconds.
 Elapsed time:       0 days  0 hours 11 minutes 44.6 seconds.
 File lengths (MBytes):  RWF=   1615 Int=      0 D2E=      0 Chk=    151 Scr=      1
 Normal termination of Gaussian 16 at Thu Sep 25 18:07:43 2025.
