 Entering Gaussian System, Link 0=/home/tupf/tupf_yangsy/lustre1/g16/Gaussian16_AVX2/g16/g16
 Input=58RR_3.gjf
 Output=58RR_3.log
 Initial command:
 /home/tupf/tupf_yangsy/lustre1/g16/Gaussian16_AVX2/g16/l1.exe "/home/tupf/tupf_yangsy/lustre1/g16/tmp/Gau-2019157.inp" -scrdir="/home/tupf/tupf_yangsy/lustre1/g16/tmp/"
 Entering Link 1 = /home/tupf/tupf_yangsy/lustre1/g16/Gaussian16_AVX2/g16/l1.exe PID=   2019158.
  
 Copyright (c) 1988-2021, Gaussian, Inc.  All Rights Reserved.
  
 This is part of the Gaussian(R) 16 program.  It is based on
 the Gaussian(R) 09 system (copyright 2009, Gaussian, Inc.),
 the Gaussian(R) 03 system (copyright 2003, Gaussian, Inc.),
 the Gaussian(R) 98 system (copyright 1998, Gaussian, Inc.),
 the Gaussian(R) 94 system (copyright 1995, Gaussian, Inc.),
 the Gaussian 92(TM) system (copyright 1992, Gaussian, Inc.),
 the Gaussian 90(TM) system (copyright 1990, Gaussian, Inc.),
 the Gaussian 88(TM) system (copyright 1988, Gaussian, Inc.),
 the Gaussian 86(TM) system (copyright 1986, Carnegie Mellon
 University), and the Gaussian 82(TM) system (copyright 1983,
 Carnegie Mellon University). Gaussian is a federally registered
 trademark of Gaussian, Inc.
  
 This software contains proprietary and confidential information,
 including trade secrets, belonging to Gaussian, Inc.
  
 This software is provided under written license and may be
 used, copied, transmitted, or stored only in accord with that
 written license.
  
 The following legend is applicable only to US Government
 contracts under FAR:
  
                    RESTRICTED RIGHTS LEGEND
  
 Use, reproduction and disclosure by the US Government is
 subject to restrictions as set forth in subparagraphs (a)
 and (c) of the Commercial Computer Software - Restricted
 Rights clause in FAR 52.227-19.
  
 Gaussian, Inc.
 340 Quinnipiac St., Bldg. 40, Wallingford CT 06492
  
  
 ---------------------------------------------------------------
 Warning -- This program may not be used in any manner that
 competes with the business of Gaussian, Inc. or will provide
 assistance to any competitor of Gaussian, Inc.  The licensee
 of this program is prohibited from giving any competitor of
 Gaussian, Inc. access to this program.  By using this program,
 the user acknowledges that Gaussian, Inc. is engaged in the
 business of creating and licensing software in the field of
 computational chemistry and represents and warrants to the
 licensee that it is not a competitor of Gaussian, Inc. and that
 it will not use this program in any manner prohibited above.
 ---------------------------------------------------------------
  

 Cite this work as:
 Gaussian 16, Revision C.02,
 M. J. Frisch, G. W. Trucks, H. B. Schlegel, G. E. Scuseria, 
 M. A. Robb, J. R. Cheeseman, G. Scalmani, V. Barone, 
 G. A. Petersson, H. Nakatsuji, X. Li, M. Caricato, A. V. Marenich, 
 J. Bloino, B. G. Janesko, R. Gomperts, B. Mennucci, H. P. Hratchian, 
 J. V. Ortiz, A. F. Izmaylov, J. L. Sonnenberg, D. Williams-Young, 
 F. Ding, F. Lipparini, F. Egidi, J. Goings, B. Peng, A. Petrone, 
 T. Henderson, D. Ranasinghe, V. G. Zakrzewski, J. Gao, N. Rega, 
 G. Zheng, W. Liang, M. Hada, M. Ehara, K. Toyota, R. Fukuda, 
 J. Hasegawa, M. Ishida, T. Nakajima, Y. Honda, O. Kitao, H. Nakai, 
 T. Vreven, K. Throssell, J. A. Montgomery, Jr., J. E. Peralta, 
 F. Ogliaro, M. J. Bearpark, J. J. Heyd, E. N. Brothers, K. N. Kudin, 
 V. N. Staroverov, T. A. Keith, R. Kobayashi, J. Normand, 
 K. Raghavachari, A. P. Rendell, J. C. Burant, S. S. Iyengar, 
 J. Tomasi, M. Cossi, J. M. Millam, M. Klene, C. Adamo, R. Cammi, 
 J. W. Ochterski, R. L. Martin, K. Morokuma, O. Farkas, 
 J. B. Foresman, and D. J. Fox, Gaussian, Inc., Wallingford CT, 2019.
 
 ******************************************
 Gaussian 16:  ES64L-G16RevC.02  7-Dec-2021
                25-Sep-2025 
 ******************************************
 %mem=400GB
 %nprocshared=64
 Will use up to   64 processors via shared memory.
 ---------------------------------------------------------------------
 # mPW1PW91/6-311+g(2d,p) NMR scrf(SMD,solvent=dmso) geom=connectivity
 ---------------------------------------------------------------------
 1/38=1,57=2,172=1/1;
 2/12=2,17=6,18=5,40=1/2;
 3/5=4,6=6,7=112,11=2,25=1,30=1,70=32201,72=21,74=-7/1,2,3,8;
 4//1;
 5/5=2,38=5,53=21/2;
 8/6=1,10=90,11=11/1;
 10/13=100,45=16/2;
 6/7=2,8=2,9=2,10=2,28=1/1;
 99/9=1/99;
 ----
 58RR
 ----
 Symbolic Z-matrix:
 Charge =  0 Multiplicity = 1
 C                     2.33566  -2.87589  -0.93144 
 C                     1.96997  -2.60928  -2.25837 
 C                     0.65169  -2.8262   -2.65275 
 C                    -0.31897  -3.32397  -1.77748 
 C                     0.08133  -3.61083  -0.46009 
 C                     1.39608  -3.38811  -0.03769 
 C                    -1.76829  -3.47203  -2.18907 
 C                    -2.69264  -3.49362  -0.96189 
 C                    -2.08168  -4.47994   0.04241 
 O                    -0.78404  -4.06167   0.49446 
 C                    -2.93104  -2.13834  -0.31901 
 C                    -2.14472  -1.01263  -0.57318 
 C                    -2.33894   0.22149   0.06488 
 C                    -3.37956   0.33499   0.99967 
 C                    -4.20919  -0.76513   1.24176 
 C                    -3.98242  -1.98901   0.59664 
 O                     3.59918  -2.64514  -0.46203 
 O                    -4.80416  -3.04123   0.87293 
 O                     1.40279   4.30233  -1.08411 
 O                     8.15553  -0.61541   1.31755 
 C                     0.51442   3.31556  -0.783 
 C                    -0.85761   3.57578  -0.93294 
 C                    -1.81592   2.59834  -0.6432 
 C                    -1.38993   1.33067  -0.20181 
 C                    -0.0156    1.09715  -0.07193 
 C                     0.95867   2.06206  -0.34845 
 O                     4.1538    0.14169  -1.02736 
 C                     2.7586    0.51379  -1.05936 
 C                     2.43286   1.7453   -0.21486 
 C                     2.85117   1.45741   1.23631 
 C                     6.12768  -0.21382   0.18303 
 C                     4.82477   0.28953   0.16214 
 C                     4.25894   0.91407   1.28479 
 C                     5.05465   1.01414   2.43081 
 C                     6.35305   0.51325   2.48278 
 C                     6.88976  -0.10438   1.34562 
 O                    -5.24472  -0.75123   2.15595 
 C                    -6.3192    0.15479   1.83657 
 O                    -3.57682   1.51477   1.67685 
 C                    -3.22111   1.4578    3.06574 
 O                    -3.14935   2.81127  -0.85802 
 C                    -3.73974   3.92578  -0.17213 
 O                    -1.18312   4.83699  -1.40019 
 C                    -1.66213   4.84122  -2.76031 
 H                     2.70186  -2.21502  -2.95798 
 H                     0.35759  -2.58557  -3.67191 
 H                     1.67155  -3.5845    0.99316 
 H                    -2.04728  -2.66317  -2.8731 
 H                    -1.91409  -4.4103   -2.73978 
 H                    -3.66229  -3.91248  -1.25325 
 H                    -2.68584  -4.56587   0.94612 
 H                    -1.99457  -5.47151  -0.42183 
 H                    -1.33201  -1.08401  -1.28548 
 H                     4.00729  -1.93449  -0.99227 
 H                    -5.44304  -2.71032   1.53546 
 H                     0.86058   5.07371  -1.34418 
 H                     8.56651  -0.47351   2.18847 
 H                     0.29737   0.11842   0.27867 
 H                     2.17064  -0.33669  -0.70754 
 H                     2.53357   0.67947  -2.11479 
 H                     3.01757   2.58979  -0.59088 
 H                     2.14877   0.73273   1.67036 
 H                     2.77481   2.36825   1.84048 
 H                     6.5413   -0.68654  -0.70186 
 H                     4.63953   1.50221   3.30947 
 H                     6.94742   0.60426   3.38854 
 H                    -7.09247  -0.01601   2.5883 
 H                    -5.97758   1.19181   1.88061 
 H                    -6.71866  -0.06139   0.83898 
 H                    -3.3984    2.45802   3.46723 
 H                    -3.83577   0.7309    3.60647 
 H                    -2.16107   1.20055   3.18058 
 H                    -4.81345   3.72737  -0.14529 
 H                    -3.36056   3.99303   0.85084 
 H                    -3.55359   4.86657  -0.69821 
 H                    -1.82983   5.88788  -3.02221 
 H                    -0.91383   4.40587  -3.43267 
 H                    -2.5984    4.28201  -2.84394 
 
 Stoichiometry    C34H34O10
 Framework group  C1[X(C34H34O10)]
 Deg. of freedom   228
 Full point group                 C1      NOp   1
 Largest Abelian subgroup         C1      NOp   1
 Largest concise Abelian subgroup C1      NOp   1
                         Standard orientation:                         
 ---------------------------------------------------------------------
 Center     Atomic      Atomic             Coordinates (Angstroms)
 Number     Number       Type             X           Y           Z
 ---------------------------------------------------------------------
      1          6           0        2.335662   -2.875886   -0.931436
      2          6           0        1.969968   -2.609284   -2.258368
      3          6           0        0.651694   -2.826199   -2.652745
      4          6           0       -0.318968   -3.323973   -1.777481
      5          6           0        0.081332   -3.610834   -0.460088
      6          6           0        1.396081   -3.388111   -0.037685
      7          6           0       -1.768286   -3.472034   -2.189071
      8          6           0       -2.692637   -3.493615   -0.961889
      9          6           0       -2.081684   -4.479942    0.042405
     10          8           0       -0.784044   -4.061668    0.494457
     11          6           0       -2.931041   -2.138336   -0.319008
     12          6           0       -2.144717   -1.012633   -0.573177
     13          6           0       -2.338938    0.221494    0.064878
     14          6           0       -3.379561    0.334990    0.999668
     15          6           0       -4.209193   -0.765127    1.241759
     16          6           0       -3.982423   -1.989013    0.596637
     17          8           0        3.599183   -2.645144   -0.462026
     18          8           0       -4.804162   -3.041233    0.872929
     19          8           0        1.402788    4.302330   -1.084110
     20          8           0        8.155529   -0.615407    1.317549
     21          6           0        0.514417    3.315557   -0.782997
     22          6           0       -0.857614    3.575783   -0.932935
     23          6           0       -1.815921    2.598335   -0.643198
     24          6           0       -1.389931    1.330673   -0.201810
     25          6           0       -0.015600    1.097154   -0.071931
     26          6           0        0.958671    2.062064   -0.348451
     27          8           0        4.153796    0.141691   -1.027359
     28          6           0        2.758598    0.513787   -1.059358
     29          6           0        2.432863    1.745300   -0.214860
     30          6           0        2.851167    1.457413    1.236305
     31          6           0        6.127684   -0.213823    0.183027
     32          6           0        4.824769    0.289534    0.162135
     33          6           0        4.258945    0.914070    1.284787
     34          6           0        5.054647    1.014138    2.430811
     35          6           0        6.353050    0.513253    2.482784
     36          6           0        6.889762   -0.104378    1.345617
     37          8           0       -5.244723   -0.751228    2.155949
     38          6           0       -6.319202    0.154785    1.836565
     39          8           0       -3.576818    1.514767    1.676846
     40          6           0       -3.221112    1.457797    3.065738
     41          8           0       -3.149348    2.811268   -0.858016
     42          6           0       -3.739735    3.925776   -0.172125
     43          8           0       -1.183121    4.836990   -1.400185
     44          6           0       -1.662128    4.841222   -2.760311
     45          1           0        2.701863   -2.215023   -2.957983
     46          1           0        0.357588   -2.585574   -3.671906
     47          1           0        1.671550   -3.584502    0.993160
     48          1           0       -2.047277   -2.663167   -2.873098
     49          1           0       -1.914087   -4.410298   -2.739778
     50          1           0       -3.662286   -3.912479   -1.253254
     51          1           0       -2.685836   -4.565870    0.946116
     52          1           0       -1.994568   -5.471514   -0.421833
     53          1           0       -1.332010   -1.084015   -1.285480
     54          1           0        4.007292   -1.934487   -0.992265
     55          1           0       -5.443042   -2.710321    1.535464
     56          1           0        0.860579    5.073707   -1.344184
     57          1           0        8.566510   -0.473507    2.188474
     58          1           0        0.297369    0.118420    0.278671
     59          1           0        2.170641   -0.336691   -0.707536
     60          1           0        2.533567    0.679465   -2.114786
     61          1           0        3.017572    2.589793   -0.590879
     62          1           0        2.148769    0.732730    1.670359
     63          1           0        2.774808    2.368246    1.840475
     64          1           0        6.541302   -0.686540   -0.701860
     65          1           0        4.639529    1.502213    3.309474
     66          1           0        6.947418    0.604263    3.388542
     67          1           0       -7.092474   -0.016013    2.588297
     68          1           0       -5.977583    1.191807    1.880606
     69          1           0       -6.718657   -0.061393    0.838984
     70          1           0       -3.398397    2.458020    3.467229
     71          1           0       -3.835767    0.730898    3.606473
     72          1           0       -2.161068    1.200549    3.180578
     73          1           0       -4.813447    3.727369   -0.145294
     74          1           0       -3.360559    3.993027    0.850837
     75          1           0       -3.553592    4.866573   -0.698210
     76          1           0       -1.829827    5.887875   -3.022210
     77          1           0       -0.913826    4.405869   -3.432673
     78          1           0       -2.598396    4.282009   -2.843937
 ---------------------------------------------------------------------
 Rotational constants (GHZ):           0.0956490           0.0557655           0.0423410
 Standard basis: 6-311+G(2d,p) (5D, 7F)
 There are  1480 symmetry adapted cartesian basis functions of A   symmetry.
 There are  1392 symmetry adapted basis functions of A   symmetry.
  1392 basis functions,  2120 primitive gaussians,  1480 cartesian basis functions
   159 alpha electrons      159 beta electrons
       nuclear repulsion energy      5578.4965825476 Hartrees.
 NAtoms=   78 NActive=   78 NUniq=   78 SFac= 1.00D+00 NAtFMM=   60 NAOKFM=T Big=T
 Integral buffers will be    131072 words long.
 Raffenetti 2 integral format.
 Two-electron integral symmetry is turned on.
 ------------------------------------------------------------------------------
 Polarizable Continuum Model (PCM)
 =================================
 Model                : PCM.
 Atomic radii         : SMD-Coulomb.
 Polarization charges : Total charges.
 Charge compensation  : None.
 Solution method      : On-the-fly selection.
 Cavity type          : VdW (van der Waals Surface) (Alpha=1.000).
 Cavity algorithm     : GePol (No added spheres)
                        Default sphere list used, NSphG=   78.
                        Lebedev-Laikov grids with approx.  5.0 points / Ang**2.
                        Smoothing algorithm: York/Karplus (Gamma=1.0000).
                        Polarization charges: spherical gaussians, with
                                              point-specific exponents (IZeta= 3).
                        Self-potential: point-specific (ISelfS= 7).
                        Self-field    : sphere-specific E.n sum rule (ISelfD= 2).
 Solvent              : DiMethylSulfoxide, Eps=  46.826000 Eps(inf)=   2.185371
 ------------------------------------------------------------------------------
 ------------------------------------------------------------------------------
 Atomic radii for non-electrostatic terms: SMD-CDS.
 ------------------------------------------------------------------------------
 Nuclear repulsion after PCM non-electrostatic terms =     5578.4918336263 Hartrees.
 One-electron integrals computed using PRISM.
 NBasis=  1392 RedAO= T EigKep=  1.25D-06  NBF=  1392
 NBsUse=  1378 1.00D-06 EigRej=  9.31D-07 NBFU=  1378
 ExpMin= 4.38D-02 ExpMax= 8.59D+03 ExpMxC= 1.30D+03 IAcc=3 IRadAn=         5 AccDes= 0.00D+00
 Harris functional with IExCor=  908 and IRadAn=       5 diagonalized for initial guess.
 HarFok:  IExCor=  908 AccDes= 0.00D+00 IRadAn=         5 IDoV= 1 UseB2=F ITyADJ=14
 ICtDFT=  3500011 ScaDFX=  1.000000  1.000000  1.000000  1.000000
 FoFCou: FMM=F IPFlag=           0 FMFlag=      100000 FMFlg1=        2001
         NFxFlg=           0 DoJE=T BraDBF=F KetDBF=T FulRan=T
         wScrn=  0.000000 ICntrl=       500 IOpCl=  0 I1Cent=   200000004 NGrid=           0
         NMat0=    1 NMatS0=      1 NMatT0=    0 NMatD0=    1 NMtDS0=    0 NMtDT0=    0
 Petite list used in FoFCou.
 Requested convergence on RMS density matrix=1.00D-08 within 128 cycles.
 Requested convergence on MAX density matrix=1.00D-06.
 Requested convergence on             energy=1.00D-06.
 No special actions if energy rises.
 Inv3:  Mode=1 IEnd=    87059307.
 Iteration    1 A*A^-1 deviation from unit magnitude is 3.77D-15 for    759.
 Iteration    1 A*A^-1 deviation from orthogonality  is 2.60D-15 for   2507    730.
 Iteration    1 A^-1*A deviation from unit magnitude is 4.00D-15 for    759.
 Iteration    1 A^-1*A deviation from orthogonality  is 1.21D-12 for   4910   4739.
 Error on total polarization charges =  0.05000
 SCF Done:  E(RmPW1PW91) =  -2068.42128827     A.U. after   14 cycles
            NFock= 14  Conv=0.35D-08     -V/T= 2.0043
 SMD-CDS (non-electrostatic) energy       (kcal/mol) =      -2.98
 (included in total energy above)
 DoSCS=F DFT=T ScalE2(SS,OS)=  1.000000  1.000000
 Range of M.O.s used for correlation:     1  1378
 NBasis=  1392 NAE=   159 NBE=   159 NFC=     0 NFV=     0
 NROrb=   1378 NOA=   159 NOB=   159 NVA=  1219 NVB=  1219

 **** Warning!!: The largest alpha MO coefficient is  0.89175754D+02

 NEqPCM:  Using equilibrium solvation (IEInf=0, Eps=  46.8260, EpsInf=   2.1854)
          Differentiating once with respect to magnetic field using GIAOs.
          Electric field/nuclear overlap derivatives assumed to be zero.
 FoFJK:  IHMeth= 1 ICntrl=    6127 DoSepK=F KAlg= 0 I1Cent=           0 FoldK=F
 IRaf=         1 NMat=       1 IRICut=       1 DoRegI=T DoRafI=F ISym2E= 0 IDoP0=0 IntGTp=1.
          There are     3 degrees of freedom in the 1st order CPHF.  IDoFFX=0 NUNeed=     3.
      3 vectors produced by pass  0 Test12= 6.46D-12 3.33D-08 XBig12= 2.84D+03 4.96D+00.
 AX will form     3 AO Fock derivatives at one time.
      3 vectors produced by pass  1 Test12= 6.46D-12 3.33D-08 XBig12= 7.45D+00 5.67D-01.
      3 vectors produced by pass  2 Test12= 6.46D-12 3.33D-08 XBig12= 3.50D-02 4.83D-02.
      3 vectors produced by pass  3 Test12= 6.46D-12 3.33D-08 XBig12= 1.70D-04 2.45D-03.
      3 vectors produced by pass  4 Test12= 6.46D-12 3.33D-08 XBig12= 5.85D-07 1.01D-04.
      3 vectors produced by pass  5 Test12= 6.46D-12 3.33D-08 XBig12= 2.26D-09 6.18D-06.
      3 vectors produced by pass  6 Test12= 6.46D-12 3.33D-08 XBig12= 1.02D-11 4.04D-07.
 InvSVY:  IOpt=1 It=  1 EMax= 7.11D-15
 Solved reduced A of dimension    21 with     3 vectors.
 Calculating GIAO nuclear magnetic shielding tensors.
 SCF GIAO Magnetic shielding tensor (ppm):
      1  C    Isotropic =    23.0656   Anisotropy =   143.5202
   XX=   -44.6140   YX=   -40.8596   ZX=   -30.8592
   XY=   -42.2343   YY=    99.7114   ZY=    22.3593
   XZ=   -32.9735   YZ=    19.1407   ZZ=    14.0993
   Eigenvalues:   -64.4872    14.9382   118.7457
      2  C    Isotropic =    73.2375   Anisotropy =   136.0420
   XX=    34.0850   YX=   -39.8411   ZX=    29.2123
   XY=   -39.1895   YY=   140.8255   ZY=    44.6976
   XZ=    23.5159   YZ=    42.3643   ZZ=    44.8021
   Eigenvalues:   -10.0194    65.7998   163.9322
      3  C    Isotropic =    51.0248   Anisotropy =   170.7584
   XX=    40.0119   YX=   -23.5202   ZX=   -31.1641
   XY=   -24.3279   YY=   140.7891   ZY=    57.0863
   XZ=   -36.7217   YZ=    49.4682   ZZ=   -27.7265
   Eigenvalues:   -50.9923    39.2030   164.8638
      4  C    Isotropic =    66.3576   Anisotropy =   166.8182
   XX=    -1.9016   YX=   -31.2900   ZX=   -26.3280
   XY=   -25.6605   YY=   164.5688   ZY=    21.8217
   XZ=   -15.5970   YZ=    40.1330   ZZ=    36.4055
   Eigenvalues:   -12.3722    33.8752   177.5697
      5  C    Isotropic =    23.3292   Anisotropy =   142.5114
   XX=   -17.4793   YX=   -39.7704   ZX=    23.2286
   XY=   -37.2963   YY=    98.7742   ZY=    37.4666
   XZ=    31.5102   YZ=    43.5231   ZZ=   -11.3072
   Eigenvalues:   -61.3551    13.0060   118.3368
      6  C    Isotropic =    79.5389   Anisotropy =   116.9213
   XX=    70.1560   YX=   -19.0759   ZX=   -19.6599
   XY=   -16.8976   YY=   147.1393   ZY=    19.7314
   XZ=   -19.5764   YZ=    31.3553   ZZ=    21.3214
   Eigenvalues:    11.7978    69.3324   157.4864
      7  C    Isotropic =   156.1839   Anisotropy =     8.4042
   XX=   158.0948   YX=    -2.2034   ZX=   -10.6176
   XY=     2.5083   YY=   158.3559   ZY=    -2.7382
   XZ=    -1.2926   YZ=     2.1831   ZZ=   152.1011
   Eigenvalues:   148.4288   158.3362   161.7867
      8  C    Isotropic =   152.2838   Anisotropy =    20.1069
   XX=   142.3741   YX=    -5.5611   ZX=     1.6038
   XY=     5.2501   YY=   163.6799   ZY=     7.3903
   XZ=     9.4274   YZ=     3.1281   ZZ=   150.7974
   Eigenvalues:   139.3779   151.7851   165.6884
      9  C    Isotropic =   115.9102   Anisotropy =    50.1724
   XX=   140.2060   YX=    10.5604   ZX=    15.6958
   XY=    11.7310   YY=   109.3271   ZY=     5.9152
   XZ=    17.5916   YZ=     0.5732   ZZ=    98.1976
   Eigenvalues:    92.3777   105.9944   149.3585
     10  O    Isotropic =   217.3983   Anisotropy =   114.1261
   XX=   157.3542   YX=   -29.1573   ZX=   -45.6703
   XY=   -27.3172   YY=   269.7776   ZY=    45.2666
   XZ=   -63.9255   YZ=   -10.4705   ZZ=   225.0632
   Eigenvalues:   124.9038   233.8089   293.4824
     11  C    Isotropic =    58.0640   Anisotropy =   156.1788
   XX=    68.5752   YX=   -28.6010   ZX=    65.0307
   XY=   -12.7594   YY=     9.8081   ZY=   -48.2607
   XZ=    60.4228   YZ=   -43.9870   ZZ=    95.8086
   Eigenvalues:   -11.0545    23.0633   162.1832
     12  C    Isotropic =    55.9214   Anisotropy =   160.0070
   XX=    45.0879   YX=   -20.1863   ZX=    96.0432
   XY=   -13.3667   YY=    57.5458   ZY=   -30.2219
   XZ=    89.3684   YZ=   -43.2394   ZZ=    65.1306
   Eigenvalues:   -39.7615    44.9330   162.5927
     13  C    Isotropic =    57.2489   Anisotropy =   144.1513
   XX=    61.0613   YX=   -47.9905   ZX=    56.9210
   XY=   -55.4938   YY=    18.0893   ZY=   -13.5173
   XZ=    51.8387   YZ=   -35.9698   ZZ=    92.5962
   Eigenvalues:   -17.6127    36.0098   153.3498
     14  C    Isotropic =    32.1739   Anisotropy =   117.2355
   XX=    50.5641   YX=   -10.8069   ZX=    49.0602
   XY=   -23.1653   YY=    -1.8255   ZY=   -36.2742
   XZ=    40.6139   YZ=   -49.6487   ZZ=    47.7831
   Eigenvalues:   -27.6915    13.8823   110.3309
     15  C    Isotropic =    42.6558   Anisotropy =   103.4083
   XX=    45.7849   YX=   -13.5468   ZX=    46.6941
   XY=   -12.8924   YY=    25.9390   ZY=   -23.4686
   XZ=    59.4627   YZ=   -19.7337   ZZ=    56.2434
   Eigenvalues:    -3.2675    19.6402   111.5946
     16  C    Isotropic =    33.3438   Anisotropy =   125.7311
   XX=    35.1385   YX=   -41.6612   ZX=    51.5719
   XY=   -39.1032   YY=    -6.9948   ZY=   -14.8814
   XZ=    52.3843   YZ=    -5.6824   ZZ=    71.8876
   Eigenvalues:   -35.5249    18.3918   117.1645
     17  O    Isotropic =   211.4250   Anisotropy =    43.0593
   XX=   235.5926   YX=    -4.8430   ZX=    22.5040
   XY=    -9.6573   YY=   227.9947   ZY=    11.2320
   XZ=     7.4953   YZ=    43.3311   ZZ=   170.6878
   Eigenvalues:   156.2936   237.8503   240.1312
     18  O    Isotropic =   229.5667   Anisotropy =   118.5328
   XX=   250.5275   YX=    19.9715   ZX=    58.5399
   XY=   -29.4674   YY=   199.3617   ZY=   -14.5425
   XZ=    60.5987   YZ=   -37.1201   ZZ=   238.8109
   Eigenvalues:   173.5169   206.5946   308.5886
     19  O    Isotropic =   231.7290   Anisotropy =   108.6802
   XX=   192.5615   YX=     4.3294   ZX=    -3.4067
   XY=    38.0328   YY=   208.7682   ZY=    33.8929
   XZ=   -17.2631   YZ=    28.5514   ZZ=   293.8573
   Eigenvalues:   171.9703   219.0343   304.1825
     20  O    Isotropic =   211.9710   Anisotropy =    64.3177
   XX=   251.1911   YX=   -12.2538   ZX=    -5.4191
   XY=    -9.3492   YY=   221.7263   ZY=   -17.7360
   XZ=    -0.6011   YZ=   -21.0180   ZZ=   162.9956
   Eigenvalues:   156.7936   224.2700   254.8495
     21  C    Isotropic =    33.1588   Anisotropy =   127.7905
   XX=    -4.9744   YX=   -22.8047   ZX=     2.0783
   XY=   -28.5233   YY=     4.3625   ZY=    36.5250
   XZ=    14.1248   YZ=    54.6321   ZZ=   100.0884
   Eigenvalues:   -36.6350    17.7590   118.3525
     22  C    Isotropic =    42.3379   Anisotropy =   102.1193
   XX=    15.1218   YX=     9.9464   ZX=   -10.2558
   XY=     1.1782   YY=    17.5723   ZY=    36.4992
   XZ=   -13.6611   YZ=    38.3960   ZZ=    94.3197
   Eigenvalues:    -3.0256    19.6219   110.4174
     23  C    Isotropic =    30.8534   Anisotropy =   121.2424
   XX=   -23.7414   YX=     1.7821   ZX=    -8.0829
   XY=    12.5495   YY=    17.6269   ZY=    34.3883
   XZ=   -29.8157   YZ=    29.9085   ZZ=    98.6746
   Eigenvalues:   -30.0952    10.9738   111.6816
     24  C    Isotropic =    57.6933   Anisotropy =   144.4040
   XX=    12.6375   YX=   -37.1140   ZX=     3.5847
   XY=   -16.9372   YY=    22.3052   ZY=    39.7910
   XZ=    -2.9859   YZ=    49.8033   ZZ=   138.1373
   Eigenvalues:   -16.1942    35.3115   153.9627
     25  C    Isotropic =    55.7306   Anisotropy =   162.1044
   XX=    33.8792   YX=    22.7793   ZX=   -17.1753
   XY=    23.8297   YY=    -7.1222   ZY=    64.2874
   XZ=   -23.5398   YZ=    59.0180   ZZ=   140.4347
   Eigenvalues:   -40.7387    44.1302   163.8002
     26  C    Isotropic =    60.0720   Anisotropy =   153.4527
   XX=    -3.4278   YX=    13.1255   ZX=    -8.4379
   XY=    -5.7938   YY=    34.6698   ZY=    40.4740
   XZ=   -11.1462   YZ=    40.8620   ZZ=   148.9739
   Eigenvalues:    -5.3789    23.2210   162.3738
     27  O    Isotropic =   203.8204   Anisotropy =    93.7175
   XX=   145.0512   YX=    29.0916   ZX=   -23.1620
   XY=    45.0546   YY=   236.0922   ZY=   -45.7713
   XZ=    21.1998   YZ=    -5.7380   ZZ=   230.3179
   Eigenvalues:   131.2324   213.9300   266.2988
     28  C    Isotropic =   112.1089   Anisotropy =    59.9548
   XX=   148.7145   YX=    -9.6699   ZX=     0.8663
   XY=   -15.7937   YY=   103.8760   ZY=     1.6372
   XZ=     0.8830   YZ=     7.3353   ZZ=    83.7361
   Eigenvalues:    82.5752   101.6727   152.0787
     29  C    Isotropic =   155.0999   Anisotropy =    15.2043
   XX=   164.2357   YX=    -1.4056   ZX=    -0.4133
   XY=     9.6277   YY=   146.8082   ZY=     3.7749
   XZ=    -3.5092   YZ=     5.7279   ZZ=   154.2559
   Eigenvalues:   143.4950   156.5687   165.2361
     30  C    Isotropic =   151.8106   Anisotropy =    25.8619
   XX=   160.5283   YX=    -1.5536   ZX=    12.8214
   XY=     1.1583   YY=   145.3339   ZY=    -3.3921
   XZ=    11.7167   YZ=    -9.1858   ZZ=   149.5697
   Eigenvalues:   137.8370   148.5430   169.0519
     31  C    Isotropic =    81.2930   Anisotropy =   115.4551
   XX=    73.2838   YX=    37.3554   ZX=     9.0245
   XY=    38.4903   YY=   127.6276   ZY=   -44.0746
   XZ=     7.9571   YZ=   -42.7324   ZZ=    42.9677
   Eigenvalues:    14.6878    70.9283   158.2631
     32  C    Isotropic =    25.7166   Anisotropy =   139.2003
   XX=     6.1428   YX=    29.1933   ZX=   -44.2463
   XY=    24.1182   YY=    97.0222   ZY=   -33.1652
   XZ=   -49.4998   YZ=   -31.6876   ZZ=   -26.0153
   Eigenvalues:   -60.3330    18.9660   118.5168
     33  C    Isotropic =    65.6768   Anisotropy =   161.2568
   XX=    17.3412   YX=    61.5376   ZX=    -3.3788
   XY=    60.0679   YY=   137.0169   ZY=   -31.3133
   XZ=   -19.6765   YZ=   -40.0189   ZZ=    42.6722
   Eigenvalues:    -8.3607    32.2096   173.1813
     34  C    Isotropic =    50.6797   Anisotropy =   168.5218
   XX=    37.6633   YX=    52.8284   ZX=    11.0575
   XY=    49.8685   YY=   118.7433   ZY=   -68.2755
   XZ=    19.9919   YZ=   -68.5004   ZZ=    -4.3674
   Eigenvalues:   -50.2624    39.2740   163.0276
     35  C    Isotropic =    76.5210   Anisotropy =   126.0521
   XX=    59.0928   YX=    23.1724   ZX=   -48.6937
   XY=    25.1571   YY=   139.5092   ZY=   -30.6486
   XZ=   -42.0735   YZ=   -29.4964   ZZ=    30.9610
   Eigenvalues:    -3.2464    72.2536   160.5557
     36  C    Isotropic =    23.8487   Anisotropy =   139.7454
   XX=   -39.5642   YX=    58.0122   ZX=   -13.5175
   XY=    58.2951   YY=    85.0593   ZY=   -24.8749
   XZ=   -10.1715   YZ=   -27.4025   ZZ=    26.0508
   Eigenvalues:   -62.5097    17.0434   117.0123
     37  O    Isotropic =   278.1552   Anisotropy =    95.0211
   XX=   286.1405   YX=   -16.5096   ZX=    17.9191
   XY=    17.8796   YY=   223.0280   ZY=   -30.8924
   XZ=    15.0844   YZ=   -42.6496   ZZ=   325.2969
   Eigenvalues:   210.7356   282.2273   341.5026
     38  C    Isotropic =   126.2884   Anisotropy =    92.6269
   XX=   152.8893   YX=   -41.6819   ZX=    12.8604
   XY=   -47.4092   YY=   123.4589   ZY=   -10.1854
   XZ=    10.3838   YZ=   -11.8926   ZZ=   102.5171
   Eigenvalues:    90.7576   100.0680   188.0397
     39  O    Isotropic =   262.6294   Anisotropy =    93.7680
   XX=   253.2619   YX=   -39.1661   ZX=    59.6706
   XY=   -27.1436   YY=   293.4006   ZY=    -4.1192
   XZ=    31.1972   YZ=   -14.2297   ZZ=   241.2256
   Eigenvalues:   198.7664   263.9803   325.1413
     40  C    Isotropic =   127.6296   Anisotropy =    89.3112
   XX=   102.5728   YX=    -1.0961   ZX=    20.6012
   XY=    -2.2906   YY=    98.6215   ZY=     2.6428
   XZ=    21.7079   YZ=     6.3197   ZZ=   181.6945
   Eigenvalues:    95.0676   100.6507   187.1704
     41  O    Isotropic =   252.9053   Anisotropy =   111.0663
   XX=   267.7915   YX=    14.1556   ZX=    16.3309
   XY=    30.6259   YY=   184.0087   ZY=     7.9503
   XZ=    33.0775   YZ=    45.6447   ZZ=   306.9157
   Eigenvalues:   175.1331   256.6333   326.9495
     42  C    Isotropic =   126.0166   Anisotropy =    87.3233
   XX=   116.7590   YX=   -29.8214   ZX=   -20.6439
   XY=   -33.4121   YY=   142.6153   ZY=    33.6399
   XZ=   -13.7118   YZ=    31.2510   ZZ=   118.6754
   Eigenvalues:    93.2790   100.5386   184.2321
     43  O    Isotropic =   281.2289   Anisotropy =    89.3384
   XX=   222.9288   YX=    -7.0123   ZX=   -23.5295
   XY=   -10.5877   YY=   310.0651   ZY=    20.2573
   XZ=     2.3871   YZ=    37.3694   ZZ=   310.6930
   Eigenvalues:   221.3126   281.5864   340.7878
     44  C    Isotropic =   126.6891   Anisotropy =    91.2636
   XX=   101.3859   YX=    -9.4538   ZX=    29.3288
   XY=    -4.7260   YY=   100.9316   ZY=    -4.7747
   XZ=    25.9234   YZ=    -8.4928   ZZ=   177.7496
   Eigenvalues:    90.2211   102.3146   187.5315
     45  H    Isotropic =    24.7894   Anisotropy =     4.6149
   XX=    25.7531   YX=     0.5980   ZX=     1.8370
   XY=     0.9234   YY=    22.5539   ZY=     2.0302
   XZ=     0.8932   YZ=     1.2997   ZZ=    26.0611
   Eigenvalues:    21.8776    24.6246    27.8660
     46  H    Isotropic =    24.1992   Anisotropy =     6.2499
   XX=    27.2012   YX=     2.2709   ZX=    -1.8347
   XY=     2.2835   YY=    22.0383   ZY=    -0.0272
   XZ=    -1.1590   YZ=     1.0726   ZZ=    23.3581
   Eigenvalues:    20.7471    23.4848    28.3658
     47  H    Isotropic =    25.1996   Anisotropy =     7.1152
   XX=    29.3123   YX=     1.8830   ZX=    -0.5212
   XY=     1.8144   YY=    23.7611   ZY=    -1.2742
   XZ=    -0.0438   YZ=    -1.7882   ZZ=    22.5254
   Eigenvalues:    21.4015    24.2542    29.9430
     48  H    Isotropic =    28.6451   Anisotropy =     5.4746
   XX=    27.3332   YX=     0.3227   ZX=     1.4567
   XY=    -1.2470   YY=    27.6487   ZY=    -3.7148
   XZ=    -1.0031   YZ=    -1.1937   ZZ=    30.9533
   Eigenvalues:    26.2558    27.3846    32.2948
     49  H    Isotropic =    28.3236   Anisotropy =    10.2634
   XX=    26.7198   YX=     2.0254   ZX=     0.4494
   XY=     3.8846   YY=    28.7522   ZY=     5.2871
   XZ=     0.2786   YZ=     5.4861   ZZ=    29.4986
   Eigenvalues:    22.7034    27.1014    35.1658
     50  H    Isotropic =    28.1160   Anisotropy =     8.8430
   XX=    32.4668   YX=     2.7209   ZX=    -0.2216
   XY=     3.7237   YY=    25.6790   ZY=     2.6262
   XZ=     0.4719   YZ=     3.9389   ZZ=    26.2023
   Eigenvalues:    22.1068    28.2299    34.0113
     51  H    Isotropic =    27.0715   Anisotropy =     6.5735
   XX=    29.7389   YX=    -0.8424   ZX=    -3.1152
   XY=     0.8684   YY=    25.7804   ZY=    -2.5983
   XZ=    -1.8145   YZ=    -4.4554   ZZ=    25.6953
   Eigenvalues:    21.8065    27.9543    31.4539
     52  H    Isotropic =    27.2806   Anisotropy =     9.2469
   XX=    26.0569   YX=     2.2221   ZX=     1.4886
   XY=     2.4054   YY=    32.7083   ZY=    -0.0920
   XZ=     1.0861   YZ=    -0.0109   ZZ=    23.0764
   Eigenvalues:    22.5165    25.8801    33.4451
     53  H    Isotropic =    24.9477   Anisotropy =    13.6225
   XX=    23.0695   YX=     1.3483   ZX=    -0.4848
   XY=    -2.0464   YY=    32.8372   ZY=     1.8838
   XZ=    -1.5101   YZ=     6.4711   ZZ=    18.9363
   Eigenvalues:    17.6383    23.1755    34.0293
     54  H    Isotropic =    25.9127   Anisotropy =    17.1609
   XX=    25.8625   YX=     6.4786   ZX=    -1.0718
   XY=     8.2016   YY=    32.0038   ZY=    -3.0344
   XZ=     0.2178   YZ=    -3.2145   ZZ=    19.8718
   Eigenvalues:    18.6258    21.7590    37.3533
     55  H    Isotropic =    25.4082   Anisotropy =    15.2369
   XX=    25.3831   YX=    -1.9611   ZX=    -9.5738
   XY=     0.1241   YY=    27.9917   ZY=     4.7649
   XZ=    -8.9259   YZ=     4.9364   ZZ=    22.8497
   Eigenvalues:    14.0717    26.5867    35.5661
     56  H    Isotropic =    25.3309   Anisotropy =    15.2999
   XX=    30.3780   YX=    -2.9057   ZX=     1.8684
   XY=    -5.0273   YY=    29.9216   ZY=    -5.0670
   XZ=     3.5508   YZ=    -4.4816   ZZ=    15.6930
   Eigenvalues:    14.1024    26.3595    35.5308
     57  H    Isotropic =    26.9734   Anisotropy =    14.0466
   XX=    29.5437   YX=    -1.5364   ZX=     7.0082
   XY=    -2.2903   YY=    20.2123   ZY=     1.7509
   XZ=     4.8297   YZ=     2.6183   ZZ=    31.1641
   Eigenvalues:    18.7362    25.8462    36.3378
     58  H    Isotropic =    25.2580   Anisotropy =    12.0867
   XX=    32.4498   YX=     3.4580   ZX=    -2.2802
   XY=     1.9635   YY=    24.8057   ZY=     2.4198
   XZ=     1.3117   YZ=     1.8433   ZZ=    18.5187
   Eigenvalues:    17.7504    24.7079    33.3159
     59  H    Isotropic =    27.8662   Anisotropy =    11.4646
   XX=    30.8541   YX=     1.4705   ZX=    -1.1037
   XY=     3.2534   YY=    33.5523   ZY=     3.6358
   XZ=    -0.3046   YZ=     4.0922   ZZ=    19.1922
   Eigenvalues:    18.0914    29.9979    35.5093
     60  H    Isotropic =    27.7080   Anisotropy =     2.8665
   XX=    27.8517   YX=    -2.3841   ZX=     1.9440
   XY=    -1.5483   YY=    26.8032   ZY=    -0.3393
   XZ=    -1.2892   YZ=     2.7222   ZZ=    28.4692
   Eigenvalues:    24.9186    28.5865    29.6190
     61  H    Isotropic =    28.1598   Anisotropy =     9.7723
   XX=    27.4038   YX=     0.6237   ZX=    -0.5162
   XY=    -1.2116   YY=    33.1020   ZY=    -4.4422
   XZ=     0.1795   YZ=    -3.7436   ZZ=    23.9736
   Eigenvalues:    22.3935    27.4113    34.6747
     62  H    Isotropic =    29.0691   Anisotropy =     6.9929
   XX=    32.8190   YX=     1.2898   ZX=    -1.0126
   XY=     3.6890   YY=    26.1323   ZY=    -0.8607
   XZ=     0.6629   YZ=    -2.3660   ZZ=    28.2559
   Eigenvalues:    24.6876    28.7886    33.7310
     63  H    Isotropic =    28.8776   Anisotropy =     8.1035
   XX=    27.2209   YX=    -1.2087   ZX=     1.9587
   XY=    -1.8278   YY=    29.3346   ZY=     5.1611
   XZ=     4.7147   YZ=     3.2388   ZZ=    30.0773
   Eigenvalues:    22.8021    29.5507    34.2800
     64  H    Isotropic =    24.8190   Anisotropy =     7.5466
   XX=    29.0070   YX=    -1.0023   ZX=     2.0843
   XY=    -1.0896   YY=    21.6216   ZY=     0.2931
   XZ=     2.1419   YZ=     0.4648   ZZ=    23.8285
   Eigenvalues:    21.2590    23.3479    29.8501
     65  H    Isotropic =    24.2611   Anisotropy =     8.1180
   XX=    27.1324   YX=    -0.9434   ZX=     3.9242
   XY=    -1.0176   YY=    21.2890   ZY=     1.0100
   XZ=     3.3888   YZ=     0.5634   ZZ=    24.3621
   Eigenvalues:    20.3193    22.7911    29.6731
     66  H    Isotropic =    24.9407   Anisotropy =     4.1992
   XX=    26.8488   YX=    -2.0995   ZX=    -0.4086
   XY=    -1.8308   YY=    22.6173   ZY=     1.6953
   XZ=     0.6148   YZ=     1.4984   ZZ=    25.3561
   Eigenvalues:    21.2716    25.8104    27.7402
     67  H    Isotropic =    27.5771   Anisotropy =    10.1435
   XX=    32.6242   YX=    -1.1140   ZX=    -4.7343
   XY=    -3.0347   YY=    25.5231   ZY=     1.2409
   XZ=    -2.0256   YZ=    -0.5782   ZZ=    24.5840
   Eigenvalues:    23.2661    25.1257    34.3395
     68  H    Isotropic =    26.8153   Anisotropy =     7.3763
   XX=    29.9361   YX=    -3.2414   ZX=    -1.7204
   XY=    -0.3908   YY=    29.8720   ZY=     0.4874
   XZ=    -0.1696   YZ=    -1.3614   ZZ=    20.6379
   Eigenvalues:    20.5008    28.2123    31.7329
     69  H    Isotropic =    28.0988   Anisotropy =     9.5339
   XX=    32.1466   YX=    -1.3821   ZX=     3.7650
   XY=    -2.8183   YY=    26.4595   ZY=    -1.5121
   XZ=     3.6991   YZ=     0.1525   ZZ=    25.6904
   Eigenvalues:    23.9518    25.8898    34.4548
     70  H    Isotropic =    27.9457   Anisotropy =     9.6455
   XX=    24.4202   YX=     1.1188   ZX=     0.3758
   XY=    -0.3092   YY=    27.3867   ZY=     2.4874
   XZ=    -1.9229   YZ=     5.5600   ZZ=    32.0302
   Eigenvalues:    23.9225    25.5386    34.3760
     71  H    Isotropic =    27.4883   Anisotropy =     8.4618
   XX=    25.0517   YX=     3.1587   ZX=     1.4808
   XY=     2.4786   YY=    24.4558   ZY=    -0.2107
   XZ=    -3.1191   YZ=    -0.8721   ZZ=    32.9574
   Eigenvalues:    21.9175    27.4180    33.1295
     72  H    Isotropic =    28.6326   Anisotropy =     8.1868
   XX=    29.9384   YX=     1.1162   ZX=     1.8827
   XY=    -0.4406   YY=    23.4186   ZY=     0.4767
   XZ=     3.1630   YZ=    -0.0438   ZZ=    32.5409
   Eigenvalues:    23.4002    28.4071    34.0905
     73  H    Isotropic =    27.7633   Anisotropy =     9.2247
   XX=    31.4873   YX=    -2.3773   ZX=    -1.5282
   XY=    -4.4730   YY=    28.0960   ZY=    -0.1415
   XZ=    -3.2213   YZ=    -1.0043   ZZ=    23.7065
   Eigenvalues:    22.5547    26.8221    33.9131
     74  H    Isotropic =    28.0282   Anisotropy =     7.1414
   XX=    24.6184   YX=    -2.0819   ZX=    -3.2981
   XY=    -1.0582   YY=    30.0152   ZY=     2.5984
   XZ=    -3.6652   YZ=     0.3460   ZZ=    29.4511
   Eigenvalues:    22.7230    28.5725    32.7892
     75  H    Isotropic =    27.0762   Anisotropy =     8.2726
   XX=    26.9624   YX=    -3.3070   ZX=    -2.0536
   XY=    -1.7579   YY=    31.4407   ZY=    -2.2102
   XZ=    -3.8741   YZ=     0.1497   ZZ=    22.8255
   Eigenvalues:    20.8528    27.7845    32.5913
     76  H    Isotropic =    27.7245   Anisotropy =    10.4484
   XX=    25.1809   YX=    -2.3491   ZX=     1.7862
   XY=    -0.9456   YY=    28.9916   ZY=    -3.1083
   XZ=     2.2149   YZ=    -6.8790   ZZ=    29.0010
   Eigenvalues:    23.9028    24.5806    34.6901
     77  H    Isotropic =    28.2811   Anisotropy =     9.1930
   XX=    26.1986   YX=    -0.1536   ZX=     0.5728
   XY=    -0.8246   YY=    24.3839   ZY=    -0.4714
   XZ=    -1.9555   YZ=    -1.5157   ZZ=    34.2609
   Eigenvalues:    24.1328    26.3008    34.4098
     78  H    Isotropic =    27.4204   Anisotropy =     7.7545
   XX=    27.6103   YX=     1.5682   ZX=     1.4730
   XY=     1.6218   YY=    24.5398   ZY=    -2.0244
   XZ=     5.1379   YZ=    -3.0243   ZZ=    30.1111
   Eigenvalues:    22.0814    27.5897    32.5900
 End of Minotr F.D. properties file   721 does not exist.
 End of Minotr F.D. properties file   722 does not exist.
 End of Minotr F.D. properties file   788 does not exist.

 **********************************************************************

            Population analysis using the SCF Density.

 **********************************************************************

 Orbital symmetries:
       Occupied  (A) (A) (A) (A) (A) (A) (A) (A) (A) (A) (A) (A)
                 (A) (A) (A) (A) (A) (A) (A) (A) (A) (A) (A) (A)
                 (A) (A) (A) (A) (A) (A) (A) (A) (A) (A) (A) (A)
                 (A) (A) (A) (A) (A) (A) (A) (A) (A) (A) (A) (A)
                 (A) (A) (A) (A) (A) (A) (A) (A) (A) (A) (A) (A)
                 (A) (A) (A) (A) (A) (A) (A) (A) (A) (A) (A) (A)
                 (A) (A) (A) (A) (A) (A) (A) (A) (A) (A) (A) (A)
                 (A) (A) (A) (A) (A) (A) (A) (A) (A) (A) (A) (A)
                 (A) (A) (A) (A) (A) (A) (A) (A) (A) (A) (A) (A)
                 (A) (A) (A) (A) (A) (A) (A) (A) (A) (A) (A) (A)
                 (A) (A) (A) (A) (A) (A) (A) (A) (A) (A) (A) (A)
                 (A) (A) (A) (A) (A) (A) (A) (A) (A) (A) (A) (A)
                 (A) (A) (A) (A) (A) (A) (A) (A) (A) (A) (A) (A)
                 (A) (A) (A)
       Virtual   (A) (A) (A) (A) (A) (A) (A) (A) (A) (A) (A) (A)
                 (A) (A) (A) (A) (A) (A) (A) (A) (A) (A) (A) (A)
                 (A) (A) (A) (A) (A) (A) (A) (A) (A) (A) (A) (A)
                 (A) (A) (A) (A) (A) (A) (A) (A) (A) (A) (A) (A)
                 (A) (A) (A) (A) (A) (A) (A) (A) (A) (A) (A) (A)
                 (A) (A) (A) (A) (A) (A) (A) (A) (A) (A) (A) (A)
                 (A) (A) (A) (A) (A) (A) (A) (A) (A) (A) (A) (A)
                 (A) (A) (A) (A) (A) (A) (A) (A) (A) (A) (A) (A)
                 (A) (A) (A) (A) (A) (A) (A) (A) (A) (A) (A) (A)
                 (A) (A) (A) (A) (A) (A) (A) (A) (A) (A) (A) (A)
                 (A) (A) (A) (A) (A) (A) (A) (A) (A) (A) (A) (A)
                 (A) (A) (A) (A) (A) (A) (A) (A) (A) (A) (A) (A)
                 (A) (A) (A) (A) (A) (A) (A) (A) (A) (A) (A) (A)
                 (A) (A) (A) (A) (A) (A) (A) (A) (A) (A) (A) (A)
                 (A) (A) (A) (A) (A) (A) (A) (A) (A) (A) (A) (A)
                 (A) (A) (A) (A) (A) (A) (A) (A) (A) (A) (A) (A)
                 (A) (A) (A) (A) (A) (A) (A) (A) (A) (A) (A) (A)
                 (A) (A) (A) (A) (A) (A) (A) (A) (A) (A) (A) (A)
                 (A) (A) (A) (A) (A) (A) (A) (A) (A) (A) (A) (A)
                 (A) (A) (A) (A) (A) (A) (A) (A) (A) (A) (A) (A)
                 (A) (A) (A) (A) (A) (A) (A) (A) (A) (A) (A) (A)
                 (A) (A) (A) (A) (A) (A) (A) (A) (A) (A) (A) (A)
                 (A) (A) (A) (A) (A) (A) (A) (A) (A) (A) (A) (A)
                 (A) (A) (A) (A) (A) (A) (A) (A) (A) (A) (A) (A)
                 (A) (A) (A) (A) (A) (A) (A) (A) (A) (A) (A) (A)
                 (A) (A) (A) (A) (A) (A) (A) (A) (A) (A) (A) (A)
                 (A) (A) (A) (A) (A) (A) (A) (A) (A) (A) (A) (A)
                 (A) (A) (A) (A) (A) (A) (A) (A) (A) (A) (A) (A)
                 (A) (A) (A) (A) (A) (A) (A) (A) (A) (A) (A) (A)
                 (A) (A) (A) (A) (A) (A) (A) (A) (A) (A) (A) (A)
                 (A) (A) (A) (A) (A) (A) (A) (A) (A) (A) (A) (A)
                 (A) (A) (A) (A) (A) (A) (A) (A) (A) (A) (A) (A)
                 (A) (A) (A) (A) (A) (A) (A) (A) (A) (A) (A) (A)
                 (A) (A) (A) (A) (A) (A) (A) (A) (A) (A) (A) (A)
                 (A) (A) (A) (A) (A) (A) (A) (A) (A) (A) (A) (A)
                 (A) (A) (A) (A) (A) (A) (A) (A) (A) (A) (A) (A)
                 (A) (A) (A) (A) (A) (A) (A) (A) (A) (A) (A) (A)
                 (A) (A) (A) (A) (A) (A) (A) (A) (A) (A) (A) (A)
                 (A) (A) (A) (A) (A) (A) (A) (A) (A) (A) (A) (A)
                 (A) (A) (A) (A) (A) (A) (A) (A) (A) (A) (A) (A)
                 (A) (A) (A) (A) (A) (A) (A) (A) (A) (A) (A) (A)
                 (A) (A) (A) (A) (A) (A) (A) (A) (A) (A) (A) (A)
                 (A) (A) (A) (A) (A) (A) (A) (A) (A) (A) (A) (A)
                 (A) (A) (A) (A) (A) (A) (A) (A) (A) (A) (A) (A)
                 (A) (A) (A) (A) (A) (A) (A) (A) (A) (A) (A) (A)
                 (A) (A) (A) (A) (A) (A) (A) (A) (A) (A) (A) (A)
                 (A) (A) (A) (A) (A) (A) (A) (A) (A) (A) (A) (A)
                 (A) (A) (A) (A) (A) (A) (A) (A) (A) (A) (A) (A)
                 (A) (A) (A) (A) (A) (A) (A) (A) (A) (A) (A) (A)
                 (A) (A) (A) (A) (A) (A) (A) (A) (A) (A) (A) (A)
                 (A) (A) (A) (A) (A) (A) (A) (A) (A) (A) (A) (A)
                 (A) (A) (A) (A) (A) (A) (A) (A) (A) (A) (A) (A)
                 (A) (A) (A) (A) (A) (A) (A) (A) (A) (A) (A) (A)
                 (A) (A) (A) (A) (A) (A) (A) (A) (A) (A) (A) (A)
                 (A) (A) (A) (A) (A) (A) (A) (A) (A) (A) (A) (A)
                 (A) (A) (A) (A) (A) (A) (A) (A) (A) (A) (A) (A)
                 (A) (A) (A) (A) (A) (A) (A) (A) (A) (A) (A) (A)
                 (A) (A) (A) (A) (A) (A) (A) (A) (A) (A) (A) (A)
                 (A) (A) (A) (A) (A) (A) (A) (A) (A) (A) (A) (A)
                 (A) (A) (A) (A) (A) (A) (A) (A) (A) (A) (A) (A)
                 (A) (A) (A) (A) (A) (A) (A) (A) (A) (A) (A) (A)
                 (A) (A) (A) (A) (A) (A) (A) (A) (A) (A) (A) (A)
                 (A) (A) (A) (A) (A) (A) (A) (A) (A) (A) (A) (A)
                 (A) (A) (A) (A) (A) (A) (A) (A) (A) (A) (A) (A)
                 (A) (A) (A) (A) (A) (A) (A) (A) (A) (A) (A) (A)
                 (A) (A) (A) (A) (A) (A) (A) (A) (A) (A) (A) (A)
                 (A) (A) (A) (A) (A) (A) (A) (A) (A) (A) (A) (A)
                 (A) (A) (A) (A) (A) (A) (A) (A) (A) (A) (A) (A)
                 (A) (A) (A) (A) (A) (A) (A) (A) (A) (A) (A) (A)
                 (A) (A) (A) (A) (A) (A) (A) (A) (A) (A) (A) (A)
                 (A) (A) (A) (A) (A) (A) (A) (A) (A) (A) (A) (A)
                 (A) (A) (A) (A) (A) (A) (A) (A) (A) (A) (A) (A)
                 (A) (A) (A) (A) (A) (A) (A) (A) (A) (A) (A) (A)
                 (A) (A) (A) (A) (A) (A) (A) (A) (A) (A) (A) (A)
                 (A) (A) (A) (A) (A) (A) (A) (A) (A) (A) (A) (A)
                 (A) (A) (A) (A) (A) (A) (A) (A) (A) (A) (A) (A)
                 (A) (A) (A) (A) (A) (A) (A) (A) (A) (A) (A) (A)
                 (A) (A) (A) (A) (A) (A) (A) (A) (A) (A) (A) (A)
                 (A) (A) (A) (A) (A) (A) (A) (A) (A) (A) (A) (A)
                 (A) (A) (A) (A) (A) (A) (A) (A) (A) (A) (A) (A)
                 (A) (A) (A) (A) (A) (A) (A) (A) (A) (A) (A) (A)
                 (A) (A) (A) (A) (A) (A) (A) (A) (A) (A) (A) (A)
                 (A) (A) (A) (A) (A) (A) (A) (A) (A) (A) (A) (A)
                 (A) (A) (A) (A) (A) (A) (A) (A) (A) (A) (A) (A)
                 (A) (A) (A) (A) (A) (A) (A) (A) (A) (A) (A) (A)
                 (A) (A) (A) (A) (A) (A) (A) (A) (A) (A) (A) (A)
                 (A) (A) (A) (A) (A) (A) (A) (A) (A) (A) (A) (A)
                 (A) (A) (A) (A) (A) (A) (A) (A) (A) (A) (A) (A)
                 (A) (A) (A) (A) (A) (A) (A) (A) (A) (A) (A) (A)
                 (A) (A) (A) (A) (A) (A) (A) (A) (A) (A) (A) (A)
                 (A) (A) (A) (A) (A) (A) (A) (A) (A) (A) (A) (A)
                 (A) (A) (A) (A) (A) (A) (A) (A) (A) (A) (A) (A)
                 (A) (A) (A) (A) (A) (A) (A) (A) (A) (A) (A) (A)
                 (A) (A) (A) (A) (A) (A) (A) (A) (A) (A) (A) (A)
                 (A) (A) (A) (A) (A) (A) (A) (A) (A) (A) (A) (A)
                 (A) (A) (A) (A) (A) (A) (A) (A) (A) (A) (A) (A)
                 (A) (A) (A) (A) (A) (A) (A) (A) (A) (A) (A) (A)
                 (A) (A) (A) (A) (A) (A) (A) (A) (A) (A) (A) (A)
                 (A) (A) (A) (A) (A) (A) (A) (A) (A) (A) (A) (A)
                 (A) (A) (A) (A) (A) (A) (A) (A) (A) (A) (A) (A)
                 (A) (A) (A) (A) (A) (A) (A) (A) (A) (A) (A) (A)
                 (A) (A) (A) (A) (A) (A) (A)
 The electronic state is 1-A.
 Alpha  occ. eigenvalues --  -19.25552 -19.25093 -19.25046 -19.25042 -19.25029
 Alpha  occ. eigenvalues --  -19.25027 -19.24561 -19.23958 -19.23879 -19.23641
 Alpha  occ. eigenvalues --  -10.30275 -10.30210 -10.30183 -10.29939 -10.29875
 Alpha  occ. eigenvalues --  -10.29800 -10.29757 -10.29550 -10.29207 -10.29193
 Alpha  occ. eigenvalues --  -10.28265 -10.28055 -10.27419 -10.27285 -10.26948
 Alpha  occ. eigenvalues --  -10.26685 -10.24701 -10.24696 -10.24673 -10.24630
 Alpha  occ. eigenvalues --  -10.24583 -10.24523 -10.24113 -10.24052 -10.23881
 Alpha  occ. eigenvalues --  -10.23815 -10.23808 -10.23561 -10.23452 -10.23414
 Alpha  occ. eigenvalues --  -10.23211 -10.23184 -10.22892 -10.22841  -1.11120
 Alpha  occ. eigenvalues --   -1.11032  -1.10006  -1.09439  -1.09333  -1.08987
 Alpha  occ. eigenvalues --   -1.08617  -1.08266  -1.07326  -1.07093  -0.89692
 Alpha  occ. eigenvalues --   -0.88307  -0.88100  -0.87773  -0.84510  -0.83654
 Alpha  occ. eigenvalues --   -0.79902  -0.78659  -0.78151  -0.77963  -0.77623
 Alpha  occ. eigenvalues --   -0.75773  -0.75684  -0.75145  -0.72589  -0.71383
 Alpha  occ. eigenvalues --   -0.69831  -0.69765  -0.68972  -0.68510  -0.66409
 Alpha  occ. eigenvalues --   -0.66262  -0.65493  -0.63483  -0.63089  -0.62143
 Alpha  occ. eigenvalues --   -0.61882  -0.60702  -0.59416  -0.58168  -0.58103
 Alpha  occ. eigenvalues --   -0.56943  -0.55740  -0.55523  -0.54050  -0.53660
 Alpha  occ. eigenvalues --   -0.52471  -0.52046  -0.51643  -0.51117  -0.51009
 Alpha  occ. eigenvalues --   -0.50492  -0.50156  -0.49425  -0.49309  -0.48865
 Alpha  occ. eigenvalues --   -0.48771  -0.47847  -0.47393  -0.47224  -0.46852
 Alpha  occ. eigenvalues --   -0.46702  -0.46256  -0.45362  -0.45214  -0.44933
 Alpha  occ. eigenvalues --   -0.44619  -0.44596  -0.44288  -0.43969  -0.43737
 Alpha  occ. eigenvalues --   -0.43573  -0.43008  -0.42482  -0.42363  -0.41986
 Alpha  occ. eigenvalues --   -0.41854  -0.41555  -0.41251  -0.40736  -0.40707
 Alpha  occ. eigenvalues --   -0.40575  -0.40190  -0.39790  -0.39553  -0.39098
 Alpha  occ. eigenvalues --   -0.38777  -0.37332  -0.37164  -0.36857  -0.36645
 Alpha  occ. eigenvalues --   -0.36544  -0.36177  -0.35398  -0.34935  -0.34675
 Alpha  occ. eigenvalues --   -0.34307  -0.34149  -0.33871  -0.33392  -0.32726
 Alpha  occ. eigenvalues --   -0.32478  -0.32042  -0.31837  -0.31156  -0.29023
 Alpha  occ. eigenvalues --   -0.28630  -0.25052  -0.24976  -0.24724  -0.24548
 Alpha  occ. eigenvalues --   -0.24378  -0.22944  -0.22339  -0.21700
 Alpha virt. eigenvalues --   -0.01682  -0.01295  -0.01104  -0.00722  -0.00466
 Alpha virt. eigenvalues --    0.00330   0.00510   0.00745   0.01055   0.01079
 Alpha virt. eigenvalues --    0.01435   0.01903   0.02139   0.02288   0.02485
 Alpha virt. eigenvalues --    0.02883   0.02949   0.03279   0.03621   0.03857
 Alpha virt. eigenvalues --    0.03983   0.04203   0.04473   0.04706   0.05027
 Alpha virt. eigenvalues --    0.05108   0.05387   0.05764   0.05927   0.06074
 Alpha virt. eigenvalues --    0.06463   0.06564   0.06883   0.07075   0.07443
 Alpha virt. eigenvalues --    0.07917   0.08008   0.08143   0.08538   0.08711
 Alpha virt. eigenvalues --    0.08840   0.09047   0.09291   0.09367   0.09993
 Alpha virt. eigenvalues --    0.10311   0.10616   0.10728   0.10838   0.11092
 Alpha virt. eigenvalues --    0.11365   0.11598   0.11822   0.12233   0.12344
 Alpha virt. eigenvalues --    0.12393   0.12458   0.12839   0.12865   0.13297
 Alpha virt. eigenvalues --    0.13532   0.13782   0.13833   0.14015   0.14136
 Alpha virt. eigenvalues --    0.14434   0.14561   0.14673   0.14830   0.14968
 Alpha virt. eigenvalues --    0.15126   0.15281   0.15408   0.15630   0.15771
 Alpha virt. eigenvalues --    0.15917   0.16366   0.16463   0.16528   0.16645
 Alpha virt. eigenvalues --    0.16785   0.17049   0.17298   0.17427   0.17606
 Alpha virt. eigenvalues --    0.17718   0.17871   0.18131   0.18196   0.18396
 Alpha virt. eigenvalues --    0.18491   0.19010   0.19029   0.19192   0.19328
 Alpha virt. eigenvalues --    0.19484   0.19550   0.19775   0.19986   0.20222
 Alpha virt. eigenvalues --    0.20284   0.20562   0.20700   0.20849   0.20915
 Alpha virt. eigenvalues --    0.20977   0.21315   0.21375   0.21512   0.21750
 Alpha virt. eigenvalues --    0.22022   0.22028   0.22187   0.22290   0.22474
 Alpha virt. eigenvalues --    0.22677   0.22751   0.22956   0.23019   0.23080
 Alpha virt. eigenvalues --    0.23238   0.23523   0.23830   0.23992   0.24294
 Alpha virt. eigenvalues --    0.24303   0.24476   0.24545   0.24712   0.24941
 Alpha virt. eigenvalues --    0.25149   0.25263   0.25349   0.25595   0.25734
 Alpha virt. eigenvalues --    0.25940   0.26115   0.26153   0.26465   0.26594
 Alpha virt. eigenvalues --    0.26775   0.26873   0.27104   0.27190   0.27381
 Alpha virt. eigenvalues --    0.27593   0.27901   0.27984   0.28151   0.28226
 Alpha virt. eigenvalues --    0.28475   0.28615   0.28949   0.29084   0.29184
 Alpha virt. eigenvalues --    0.29443   0.29516   0.29551   0.29853   0.29884
 Alpha virt. eigenvalues --    0.29992   0.30277   0.30346   0.30510   0.30716
 Alpha virt. eigenvalues --    0.30878   0.30985   0.31012   0.31183   0.31460
 Alpha virt. eigenvalues --    0.31699   0.31827   0.31998   0.32023   0.32563
 Alpha virt. eigenvalues --    0.32588   0.32813   0.33083   0.33180   0.33444
 Alpha virt. eigenvalues --    0.33597   0.33757   0.33924   0.34256   0.34262
 Alpha virt. eigenvalues --    0.34588   0.34946   0.35234   0.35266   0.35377
 Alpha virt. eigenvalues --    0.35771   0.35910   0.36114   0.36343   0.36544
 Alpha virt. eigenvalues --    0.36753   0.36986   0.37079   0.37159   0.37542
 Alpha virt. eigenvalues --    0.37639   0.37820   0.38034   0.38392   0.38777
 Alpha virt. eigenvalues --    0.38963   0.39036   0.39454   0.39511   0.39588
 Alpha virt. eigenvalues --    0.39795   0.40029   0.40380   0.40461   0.40684
 Alpha virt. eigenvalues --    0.40818   0.41075   0.41152   0.41336   0.41593
 Alpha virt. eigenvalues --    0.41821   0.42027   0.42274   0.42611   0.42857
 Alpha virt. eigenvalues --    0.43141   0.43303   0.43608   0.43895   0.43977
 Alpha virt. eigenvalues --    0.44158   0.44848   0.45171   0.45495   0.45573
 Alpha virt. eigenvalues --    0.45761   0.46157   0.46363   0.47053   0.47098
 Alpha virt. eigenvalues --    0.47267   0.47838   0.48348   0.48544   0.48814
 Alpha virt. eigenvalues --    0.49099   0.49222   0.50408   0.50578   0.50754
 Alpha virt. eigenvalues --    0.50951   0.51755   0.51822   0.52006   0.52608
 Alpha virt. eigenvalues --    0.52856   0.53631   0.53692   0.53887   0.54240
 Alpha virt. eigenvalues --    0.54498   0.54668   0.54964   0.55509   0.55661
 Alpha virt. eigenvalues --    0.55813   0.56018   0.56465   0.56580   0.57495
 Alpha virt. eigenvalues --    0.57585   0.57626   0.57973   0.58248   0.58470
 Alpha virt. eigenvalues --    0.58678   0.58878   0.59604   0.59736   0.60060
 Alpha virt. eigenvalues --    0.60191   0.60529   0.60831   0.61075   0.61178
 Alpha virt. eigenvalues --    0.61450   0.61712   0.62135   0.62285   0.62557
 Alpha virt. eigenvalues --    0.63105   0.63245   0.63634   0.63855   0.64010
 Alpha virt. eigenvalues --    0.64070   0.64253   0.64553   0.64908   0.65215
 Alpha virt. eigenvalues --    0.65323   0.65923   0.66193   0.66400   0.66556
 Alpha virt. eigenvalues --    0.66901   0.67023   0.67223   0.67350   0.67642
 Alpha virt. eigenvalues --    0.67744   0.67959   0.68032   0.68339   0.68684
 Alpha virt. eigenvalues --    0.68905   0.69083   0.69316   0.69620   0.69964
 Alpha virt. eigenvalues --    0.70180   0.70220   0.70523   0.70565   0.70730
 Alpha virt. eigenvalues --    0.70833   0.71340   0.71465   0.71783   0.71878
 Alpha virt. eigenvalues --    0.72290   0.72618   0.72721   0.72787   0.73047
 Alpha virt. eigenvalues --    0.73368   0.73581   0.73691   0.73836   0.74314
 Alpha virt. eigenvalues --    0.74538   0.74871   0.74897   0.75349   0.75499
 Alpha virt. eigenvalues --    0.75967   0.76071   0.76299   0.76459   0.76604
 Alpha virt. eigenvalues --    0.77077   0.77396   0.77667   0.77924   0.78063
 Alpha virt. eigenvalues --    0.78091   0.78389   0.78611   0.78971   0.79078
 Alpha virt. eigenvalues --    0.79343   0.79705   0.80157   0.80259   0.80478
 Alpha virt. eigenvalues --    0.80662   0.81231   0.81510   0.81640   0.81699
 Alpha virt. eigenvalues --    0.81902   0.82101   0.82452   0.82783   0.82833
 Alpha virt. eigenvalues --    0.82962   0.83346   0.83637   0.84009   0.84164
 Alpha virt. eigenvalues --    0.84216   0.84751   0.84961   0.85292   0.85917
 Alpha virt. eigenvalues --    0.86079   0.86396   0.86524   0.86834   0.87290
 Alpha virt. eigenvalues --    0.87411   0.87646   0.87919   0.87966   0.88101
 Alpha virt. eigenvalues --    0.88393   0.88545   0.89493   0.89577   0.90046
 Alpha virt. eigenvalues --    0.90291   0.90593   0.90892   0.90939   0.91512
 Alpha virt. eigenvalues --    0.91548   0.91873   0.92089   0.92692   0.92820
 Alpha virt. eigenvalues --    0.93435   0.93574   0.93935   0.94356   0.94610
 Alpha virt. eigenvalues --    0.95370   0.95589   0.95948   0.96589   0.96833
 Alpha virt. eigenvalues --    0.96866   0.97933   0.98164   0.98384   0.98873
 Alpha virt. eigenvalues --    0.99268   0.99479   0.99737   0.99948   1.00595
 Alpha virt. eigenvalues --    1.01209   1.01716   1.02129   1.02308   1.02722
 Alpha virt. eigenvalues --    1.03149   1.03521   1.03824   1.04254   1.04489
 Alpha virt. eigenvalues --    1.05232   1.05511   1.05904   1.05986   1.06231
 Alpha virt. eigenvalues --    1.07317   1.07781   1.07997   1.08547   1.08615
 Alpha virt. eigenvalues --    1.09073   1.09464   1.09729   1.10170   1.10312
 Alpha virt. eigenvalues --    1.10446   1.10927   1.11174   1.11495   1.11689
 Alpha virt. eigenvalues --    1.12169   1.12412   1.12996   1.13319   1.13585
 Alpha virt. eigenvalues --    1.14292   1.14426   1.14568   1.15070   1.15368
 Alpha virt. eigenvalues --    1.15506   1.16054   1.16537   1.16783   1.17016
 Alpha virt. eigenvalues --    1.17342   1.17680   1.17990   1.18396   1.18479
 Alpha virt. eigenvalues --    1.18878   1.18922   1.19199   1.20234   1.20297
 Alpha virt. eigenvalues --    1.20921   1.21244   1.21382   1.21700   1.21988
 Alpha virt. eigenvalues --    1.22410   1.22622   1.22818   1.23138   1.23671
 Alpha virt. eigenvalues --    1.23908   1.24101   1.24485   1.25148   1.25898
 Alpha virt. eigenvalues --    1.26047   1.26206   1.26357   1.26775   1.26850
 Alpha virt. eigenvalues --    1.27301   1.27862   1.28035   1.28463   1.29005
 Alpha virt. eigenvalues --    1.29110   1.29547   1.29819   1.30411   1.30874
 Alpha virt. eigenvalues --    1.31130   1.31590   1.31972   1.32340   1.32566
 Alpha virt. eigenvalues --    1.33024   1.33034   1.33440   1.33734   1.34023
 Alpha virt. eigenvalues --    1.34717   1.35038   1.35176   1.35409   1.35580
 Alpha virt. eigenvalues --    1.36004   1.36437   1.36664   1.37170   1.37424
 Alpha virt. eigenvalues --    1.38156   1.38603   1.38803   1.39080   1.39638
 Alpha virt. eigenvalues --    1.39770   1.40093   1.40350   1.40554   1.41266
 Alpha virt. eigenvalues --    1.41491   1.41692   1.42449   1.42732   1.43102
 Alpha virt. eigenvalues --    1.43596   1.43954   1.44406   1.44745   1.45258
 Alpha virt. eigenvalues --    1.45752   1.45966   1.46263   1.46613   1.47065
 Alpha virt. eigenvalues --    1.47833   1.48333   1.48743   1.48760   1.49076
 Alpha virt. eigenvalues --    1.49403   1.49804   1.50591   1.50721   1.51326
 Alpha virt. eigenvalues --    1.51498   1.51822   1.52371   1.52639   1.53380
 Alpha virt. eigenvalues --    1.53435   1.53902   1.54310   1.54622   1.55170
 Alpha virt. eigenvalues --    1.55520   1.56002   1.56411   1.56495   1.57250
 Alpha virt. eigenvalues --    1.57850   1.58465   1.59074   1.59479   1.59885
 Alpha virt. eigenvalues --    1.60939   1.61452   1.61786   1.61967   1.62837
 Alpha virt. eigenvalues --    1.63040   1.63842   1.63942   1.64760   1.64889
 Alpha virt. eigenvalues --    1.65547   1.66611   1.66876   1.67675   1.68195
 Alpha virt. eigenvalues --    1.69005   1.69514   1.69989   1.70625   1.70981
 Alpha virt. eigenvalues --    1.71332   1.72089   1.72440   1.73131   1.73653
 Alpha virt. eigenvalues --    1.74016   1.75027   1.75242   1.75668   1.76372
 Alpha virt. eigenvalues --    1.76556   1.77045   1.77349   1.77563   1.78132
 Alpha virt. eigenvalues --    1.78340   1.79527   1.79625   1.80511   1.80893
 Alpha virt. eigenvalues --    1.81283   1.81797   1.82165   1.82780   1.83212
 Alpha virt. eigenvalues --    1.83299   1.83674   1.84522   1.84862   1.86000
 Alpha virt. eigenvalues --    1.86496   1.86805   1.87420   1.88029   1.88613
 Alpha virt. eigenvalues --    1.89619   1.89806   1.90981   1.91796   1.91901
 Alpha virt. eigenvalues --    1.92878   1.94169   1.94354   1.95031   1.95316
 Alpha virt. eigenvalues --    1.96018   1.96124   1.96723   1.97390   1.97981
 Alpha virt. eigenvalues --    1.98574   1.98752   1.98979   1.99347   1.99442
 Alpha virt. eigenvalues --    2.00067   2.00582   2.01023   2.01306   2.01978
 Alpha virt. eigenvalues --    2.02677   2.03216   2.03645   2.04052   2.04668
 Alpha virt. eigenvalues --    2.05246   2.05746   2.06708   2.07227   2.07544
 Alpha virt. eigenvalues --    2.07885   2.08631   2.09491   2.09599   2.10508
 Alpha virt. eigenvalues --    2.11450   2.11874   2.12470   2.12907   2.13518
 Alpha virt. eigenvalues --    2.14497   2.16544   2.16888   2.17569   2.19845
 Alpha virt. eigenvalues --    2.20438   2.20884   2.21747   2.22698   2.22937
 Alpha virt. eigenvalues --    2.23619   2.25123   2.25519   2.26099   2.26275
 Alpha virt. eigenvalues --    2.26802   2.27117   2.27380   2.28595   2.29111
 Alpha virt. eigenvalues --    2.29884   2.30211   2.30860   2.31429   2.31567
 Alpha virt. eigenvalues --    2.32022   2.32514   2.33061   2.33314   2.34059
 Alpha virt. eigenvalues --    2.34437   2.34532   2.35305   2.35768   2.37109
 Alpha virt. eigenvalues --    2.37585   2.38335   2.38610   2.39323   2.39762
 Alpha virt. eigenvalues --    2.40447   2.40994   2.41062   2.41703   2.42300
 Alpha virt. eigenvalues --    2.42806   2.43415   2.43758   2.43925   2.45455
 Alpha virt. eigenvalues --    2.45489   2.46065   2.46207   2.46689   2.47119
 Alpha virt. eigenvalues --    2.47285   2.48225   2.48422   2.48639   2.49330
 Alpha virt. eigenvalues --    2.49746   2.50464   2.51515   2.52390   2.52940
 Alpha virt. eigenvalues --    2.53485   2.55340   2.55527   2.56949   2.57415
 Alpha virt. eigenvalues --    2.58480   2.59133   2.59435   2.60767   2.61289
 Alpha virt. eigenvalues --    2.62717   2.63185   2.63757   2.64546   2.65709
 Alpha virt. eigenvalues --    2.66135   2.66497   2.67352   2.68022   2.68566
 Alpha virt. eigenvalues --    2.70290   2.70751   2.71601   2.72325   2.72662
 Alpha virt. eigenvalues --    2.72940   2.74512   2.75041   2.75882   2.76201
 Alpha virt. eigenvalues --    2.76697   2.77324   2.78434   2.78854   2.79143
 Alpha virt. eigenvalues --    2.80673   2.80770   2.81724   2.82014   2.82258
 Alpha virt. eigenvalues --    2.83118   2.83809   2.84858   2.86124   2.87782
 Alpha virt. eigenvalues --    2.88241   2.88687   2.89090   2.89329   2.89783
 Alpha virt. eigenvalues --    2.91650   2.92237   2.93274   2.93614   2.94223
 Alpha virt. eigenvalues --    2.95381   2.95641   2.96024   2.97223   2.97978
 Alpha virt. eigenvalues --    2.98979   2.99076   2.99641   3.00353   3.00772
 Alpha virt. eigenvalues --    3.01095   3.01787   3.02304   3.02757   3.03303
 Alpha virt. eigenvalues --    3.03763   3.03905   3.04545   3.04910   3.05125
 Alpha virt. eigenvalues --    3.06149   3.06398   3.07140   3.07443   3.08103
 Alpha virt. eigenvalues --    3.08969   3.09652   3.10211   3.10664   3.11140
 Alpha virt. eigenvalues --    3.11320   3.11859   3.13048   3.13724   3.14731
 Alpha virt. eigenvalues --    3.14982   3.15771   3.16851   3.17126   3.17600
 Alpha virt. eigenvalues --    3.19216   3.19555   3.19911   3.20243   3.20681
 Alpha virt. eigenvalues --    3.21653   3.22595   3.23064   3.24153   3.24794
 Alpha virt. eigenvalues --    3.25064   3.25561   3.26466   3.27110   3.27400
 Alpha virt. eigenvalues --    3.27782   3.28456   3.28911   3.29471   3.29856
 Alpha virt. eigenvalues --    3.30180   3.31110   3.31682   3.32334   3.33566
 Alpha virt. eigenvalues --    3.33941   3.34125   3.34524   3.35178   3.35673
 Alpha virt. eigenvalues --    3.35788   3.36489   3.37220   3.37467   3.38132
 Alpha virt. eigenvalues --    3.38164   3.38743   3.39408   3.39889   3.40244
 Alpha virt. eigenvalues --    3.40803   3.41008   3.41280   3.41889   3.42111
 Alpha virt. eigenvalues --    3.42536   3.42806   3.43191   3.43485   3.44136
 Alpha virt. eigenvalues --    3.44445   3.45238   3.45745   3.45995   3.46324
 Alpha virt. eigenvalues --    3.46646   3.47196   3.47794   3.48098   3.48286
 Alpha virt. eigenvalues --    3.49640   3.49894   3.50312   3.50655   3.50978
 Alpha virt. eigenvalues --    3.51226   3.51614   3.52119   3.52600   3.53099
 Alpha virt. eigenvalues --    3.53512   3.54094   3.54381   3.54949   3.54987
 Alpha virt. eigenvalues --    3.55968   3.56370   3.56614   3.57151   3.57517
 Alpha virt. eigenvalues --    3.57754   3.57933   3.58683   3.58905   3.59857
 Alpha virt. eigenvalues --    3.60251   3.60663   3.60932   3.61241   3.62110
 Alpha virt. eigenvalues --    3.62845   3.63187   3.63651   3.63832   3.63972
 Alpha virt. eigenvalues --    3.64719   3.64972   3.65154   3.65730   3.65960
 Alpha virt. eigenvalues --    3.66362   3.66641   3.67089   3.67201   3.68322
 Alpha virt. eigenvalues --    3.68552   3.69097   3.69218   3.69659   3.70144
 Alpha virt. eigenvalues --    3.70462   3.70883   3.71119   3.71540   3.71579
 Alpha virt. eigenvalues --    3.71738   3.72455   3.73032   3.73236   3.73832
 Alpha virt. eigenvalues --    3.74432   3.74624   3.75168   3.75760   3.76201
 Alpha virt. eigenvalues --    3.76844   3.77333   3.78029   3.78545   3.78821
 Alpha virt. eigenvalues --    3.79135   3.80106   3.80374   3.80898   3.81352
 Alpha virt. eigenvalues --    3.81932   3.82379   3.82635   3.82921   3.83760
 Alpha virt. eigenvalues --    3.84208   3.84319   3.84814   3.85637   3.86146
 Alpha virt. eigenvalues --    3.86832   3.87476   3.87750   3.87941   3.88903
 Alpha virt. eigenvalues --    3.89215   3.89614   3.90135   3.90919   3.91679
 Alpha virt. eigenvalues --    3.92055   3.93026   3.93303   3.94281   3.94431
 Alpha virt. eigenvalues --    3.95053   3.95377   3.95678   3.96227   3.96877
 Alpha virt. eigenvalues --    3.97532   3.98054   3.99553   3.99762   4.00327
 Alpha virt. eigenvalues --    4.00764   4.01569   4.02710   4.03052   4.05193
 Alpha virt. eigenvalues --    4.06951   4.07359   4.08258   4.08895   4.10033
 Alpha virt. eigenvalues --    4.10654   4.11354   4.11645   4.12482   4.12856
 Alpha virt. eigenvalues --    4.13640   4.13968   4.15847   4.16711   4.17719
 Alpha virt. eigenvalues --    4.19122   4.20322   4.20738   4.21245   4.21491
 Alpha virt. eigenvalues --    4.21683   4.22710   4.23480   4.24147   4.24462
 Alpha virt. eigenvalues --    4.25877   4.26882   4.27415   4.28033   4.28148
 Alpha virt. eigenvalues --    4.29445   4.29918   4.31074   4.31688   4.32401
 Alpha virt. eigenvalues --    4.33345   4.34774   4.36031   4.37222   4.37875
 Alpha virt. eigenvalues --    4.43583   4.44348   4.45454   4.46837   4.47235
 Alpha virt. eigenvalues --    4.48934   4.51424   4.52692   4.53765   4.55760
 Alpha virt. eigenvalues --    4.56297   4.58948   4.60283   4.64507   4.69147
 Alpha virt. eigenvalues --    4.69667   4.71820   4.78996   4.79987   4.82534
 Alpha virt. eigenvalues --    4.83308   4.83556   4.87489   4.92341   4.94672
 Alpha virt. eigenvalues --    5.06022   5.06600   5.10107   5.10297   5.18968
 Alpha virt. eigenvalues --    5.22318   5.24583   5.25009   5.25931   5.28531
 Alpha virt. eigenvalues --    5.30014   5.31155   5.32824   5.39339   5.42211
 Alpha virt. eigenvalues --    5.46680   5.50459   5.54659   5.58149   5.59879
 Alpha virt. eigenvalues --    5.60651   5.61077   5.64298   5.72175   5.72777
 Alpha virt. eigenvalues --    5.84417   5.85683   5.93342   5.95415   5.97986
 Alpha virt. eigenvalues --    5.98366   6.02261   6.03818   6.04981   6.05124
 Alpha virt. eigenvalues --    6.87291   6.89295   6.90001   6.95172   6.98100
 Alpha virt. eigenvalues --    6.99162   6.99402   7.02491   7.02951   7.04345
 Alpha virt. eigenvalues --    7.05170   7.06067   7.07122   7.07299   7.07719
 Alpha virt. eigenvalues --    7.07937   7.08666   7.10854   7.11193   7.11927
 Alpha virt. eigenvalues --    7.12471   7.13243   7.15140   7.16622   7.18353
 Alpha virt. eigenvalues --    7.20764   7.20939   7.22018   7.25781   7.26583
 Alpha virt. eigenvalues --    7.30005   7.31887   7.33878   7.35436   7.37856
 Alpha virt. eigenvalues --    7.38403   7.38858   7.41996   7.42286   7.42446
 Alpha virt. eigenvalues --    7.45926   7.46736   7.49932   7.50368   7.55643
 Alpha virt. eigenvalues --    7.55794   7.58291   7.59699   7.59973   7.60373
 Alpha virt. eigenvalues --   23.78336  23.81931  23.82818  23.88222  24.00942
 Alpha virt. eigenvalues --   24.03427  24.06573  24.07450  24.08121  24.09131
 Alpha virt. eigenvalues --   24.09563  24.12090  24.12324  24.12802  24.13292
 Alpha virt. eigenvalues --   24.14008  24.14675  24.17584  24.18185  24.20666
 Alpha virt. eigenvalues --   24.22284  24.24279  24.25100  24.25854  24.29427
 Alpha virt. eigenvalues --   24.30839  24.31282  24.32600  24.33631  24.34172
 Alpha virt. eigenvalues --   24.35589  24.39686  24.41200  24.52166  50.10471
 Alpha virt. eigenvalues --   50.12310  50.12512  50.14236  50.16752  50.17441
 Alpha virt. eigenvalues --   50.20883  50.21339  50.22435  50.23454
          Condensed to atoms (all electrons):
 Mulliken charges:
               1
     1  C    0.033547
     2  C   -0.172547
     3  C    0.019845
     4  C    1.151007
     5  C   -0.282356
     6  C   -0.734302
     7  C   -1.005187
     8  C    0.024830
     9  C   -0.287423
    10  O   -0.332223
    11  C    0.787942
    12  C   -0.366694
    13  C    0.176383
    14  C   -0.020024
    15  C   -0.297318
    16  C   -0.059213
    17  O   -0.292437
    18  O   -0.490480
    19  O   -0.516736
    20  O   -0.439630
    21  C   -0.051767
    22  C   -0.041313
    23  C   -0.113639
    24  C    0.244727
    25  C   -0.324380
    26  C    0.708275
    27  O   -0.438483
    28  C   -0.364842
    29  C    0.152131
    30  C   -0.480880
    31  C   -0.387938
    32  C   -0.340043
    33  C    0.710099
    34  C   -0.272352
    35  C   -0.027289
    36  C   -0.012421
    37  O   -0.463095
    38  C   -0.285513
    39  O   -0.301629
    40  C   -0.260546
    41  O   -0.353586
    42  C   -0.244557
    43  O   -0.431548
    44  C   -0.293064
    45  H    0.173641
    46  H    0.149803
    47  H    0.150459
    48  H    0.213013
    49  H    0.204582
    50  H    0.151881
    51  H    0.190238
    52  H    0.188976
    53  H    0.197089
    54  H    0.281107
    55  H    0.346401
    56  H    0.351149
    57  H    0.316959
    58  H    0.196795
    59  H    0.203309
    60  H    0.206868
    61  H    0.159379
    62  H    0.210890
    63  H    0.179987
    64  H    0.152106
    65  H    0.152409
    66  H    0.151708
    67  H    0.178906
    68  H    0.197186
    69  H    0.187051
    70  H    0.183669
    71  H    0.197259
    72  H    0.191270
    73  H    0.176267
    74  H    0.192208
    75  H    0.177524
    76  H    0.182603
    77  H    0.189398
    78  H    0.194579
 Sum of Mulliken charges =  -0.00000
 Mulliken charges with hydrogens summed into heavy atoms:
               1
     1  C    0.033547
     2  C    0.001094
     3  C    0.169648
     4  C    1.151007
     5  C   -0.282356
     6  C   -0.583843
     7  C   -0.587592
     8  C    0.176711
     9  C    0.091791
    10  O   -0.332223
    11  C    0.787942
    12  C   -0.169605
    13  C    0.176383
    14  C   -0.020024
    15  C   -0.297318
    16  C   -0.059213
    17  O   -0.011331
    18  O   -0.144079
    19  O   -0.165587
    20  O   -0.122671
    21  C   -0.051767
    22  C   -0.041313
    23  C   -0.113639
    24  C    0.244727
    25  C   -0.127585
    26  C    0.708275
    27  O   -0.438483
    28  C    0.045336
    29  C    0.311509
    30  C   -0.090002
    31  C   -0.235833
    32  C   -0.340043
    33  C    0.710099
    34  C   -0.119943
    35  C    0.124419
    36  C   -0.012421
    37  O   -0.463095
    38  C    0.277631
    39  O   -0.301629
    40  C    0.311652
    41  O   -0.353586
    42  C    0.301442
    43  O   -0.431548
    44  C    0.273516
 Electronic spatial extent (au):  <R**2>=          25763.4803
 Charge=              0.0000 electrons
 Dipole moment (field-independent basis, Debye):
    X=             -6.9490    Y=              5.3505    Z=              0.5295  Tot=              8.7862
 Quadrupole moment (field-independent basis, Debye-Ang):
   XX=           -230.7401   YY=           -247.9987   ZZ=           -224.6889
   XY=              3.7235   XZ=              9.0969   YZ=              2.0929
 Traceless Quadrupole moment (field-independent basis, Debye-Ang):
   XX=              3.7358   YY=            -13.5228   ZZ=              9.7870
   XY=              3.7235   XZ=              9.0969   YZ=              2.0929
 Octapole moment (field-independent basis, Debye-Ang**2):
  XXX=           -213.6068  YYY=            145.7064  ZZZ=             20.3384  XYY=           -145.6617
  XXY=             62.1342  XXZ=            215.3335  XZZ=             32.2336  YZZ=             52.0841
  YYZ=            -66.2107  XYZ=              4.3515
 Hexadecapole moment (field-independent basis, Debye-Ang**3):
 XXXX=         -17506.5408 YYYY=          -9969.6421 ZZZZ=          -3149.2557 XXXY=            -21.3051
 XXXZ=            751.4523 YYYX=             -1.6701 YYYZ=           -382.6516 ZZZX=            121.1880
 ZZZY=            -78.2399 XXYY=          -5109.6861 XXZZ=          -3079.9654 YYZZ=          -2076.9941
 XXYZ=             52.0504 YYXZ=             97.5087 ZZXY=            -52.9144
 N-N= 5.578491833626D+03 E-N=-1.599099552248D+04  KE= 2.059488578149D+03
 Unable to Open any file for archive entry.
 1\1\GINC-C07B01N02\SP\RmPW1PW91\6-311+G(2d,p)\C34H34O10\ROOT\25-Sep-20
 25\0\\# mPW1PW91/6-311+g(2d,p) NMR scrf(SMD,solvent=dmso) geom=connect
 ivity\\58RR\\0,1\C,0,2.335662,-2.875886,-0.931436\C,0,1.969968,-2.6092
 84,-2.258368\C,0,0.651694,-2.826199,-2.652745\C,0,-0.318968,-3.323973,
 -1.777481\C,0,0.081332,-3.610834,-0.460088\C,0,1.396081,-3.388111,-0.0
 37685\C,0,-1.768286,-3.472034,-2.189071\C,0,-2.692637,-3.493615,-0.961
 889\C,0,-2.081684,-4.479942,0.042405\O,0,-0.784044,-4.061668,0.494457\
 C,0,-2.931041,-2.138336,-0.319008\C,0,-2.144717,-1.012633,-0.573177\C,
 0,-2.338938,0.221494,0.064878\C,0,-3.379561,0.33499,0.999668\C,0,-4.20
 9193,-0.765127,1.241759\C,0,-3.982423,-1.989013,0.596637\O,0,3.599183,
 -2.645144,-0.462026\O,0,-4.804162,-3.041233,0.872929\O,0,1.402788,4.30
 233,-1.08411\O,0,8.155529,-0.615407,1.317549\C,0,0.514417,3.315557,-0.
 782997\C,0,-0.857614,3.575783,-0.932935\C,0,-1.815921,2.598335,-0.6431
 98\C,0,-1.389931,1.330673,-0.20181\C,0,-0.0156,1.097154,-0.071931\C,0,
 0.958671,2.062064,-0.348451\O,0,4.153796,0.141691,-1.027359\C,0,2.7585
 98,0.513787,-1.059358\C,0,2.432863,1.7453,-0.21486\C,0,2.851167,1.4574
 13,1.236305\C,0,6.127684,-0.213823,0.183027\C,0,4.824769,0.289534,0.16
 2135\C,0,4.258945,0.91407,1.284787\C,0,5.054647,1.014138,2.430811\C,0,
 6.35305,0.513253,2.482784\C,0,6.889762,-0.104378,1.345617\O,0,-5.24472
 3,-0.751228,2.155949\C,0,-6.319202,0.154785,1.836565\O,0,-3.576818,1.5
 14767,1.676846\C,0,-3.221112,1.457797,3.065738\O,0,-3.149348,2.811268,
 -0.858016\C,0,-3.739735,3.925776,-0.172125\O,0,-1.183121,4.83699,-1.40
 0185\C,0,-1.662128,4.841222,-2.760311\H,0,2.701863,-2.215023,-2.957983
 \H,0,0.357588,-2.585574,-3.671906\H,0,1.67155,-3.584502,0.99316\H,0,-2
 .047277,-2.663167,-2.873098\H,0,-1.914087,-4.410298,-2.739778\H,0,-3.6
 62286,-3.912479,-1.253254\H,0,-2.685836,-4.56587,0.946116\H,0,-1.99456
 8,-5.471514,-0.421833\H,0,-1.33201,-1.084015,-1.28548\H,0,4.007292,-1.
 934487,-0.992265\H,0,-5.443042,-2.710321,1.535464\H,0,0.860579,5.07370
 7,-1.344184\H,0,8.56651,-0.473507,2.188474\H,0,0.297369,0.11842,0.2786
 71\H,0,2.170641,-0.336691,-0.707536\H,0,2.533567,0.679465,-2.114786\H,
 0,3.017572,2.589793,-0.590879\H,0,2.148769,0.73273,1.670359\H,0,2.7748
 08,2.368246,1.840475\H,0,6.541302,-0.68654,-0.70186\H,0,4.639529,1.502
 213,3.309474\H,0,6.947418,0.604263,3.388542\H,0,-7.092474,-0.016013,2.
 588297\H,0,-5.977583,1.191807,1.880606\H,0,-6.718657,-0.061393,0.83898
 4\H,0,-3.398397,2.45802,3.467229\H,0,-3.835767,0.730898,3.606473\H,0,-
 2.161068,1.200549,3.180578\H,0,-4.813447,3.727369,-0.145294\H,0,-3.360
 559,3.993027,0.850837\H,0,-3.553592,4.866573,-0.69821\H,0,-1.829827,5.
 887875,-3.02221\H,0,-0.913826,4.405869,-3.432673\H,0,-2.598396,4.28200
 9,-2.843937\\Version=ES64L-G16RevC.02\State=1-A\HF=-2068.4212883\RMSD=
 3.464e-09\Dipole=-2.7339457,2.1050438,0.2083034\Quadrupole=2.7774888,-
 10.0538845,7.2763956,2.768366,6.7633414,1.5560479\PG=C01 [X(C34H34O10)
 ]\\@
 The archive entry for this job was punched.


 BE LIKE A POSTAGE STAMP.  STICK TO ONE THING UNTIL
 YOU GET THERE -- JOSH BILLINGS
 Job cpu time:       0 days 11 hours 10 minutes 21.9 seconds.
 Elapsed time:       0 days  0 hours 14 minutes 18.4 seconds.
 File lengths (MBytes):  RWF=   1576 Int=      0 D2E=      0 Chk=    151 Scr=      1
 Normal termination of Gaussian 16 at Thu Sep 25 18:10:23 2025.
