 Entering Gaussian System, Link 0=/home/tupf/tupf_yangsy/lustre1/g16/Gaussian16_AVX2/g16/g16
 Input=58RR_10.gjf
 Output=58RR_10.log
 Initial command:
 /home/tupf/tupf_yangsy/lustre1/g16/Gaussian16_AVX2/g16/l1.exe "/home/tupf/tupf_yangsy/lustre1/g16/tmp/Gau-2035034.inp" -scrdir="/home/tupf/tupf_yangsy/lustre1/g16/tmp/"
 Entering Link 1 = /home/tupf/tupf_yangsy/lustre1/g16/Gaussian16_AVX2/g16/l1.exe PID=   2035035.
  
 Copyright (c) 1988-2021, Gaussian, Inc.  All Rights Reserved.
  
 This is part of the Gaussian(R) 16 program.  It is based on
 the Gaussian(R) 09 system (copyright 2009, Gaussian, Inc.),
 the Gaussian(R) 03 system (copyright 2003, Gaussian, Inc.),
 the Gaussian(R) 98 system (copyright 1998, Gaussian, Inc.),
 the Gaussian(R) 94 system (copyright 1995, Gaussian, Inc.),
 the Gaussian 92(TM) system (copyright 1992, Gaussian, Inc.),
 the Gaussian 90(TM) system (copyright 1990, Gaussian, Inc.),
 the Gaussian 88(TM) system (copyright 1988, Gaussian, Inc.),
 the Gaussian 86(TM) system (copyright 1986, Carnegie Mellon
 University), and the Gaussian 82(TM) system (copyright 1983,
 Carnegie Mellon University). Gaussian is a federally registered
 trademark of Gaussian, Inc.
  
 This software contains proprietary and confidential information,
 including trade secrets, belonging to Gaussian, Inc.
  
 This software is provided under written license and may be
 used, copied, transmitted, or stored only in accord with that
 written license.
  
 The following legend is applicable only to US Government
 contracts under FAR:
  
                    RESTRICTED RIGHTS LEGEND
  
 Use, reproduction and disclosure by the US Government is
 subject to restrictions as set forth in subparagraphs (a)
 and (c) of the Commercial Computer Software - Restricted
 Rights clause in FAR 52.227-19.
  
 Gaussian, Inc.
 340 Quinnipiac St., Bldg. 40, Wallingford CT 06492
  
  
 ---------------------------------------------------------------
 Warning -- This program may not be used in any manner that
 competes with the business of Gaussian, Inc. or will provide
 assistance to any competitor of Gaussian, Inc.  The licensee
 of this program is prohibited from giving any competitor of
 Gaussian, Inc. access to this program.  By using this program,
 the user acknowledges that Gaussian, Inc. is engaged in the
 business of creating and licensing software in the field of
 computational chemistry and represents and warrants to the
 licensee that it is not a competitor of Gaussian, Inc. and that
 it will not use this program in any manner prohibited above.
 ---------------------------------------------------------------
  

 Cite this work as:
 Gaussian 16, Revision C.02,
 M. J. Frisch, G. W. Trucks, H. B. Schlegel, G. E. Scuseria, 
 M. A. Robb, J. R. Cheeseman, G. Scalmani, V. Barone, 
 G. A. Petersson, H. Nakatsuji, X. Li, M. Caricato, A. V. Marenich, 
 J. Bloino, B. G. Janesko, R. Gomperts, B. Mennucci, H. P. Hratchian, 
 J. V. Ortiz, A. F. Izmaylov, J. L. Sonnenberg, D. Williams-Young, 
 F. Ding, F. Lipparini, F. Egidi, J. Goings, B. Peng, A. Petrone, 
 T. Henderson, D. Ranasinghe, V. G. Zakrzewski, J. Gao, N. Rega, 
 G. Zheng, W. Liang, M. Hada, M. Ehara, K. Toyota, R. Fukuda, 
 J. Hasegawa, M. Ishida, T. Nakajima, Y. Honda, O. Kitao, H. Nakai, 
 T. Vreven, K. Throssell, J. A. Montgomery, Jr., J. E. Peralta, 
 F. Ogliaro, M. J. Bearpark, J. J. Heyd, E. N. Brothers, K. N. Kudin, 
 V. N. Staroverov, T. A. Keith, R. Kobayashi, J. Normand, 
 K. Raghavachari, A. P. Rendell, J. C. Burant, S. S. Iyengar, 
 J. Tomasi, M. Cossi, J. M. Millam, M. Klene, C. Adamo, R. Cammi, 
 J. W. Ochterski, R. L. Martin, K. Morokuma, O. Farkas, 
 J. B. Foresman, and D. J. Fox, Gaussian, Inc., Wallingford CT, 2019.
 
 ******************************************
 Gaussian 16:  ES64L-G16RevC.02  7-Dec-2021
                25-Sep-2025 
 ******************************************
 %mem=400GB
 %nprocshared=64
 Will use up to   64 processors via shared memory.
 ---------------------------------------------------------------------
 # mPW1PW91/6-311+g(2d,p) NMR scrf(SMD,solvent=dmso) geom=connectivity
 ---------------------------------------------------------------------
 1/38=1,57=2,172=1/1;
 2/12=2,17=6,18=5,40=1/2;
 3/5=4,6=6,7=112,11=2,25=1,30=1,70=32201,72=21,74=-7/1,2,3,8;
 4//1;
 5/5=2,38=5,53=21/2;
 8/6=1,10=90,11=11/1;
 10/13=100,45=16/2;
 6/7=2,8=2,9=2,10=2,28=1/1;
 99/9=1/99;
 ----
 58RR
 ----
 Symbolic Z-matrix:
 Charge =  0 Multiplicity = 1
 C                     8.665     1.39338  -2.30686 
 C                     7.92967   2.58585  -2.301 
 C                     6.69546   2.61456  -1.65539 
 C                     6.16392   1.49677  -1.00451 
 C                     6.92732   0.31527  -1.0203 
 C                     8.16581   0.25942  -1.66762 
 C                     4.81339   1.5396   -0.32496 
 C                     4.27587   0.11631  -0.09481 
 C                     5.40694  -0.73986   0.48212 
 O                     6.50501  -0.84685  -0.43969 
 C                     3.02464   0.07213   0.75483 
 C                     1.82922  -0.40918   0.2138 
 C                     0.62603  -0.47337   0.93045 
 C                     0.63099  -0.02525   2.26348 
 C                     1.8113    0.46162   2.83008 
 C                     2.99853   0.5143    2.08649 
 O                     9.88029   1.2853   -2.92219 
 O                     4.12146   0.99493   2.69414 
 O                    -4.14365  -2.45793  -1.38504 
 O                    -9.78166   3.27147  -0.86099 
 C                    -3.0087   -1.94697  -0.82759 
 C                    -1.83961  -2.71854  -0.87788 
 C                    -0.64139  -2.25165  -0.32636 
 C                    -0.61716  -0.9965    0.31099 
 C                    -1.80679  -0.25554   0.358 
 C                    -3.00841  -0.68785  -0.20812 
 O                    -6.46348   0.43468   0.88178 
 C                    -5.38291  -0.48326   0.64397 
 C                    -4.24223   0.18431  -0.12977 
 C                    -4.77797   0.61977  -1.50491 
 C                    -8.09614   1.84449  -0.03196 
 C                    -6.87348   1.18291  -0.18487 
 C                    -6.11267   1.31647  -1.36061 
 C                    -6.63015   2.13165  -2.37221 
 C                    -7.84863   2.79543  -2.24643 
 C                    -8.58164   2.64946  -1.06147 
 O                     1.9032    0.86395   4.1471 
 C                     1.191     2.07954   4.45245 
 O                    -0.5081   -0.04256   3.03645 
 C                    -0.76193  -1.31375   3.64919 
 O                     0.48785  -3.03027  -0.3338 
 C                     1.01382  -3.35081  -1.63091 
 O                    -1.9568   -3.94689  -1.50212 
 C                    -1.84328  -5.07323  -0.60783 
 H                     8.31579   3.47102  -2.80058 
 H                     6.11742   3.53596  -1.66094 
 H                     8.73332  -0.66529  -1.66601 
 H                     4.88903   2.05574   0.63907 
 H                     4.10327   2.11089  -0.93394 
 H                     4.02492  -0.31712  -1.07043 
 H                     5.77159  -0.31859   1.42521 
 H                     5.07862  -1.76696   0.65608 
 H                     1.8352   -0.73813  -0.81988 
 H                     10.10465   2.14643  -3.3165 
 H                     3.85432   1.19698   3.61375 
 H                    -3.88554  -3.32429  -1.76015 
 H                    -9.998     3.78934  -1.65621 
 H                    -1.78954   0.71181   0.84809 
 H                    -5.76601  -1.35267   0.0986 
 H                    -5.05591  -0.80317   1.63584 
 H                    -3.97084   1.08565   0.43291 
 H                    -4.87623  -0.26208  -2.14837 
 H                    -4.0561    1.28632  -1.99076 
 H                    -8.66165   1.72606   0.88642 
 H                    -6.05364   2.25431  -3.2864 
 H                    -8.22387   3.42475  -3.04991 
 H                     1.43335   2.3205    5.48975 
 H                     1.52062   2.89484   3.79772 
 H                     0.11412   1.92902   4.34585 
 H                    -1.68759  -1.20322   4.21859 
 H                    -0.88994  -2.09723   2.89325 
 H                     0.05546  -1.58956   4.32611 
 H                     1.99526  -3.79687  -1.4555 
 H                     0.37404  -4.06176  -2.16147 
 H                     1.12849  -2.44512  -2.23763 
 H                    -0.84051  -5.12472  -0.17531 
 H                    -2.58761  -5.00238   0.19346 
 H                    -2.03426  -5.96187  -1.21263 
 
 Stoichiometry    C34H34O10
 Framework group  C1[X(C34H34O10)]
 Deg. of freedom   228
 Full point group                 C1      NOp   1
 Largest Abelian subgroup         C1      NOp   1
 Largest concise Abelian subgroup C1      NOp   1
                         Standard orientation:                         
 ---------------------------------------------------------------------
 Center     Atomic      Atomic             Coordinates (Angstroms)
 Number     Number       Type             X           Y           Z
 ---------------------------------------------------------------------
      1          6           0       -8.665002   -1.393376   -2.306862
      2          6           0       -7.929667   -2.585851   -2.301003
      3          6           0       -6.695458   -2.614555   -1.655392
      4          6           0       -6.163924   -1.496765   -1.004512
      5          6           0       -6.927320   -0.315266   -1.020298
      6          6           0       -8.165805   -0.259422   -1.667618
      7          6           0       -4.813390   -1.539600   -0.324956
      8          6           0       -4.275869   -0.116312   -0.094812
      9          6           0       -5.406939    0.739858    0.482115
     10          8           0       -6.505007    0.846845   -0.439685
     11          6           0       -3.024640   -0.072126    0.754829
     12          6           0       -1.829222    0.409179    0.213803
     13          6           0       -0.626025    0.473373    0.930447
     14          6           0       -0.630986    0.025253    2.263479
     15          6           0       -1.811298   -0.461616    2.830079
     16          6           0       -2.998532   -0.514302    2.086489
     17          8           0       -9.880286   -1.285301   -2.922188
     18          8           0       -4.121462   -0.994926    2.694135
     19          8           0        4.143655    2.457927   -1.385039
     20          8           0        9.781656   -3.271468   -0.860989
     21          6           0        3.008701    1.946973   -0.827594
     22          6           0        1.839607    2.718541   -0.877876
     23          6           0        0.641391    2.251655   -0.326357
     24          6           0        0.617158    0.996500    0.310986
     25          6           0        1.806793    0.255543    0.358002
     26          6           0        3.008405    0.687850   -0.208120
     27          8           0        6.463479   -0.434682    0.881778
     28          6           0        5.382914    0.483261    0.643966
     29          6           0        4.242227   -0.184306   -0.129768
     30          6           0        4.777972   -0.619773   -1.504912
     31          6           0        8.096143   -1.844493   -0.031958
     32          6           0        6.873480   -1.182912   -0.184873
     33          6           0        6.112670   -1.316468   -1.360607
     34          6           0        6.630146   -2.131653   -2.372210
     35          6           0        7.848631   -2.795426   -2.246431
     36          6           0        8.581643   -2.649456   -1.061467
     37          8           0       -1.903202   -0.863948    4.147102
     38          6           0       -1.190997   -2.079545    4.452446
     39          8           0        0.508097    0.042559    3.036450
     40          6           0        0.761928    1.313748    3.649192
     41          8           0       -0.487846    3.030272   -0.333803
     42          6           0       -1.013822    3.350805   -1.630911
     43          8           0        1.956801    3.946885   -1.502117
     44          6           0        1.843278    5.073234   -0.607830
     45          1           0       -8.315794   -3.471018   -2.800579
     46          1           0       -6.117416   -3.535960   -1.660935
     47          1           0       -8.733319    0.665294   -1.666005
     48          1           0       -4.889026   -2.055739    0.639066
     49          1           0       -4.103266   -2.110885   -0.933940
     50          1           0       -4.024923    0.317118   -1.070433
     51          1           0       -5.771587    0.318587    1.425209
     52          1           0       -5.078625    1.766959    0.656077
     53          1           0       -1.835199    0.738126   -0.819880
     54          1           0      -10.104654   -2.146425   -3.316504
     55          1           0       -3.854317   -1.196982    3.613751
     56          1           0        3.885544    3.324286   -1.760150
     57          1           0        9.997997   -3.789341   -1.656207
     58          1           0        1.789542   -0.711813    0.848087
     59          1           0        5.766013    1.352670    0.098599
     60          1           0        5.055909    0.803168    1.635837
     61          1           0        3.970843   -1.085651    0.432907
     62          1           0        4.876229    0.262081   -2.148374
     63          1           0        4.056097   -1.286321   -1.990763
     64          1           0        8.661650   -1.726055    0.886419
     65          1           0        6.053637   -2.254308   -3.286400
     66          1           0        8.223867   -3.424747   -3.049910
     67          1           0       -1.433348   -2.320498    5.489752
     68          1           0       -1.520622   -2.894840    3.797720
     69          1           0       -0.114116   -1.929023    4.345848
     70          1           0        1.687588    1.203220    4.218590
     71          1           0        0.889935    2.097235    2.893250
     72          1           0       -0.055461    1.589557    4.326112
     73          1           0       -1.995256    3.796867   -1.455496
     74          1           0       -0.374036    4.061756   -2.161465
     75          1           0       -1.128486    2.445124   -2.237633
     76          1           0        0.840507    5.124719   -0.175312
     77          1           0        2.587607    5.002381    0.193456
     78          1           0        2.034259    5.961866   -1.212625
 ---------------------------------------------------------------------
 Rotational constants (GHZ):           0.1157510           0.0274566           0.0271494
 Standard basis: 6-311+G(2d,p) (5D, 7F)
 There are  1480 symmetry adapted cartesian basis functions of A   symmetry.
 There are  1392 symmetry adapted basis functions of A   symmetry.
  1392 basis functions,  2120 primitive gaussians,  1480 cartesian basis functions
   159 alpha electrons      159 beta electrons
       nuclear repulsion energy      5134.8817472120 Hartrees.
 NAtoms=   78 NActive=   78 NUniq=   78 SFac= 1.00D+00 NAtFMM=   60 NAOKFM=T Big=T
 Integral buffers will be    131072 words long.
 Raffenetti 2 integral format.
 Two-electron integral symmetry is turned on.
 ------------------------------------------------------------------------------
 Polarizable Continuum Model (PCM)
 =================================
 Model                : PCM.
 Atomic radii         : SMD-Coulomb.
 Polarization charges : Total charges.
 Charge compensation  : None.
 Solution method      : On-the-fly selection.
 Cavity type          : VdW (van der Waals Surface) (Alpha=1.000).
 Cavity algorithm     : GePol (No added spheres)
                        Default sphere list used, NSphG=   78.
                        Lebedev-Laikov grids with approx.  5.0 points / Ang**2.
                        Smoothing algorithm: York/Karplus (Gamma=1.0000).
                        Polarization charges: spherical gaussians, with
                                              point-specific exponents (IZeta= 3).
                        Self-potential: point-specific (ISelfS= 7).
                        Self-field    : sphere-specific E.n sum rule (ISelfD= 2).
 Solvent              : DiMethylSulfoxide, Eps=  46.826000 Eps(inf)=   2.185371
 ------------------------------------------------------------------------------
 ------------------------------------------------------------------------------
 Atomic radii for non-electrostatic terms: SMD-CDS.
 ------------------------------------------------------------------------------
 Nuclear repulsion after PCM non-electrostatic terms =     5134.8772489809 Hartrees.
 One-electron integrals computed using PRISM.
 NBasis=  1392 RedAO= T EigKep=  1.03D-06  NBF=  1392
 NBsUse=  1380 1.00D-06 EigRej=  7.62D-07 NBFU=  1380
 ExpMin= 4.38D-02 ExpMax= 8.59D+03 ExpMxC= 1.30D+03 IAcc=3 IRadAn=         5 AccDes= 0.00D+00
 Harris functional with IExCor=  908 and IRadAn=       5 diagonalized for initial guess.
 HarFok:  IExCor=  908 AccDes= 0.00D+00 IRadAn=         5 IDoV= 1 UseB2=F ITyADJ=14
 ICtDFT=  3500011 ScaDFX=  1.000000  1.000000  1.000000  1.000000
 FoFCou: FMM=F IPFlag=           0 FMFlag=      100000 FMFlg1=        2001
         NFxFlg=           0 DoJE=T BraDBF=F KetDBF=T FulRan=T
         wScrn=  0.000000 ICntrl=       500 IOpCl=  0 I1Cent=   200000004 NGrid=           0
         NMat0=    1 NMatS0=      1 NMatT0=    0 NMatD0=    1 NMtDS0=    0 NMtDT0=    0
 Petite list used in FoFCou.
 Requested convergence on RMS density matrix=1.00D-08 within 128 cycles.
 Requested convergence on MAX density matrix=1.00D-06.
 Requested convergence on             energy=1.00D-06.
 No special actions if energy rises.
 Inv3:  Mode=1 IEnd=    94584675.
 Iteration    1 A*A^-1 deviation from unit magnitude is 3.77D-15 for   1909.
 Iteration    1 A*A^-1 deviation from orthogonality  is 2.36D-15 for   1977    882.
 Iteration    1 A^-1*A deviation from unit magnitude is 3.55D-15 for   1909.
 Iteration    1 A^-1*A deviation from orthogonality  is 7.34D-15 for   2046   1977.
 Error on total polarization charges =  0.05122
 SCF Done:  E(RmPW1PW91) =  -2068.42328479     A.U. after   14 cycles
            NFock= 14  Conv=0.31D-08     -V/T= 2.0043
 SMD-CDS (non-electrostatic) energy       (kcal/mol) =      -2.82
 (included in total energy above)
 DoSCS=F DFT=T ScalE2(SS,OS)=  1.000000  1.000000
 Range of M.O.s used for correlation:     1  1380
 NBasis=  1392 NAE=   159 NBE=   159 NFC=     0 NFV=     0
 NROrb=   1380 NOA=   159 NOB=   159 NVA=  1221 NVB=  1221

 **** Warning!!: The largest alpha MO coefficient is  0.14213154D+03

 NEqPCM:  Using equilibrium solvation (IEInf=0, Eps=  46.8260, EpsInf=   2.1854)
          Differentiating once with respect to magnetic field using GIAOs.
          Electric field/nuclear overlap derivatives assumed to be zero.
 FoFJK:  IHMeth= 1 ICntrl=    6127 DoSepK=F KAlg= 0 I1Cent=           0 FoldK=F
 IRaf=         1 NMat=       1 IRICut=       1 DoRegI=T DoRafI=F ISym2E= 0 IDoP0=0 IntGTp=1.
          There are     3 degrees of freedom in the 1st order CPHF.  IDoFFX=0 NUNeed=     3.
      3 vectors produced by pass  0 Test12= 6.47D-12 3.33D-08 XBig12= 3.12D+03 6.23D+00.
 AX will form     3 AO Fock derivatives at one time.
      3 vectors produced by pass  1 Test12= 6.47D-12 3.33D-08 XBig12= 9.18D+00 4.22D-01.
      3 vectors produced by pass  2 Test12= 6.47D-12 3.33D-08 XBig12= 4.82D-02 4.23D-02.
      3 vectors produced by pass  3 Test12= 6.47D-12 3.33D-08 XBig12= 2.08D-04 2.06D-03.
      3 vectors produced by pass  4 Test12= 6.47D-12 3.33D-08 XBig12= 6.67D-07 9.56D-05.
      3 vectors produced by pass  5 Test12= 6.47D-12 3.33D-08 XBig12= 2.38D-09 5.86D-06.
      3 vectors produced by pass  6 Test12= 6.47D-12 3.33D-08 XBig12= 1.11D-11 2.89D-07.
 InvSVY:  IOpt=1 It=  1 EMax= 1.42D-14
 Solved reduced A of dimension    21 with     3 vectors.
 Calculating GIAO nuclear magnetic shielding tensors.
 SCF GIAO Magnetic shielding tensor (ppm):
      1  C    Isotropic =    24.0953   Anisotropy =   139.4496
   XX=   -24.4506   YX=    13.4960   ZX=   -71.3169
   XY=    17.2271   YY=    24.4716   ZY=   -20.6854
   XZ=   -70.7562   YZ=   -21.5404   ZZ=    72.2649
   Eigenvalues:   -62.1929    17.4171   117.0616
      2  C    Isotropic =    77.2556   Anisotropy =   125.3265
   XX=    81.2099   YX=   -13.5347   ZX=   -47.1375
   XY=    -9.7028   YY=    31.6820   ZY=   -47.8842
   XZ=   -45.8486   YZ=   -52.4695   ZZ=   118.8751
   Eigenvalues:    -3.1349    74.0952   160.8067
      3  C    Isotropic =    50.7628   Anisotropy =   169.4002
   XX=    39.6181   YX=    55.8157   ZX=   -48.5814
   XY=    61.6680   YY=   -12.8720   ZY=   -26.6529
   XZ=   -49.5555   YZ=   -32.5103   ZZ=   125.5423
   Eigenvalues:   -50.9886    39.5807   163.6963
      4  C    Isotropic =    66.7584   Anisotropy =   159.5633
   XX=    25.1880   YX=    20.7913   ZX=   -70.1302
   XY=    15.6203   YY=    42.7749   ZY=   -36.3306
   XZ=   -66.1782   YZ=   -16.3942   ZZ=   132.3125
   Eigenvalues:    -8.4505    35.5918   173.1340
      5  C    Isotropic =    24.0695   Anisotropy =   139.8114
   XX=    26.9550   YX=    -6.1429   ZX=   -50.2835
   XY=   -10.0016   YY=   -25.5011   ZY=   -54.5412
   XZ=   -55.1140   YZ=   -49.5563   ZZ=    70.7546
   Eigenvalues:   -59.3878    14.3192   117.2771
      6  C    Isotropic =    81.4456   Anisotropy =   114.0924
   XX=    72.2533   YX=    36.5880   ZX=   -34.2845
   XY=    34.7444   YY=    38.5873   ZY=   -20.6055
   XZ=   -31.2591   YZ=   -20.8791   ZZ=   133.4963
   Eigenvalues:    15.9813    70.8483   157.5072
      7  C    Isotropic =   155.7739   Anisotropy =    21.3368
   XX=   162.0770   YX=     8.6108   ZX=     4.6562
   XY=     5.3390   YY=   154.3003   ZY=     4.0935
   XZ=     8.8528   YZ=     6.5549   ZZ=   150.9444
   Eigenvalues:   146.7962   150.5271   169.9984
      8  C    Isotropic =   143.1260   Anisotropy =    32.0354
   XX=   145.8234   YX=     1.3313   ZX=     5.0404
   XY=    -5.1786   YY=   126.6288   ZY=    -6.9234
   XZ=    16.3648   YZ=    -5.4867   ZZ=   156.9258
   Eigenvalues:   125.4053   139.4898   164.4829
      9  C    Isotropic =   116.5554   Anisotropy =    62.0595
   XX=   136.0423   YX=    -5.2958   ZX=    32.1216
   XY=    -4.8579   YY=    92.2547   ZY=     3.0969
   XZ=    23.9347   YZ=    -3.1946   ZZ=   121.3693
   Eigenvalues:    90.9415   100.7963   157.9284
     10  O    Isotropic =   208.4159   Anisotropy =    99.6543
   XX=   163.8334   YX=    26.7003   ZX=   -68.6707
   XY=    27.6381   YY=   233.0782   ZY=    14.4623
   XZ=   -43.0547   YZ=   -37.9744   ZZ=   228.3361
   Eigenvalues:   128.4751   221.9205   274.8521
     11  C    Isotropic =    59.2941   Anisotropy =   155.4145
   XX=    10.9926   YX=   -24.9669   ZX=   -33.9487
   XY=   -33.7645   YY=   144.8201   ZY=    33.0903
   XZ=   -13.1750   YZ=    40.3108   ZZ=    22.0696
   Eigenvalues:    -7.6734    22.6519   162.9038
     12  C    Isotropic =    52.0732   Anisotropy =   144.9976
   XX=    55.3456   YX=   -20.1423   ZX=    -8.3062
   XY=   -26.0936   YY=   127.2563   ZY=    49.6285
   XZ=    -9.1142   YZ=    50.8833   ZZ=   -26.3821
   Eigenvalues:   -41.3933    48.8747   148.7383
     13  C    Isotropic =    57.3940   Anisotropy =   145.8249
   XX=     3.0615   YX=   -46.1069   ZX=    17.1867
   XY=   -41.9182   YY=   129.6427   ZY=    42.4362
   XZ=    -1.5325   YZ=    36.8914   ZZ=    39.4778
   Eigenvalues:   -18.2279    35.7993   154.6106
     14  C    Isotropic =    30.5969   Anisotropy =   116.9690
   XX=    -7.7976   YX=   -26.7544   ZX=   -19.5505
   XY=   -24.8355   YY=    93.2641   ZY=    29.0247
   XZ=   -37.9549   YZ=    18.6576   ZZ=     6.3242
   Eigenvalues:   -30.6447    13.8592   108.5763
     15  C    Isotropic =    40.6056   Anisotropy =   107.6250
   XX=    24.0561   YX=   -18.9160   ZX=   -12.2604
   XY=   -19.9654   YY=    98.8538   ZY=    23.0830
   XZ=    -7.6746   YZ=    36.8959   ZZ=    -1.0930
   Eigenvalues:   -10.0465    19.5078   112.3557
     16  C    Isotropic =    32.0473   Anisotropy =   125.5860
   XX=    -9.8280   YX=   -32.7391   ZX=     8.2088
   XY=   -42.4982   YY=    93.5329   ZY=    37.3105
   XZ=    18.3708   YZ=    37.5315   ZZ=    12.4371
   Eigenvalues:   -36.1609    16.5315   115.7713
     17  O    Isotropic =   212.7994   Anisotropy =    64.6460
   XX=   247.4229   YX=     4.5339   ZX=    13.8457
   XY=     9.8349   YY=   163.3052   ZY=   -14.1953
   XZ=    17.0490   YZ=   -16.8009   ZZ=   227.6701
   Eigenvalues:   158.5063   223.9952   255.8967
     18  O    Isotropic =   227.3398   Anisotropy =   108.2075
   XX=   205.2947   YX=   -28.1249   ZX=     5.4950
   XY=     2.0745   YY=   292.5300   ZY=    17.7340
   XZ=   -41.3908   YZ=    25.2906   ZZ=   184.1946
   Eigenvalues:   172.5560   209.9852   299.4781
     19  O    Isotropic =   228.9491   Anisotropy =   109.7632
   XX=   208.2319   YX=    -1.0125   ZX=    25.3930
   XY=    45.8941   YY=   198.5083   ZY=    41.2780
   XZ=     1.1530   YZ=    41.3477   ZZ=   280.1070
   Eigenvalues:   173.4665   211.2562   302.1246
     20  O    Isotropic =   212.7514   Anisotropy =    64.8181
   XX=   246.6693   YX=   -14.8516   ZX=    -2.7408
   XY=   -18.9189   YY=   222.7827   ZY=   -25.0147
   XZ=    -7.3504   YZ=   -22.3995   ZZ=   168.8022
   Eigenvalues:   158.5352   223.7556   255.9635
     21  C    Isotropic =    32.2765   Anisotropy =   126.1351
   XX=   -13.5797   YX=    -5.7659   ZX=    38.8151
   XY=   -14.8172   YY=    21.2380   ZY=    49.9828
   XZ=    35.1494   YZ=    35.1781   ZZ=    89.1712
   Eigenvalues:   -36.4923    16.9553   116.3666
     22  C    Isotropic =    40.9131   Anisotropy =   104.9568
   XX=    27.4757   YX=    14.4194   ZX=    16.1846
   XY=     9.4372   YY=     8.3594   ZY=    41.3263
   XZ=    24.8880   YZ=    40.1584   ZZ=    86.9043
   Eigenvalues:    -9.2294    21.0844   110.8844
     23  C    Isotropic =    30.9981   Anisotropy =   119.7917
   XX=    -5.7157   YX=    21.8441   ZX=    20.2545
   XY=    41.4780   YY=    14.0604   ZY=    35.2115
   XZ=    25.2273   YZ=    40.0812   ZZ=    84.6494
   Eigenvalues:   -29.1833    11.3183   110.8592
     24  C    Isotropic =    59.4568   Anisotropy =   140.3317
   XX=     5.2807   YX=   -10.0912   ZX=    46.8536
   XY=     1.3090   YY=    54.4947   ZY=    49.1054
   XZ=    31.1569   YZ=    50.6373   ZZ=   118.5949
   Eigenvalues:   -13.6265    38.9855   153.0112
     25  C    Isotropic =    51.9959   Anisotropy =   146.1823
   XX=    53.4698   YX=    11.6209   ZX=    20.3236
   XY=     7.7411   YY=    -5.7758   ZY=    73.5847
   XZ=    22.6471   YZ=    71.8357   ZZ=   108.2938
   Eigenvalues:   -41.1570    47.6940   149.4508
     26  C    Isotropic =    60.2980   Anisotropy =   154.7015
   XX=    14.5950   YX=    36.8900   ZX=    20.8149
   XY=    19.9741   YY=    34.4124   ZY=    57.5738
   XZ=    32.4752   YZ=    47.2971   ZZ=   131.8866
   Eigenvalues:    -6.5065    23.9682   163.4324
     27  O    Isotropic =   208.1594   Anisotropy =    99.4674
   XX=   166.3618   YX=    65.2304   ZX=   -36.8944
   XY=    40.7690   YY=   222.2109   ZY=   -36.1220
   XZ=   -32.8718   YZ=    16.7469   ZZ=   235.9055
   Eigenvalues:   128.3250   221.6822   274.4710
     28  C    Isotropic =   116.3298   Anisotropy =    62.3896
   XX=   135.1816   YX=   -31.4647   ZX=     9.7654
   XY=   -23.5914   YY=   121.1996   ZY=    -6.6146
   XZ=     8.0197   YZ=    -0.8604   ZZ=    92.6081
   Eigenvalues:    90.6076   100.4588   157.9228
     29  C    Isotropic =   143.2065   Anisotropy =    32.0530
   XX=   145.3193   YX=    -5.2269   ZX=    -1.0360
   XY=   -15.6913   YY=   154.9842   ZY=    -9.0641
   XZ=     7.4203   YZ=   -10.7741   ZZ=   129.3159
   Eigenvalues:   125.9214   139.1228   164.5752
     30  C    Isotropic =   155.9078   Anisotropy =    21.1521
   XX=   161.8199   YX=    -5.9515   ZX=    -7.5754
   XY=    -9.8540   YY=   153.1283   ZY=     6.9327
   XZ=    -3.6136   YZ=     4.5520   ZZ=   152.7754
   Eigenvalues:   146.8986   150.8157   170.0092
     31  C    Isotropic =    81.5071   Anisotropy =   114.0947
   XX=    74.1291   YX=    30.1042   ZX=   -41.6544
   XY=    27.5557   YY=   124.5235   ZY=   -32.0654
   XZ=   -39.5489   YZ=   -32.0214   ZZ=    45.8688
   Eigenvalues:    16.0036    70.9476   157.5702
     32  C    Isotropic =    24.2420   Anisotropy =   140.0081
   XX=    29.5101   YX=    51.6114   ZX=    -2.1559
   XY=    56.9219   YY=    52.4417   ZY=   -60.1667
   XZ=     1.0959   YZ=   -65.9845   ZZ=    -9.2259
   Eigenvalues:   -59.3210    14.4662   117.5807
     33  C    Isotropic =    66.8019   Anisotropy =   159.2031
   XX=    28.5362   YX=    68.8194   ZX=   -31.2405
   XY=    65.4436   YY=   120.1172   ZY=   -26.4669
   XZ=   -25.7522   YZ=   -46.9852   ZZ=    51.7521
   Eigenvalues:    -8.3016    35.7699   172.9373
     34  C    Isotropic =    50.5631   Anisotropy =   168.8621
   XX=    42.1003   YX=    41.9907   ZX=   -63.1898
   XY=    41.7765   YY=   111.8465   ZY=   -49.4488
   XZ=   -68.7788   YZ=   -42.9072   ZZ=    -2.2575
   Eigenvalues:   -50.9395    39.4910   163.1378
     35  C    Isotropic =    77.1198   Anisotropy =   125.0682
   XX=    83.4428   YX=    49.2423   ZX=     5.2362
   XY=    47.2175   YY=   100.3783   ZY=   -62.9655
   XZ=     1.8535   YZ=   -57.6845   ZZ=    47.5383
   Eigenvalues:    -3.1931    74.0539   160.4986
     36  C    Isotropic =    24.1413   Anisotropy =   139.5902
   XX=   -20.9423   YX=    70.8222   ZX=   -24.4508
   XY=    69.7490   YY=    62.2886   ZY=   -26.4735
   XZ=   -27.9920   YZ=   -25.6901   ZZ=    31.0776
   Eigenvalues:   -62.1465    17.3690   117.2014
     37  O    Isotropic =   282.1974   Anisotropy =    99.6063
   XX=   229.4190   YX=    -4.6404   ZX=   -31.2560
   XY=   -34.9188   YY=   319.4295   ZY=    23.5160
   XZ=   -33.4155   YZ=    31.7679   ZZ=   297.7438
   Eigenvalues:   215.8214   282.1693   348.6016
     38  C    Isotropic =   124.6035   Anisotropy =    94.0263
   XX=   109.8222   YX=   -38.7443   ZX=    12.5765
   XY=   -35.4157   YY=   160.1878   ZY=   -23.2603
   XZ=     8.9152   YZ=   -21.8329   ZZ=   103.8005
   Eigenvalues:    90.0188    96.5040   187.2877
     39  O    Isotropic =   277.3451   Anisotropy =    91.6235
   XX=   269.0445   YX=   -44.1324   ZX=    11.6855
   XY=   -22.7935   YY=   318.0308   ZY=    29.6982
   XZ=    27.4254   YZ=    27.8677   ZZ=   244.9599
   Eigenvalues:   216.4911   277.1168   338.4274
     40  C    Isotropic =   125.8860   Anisotropy =    89.0629
   XX=   103.0173   YX=    15.8552   ZX=    11.3698
   XY=    21.2161   YY=   158.3683   ZY=    38.1128
   XZ=    11.6484   YZ=    34.9436   ZZ=   116.2724
   Eigenvalues:    94.9656    97.4311   185.2613
     41  O    Isotropic =   258.7699   Anisotropy =   113.9566
   XX=   261.5446   YX=   -17.7278   ZX=     8.1836
   XY=   -22.2255   YY=   245.8921   ZY=    76.7112
   XZ=   -30.7089   YZ=    63.4102   ZZ=   268.8730
   Eigenvalues:   185.5208   256.0480   334.7409
     42  C    Isotropic =   126.5808   Anisotropy =    89.3539
   XX=   113.4182   YX=    -8.6483   ZX=    33.9839
   XY=   -13.7208   YY=   103.1266   ZY=   -17.9864
   XZ=    36.3539   YZ=   -15.1741   ZZ=   163.1977
   Eigenvalues:    94.0477    99.5447   186.1501
     43  O    Isotropic =   280.6193   Anisotropy =    96.1372
   XX=   232.0181   YX=    36.1690   ZX=    28.4860
   XY=    14.5578   YY=   268.3193   ZY=     4.0053
   XZ=     8.6323   YZ=    -6.2106   ZZ=   341.5206
   Eigenvalues:   216.6465   280.5007   344.7108
     44  C    Isotropic =   126.5441   Anisotropy =    91.6625
   XX=    90.9127   YX=    -6.9508   ZX=     0.1144
   XY=    -0.8502   YY=   160.2744   ZY=    38.8847
   XZ=     0.0944   YZ=    41.4147   ZZ=   128.4450
   Eigenvalues:    90.3307   101.6491   187.6524
     45  H    Isotropic =    24.9860   Anisotropy =     4.5299
   XX=    26.6613   YX=    -1.5242   ZX=     2.1862
   XY=    -0.7212   YY=    25.5575   ZY=     0.8782
   XZ=     2.4923   YZ=     0.3385   ZZ=    22.7391
   Eigenvalues:    21.3895    25.5625    28.0059
     46  H    Isotropic =    24.2515   Anisotropy =     8.2155
   XX=    25.4691   YX=     2.2879   ZX=     3.3179
   XY=     1.9811   YY=    24.1793   ZY=     2.1162
   XZ=     3.4233   YZ=     2.9240   ZZ=    23.1060
   Eigenvalues:    20.4315    22.5944    29.7285
     47  H    Isotropic =    24.9165   Anisotropy =     6.7699
   XX=    27.1564   YX=     0.9902   ZX=     3.3256
   XY=     0.8913   YY=    24.3643   ZY=     1.4200
   XZ=     3.0469   YZ=     1.6402   ZZ=    23.2288
   Eigenvalues:    21.1813    24.1385    29.4298
     48  H    Isotropic =    27.9863   Anisotropy =     8.1500
   XX=    25.1919   YX=     1.3608   ZX=     2.9702
   XY=     3.5670   YY=    27.7371   ZY=    -2.1090
   XZ=     5.6299   YZ=    -2.1443   ZZ=    31.0300
   Eigenvalues:    21.3313    29.2080    33.4197
     49  H    Isotropic =    28.8642   Anisotropy =     6.5657
   XX=    30.7140   YX=    -1.8297   ZX=    -0.5261
   XY=     0.8150   YY=    29.2517   ZY=     4.9352
   XZ=    -0.5732   YZ=     4.8942   ZZ=    26.6268
   Eigenvalues:    22.8502    30.5009    33.2413
     50  H    Isotropic =    28.3795   Anisotropy =     8.2055
   XX=    30.9459   YX=     3.0334   ZX=    -0.3393
   XY=     3.4859   YY=    25.8772   ZY=    -2.5873
   XZ=    -2.3173   YZ=    -3.6510   ZZ=    28.3156
   Eigenvalues:    23.1743    28.1145    33.8499
     51  H    Isotropic =    26.8350   Anisotropy =     8.2978
   XX=    27.8851   YX=    -2.9533   ZX=     2.5302
   XY=    -3.4264   YY=    21.5178   ZY=    -1.1693
   XZ=     0.9368   YZ=    -0.8792   ZZ=    31.1020
   Eigenvalues:    20.1871    27.9509    32.3668
     52  H    Isotropic =    27.3447   Anisotropy =     4.0079
   XX=    28.7859   YX=     0.7888   ZX=     2.7426
   XY=    -2.3043   YY=    29.3865   ZY=     0.6838
   XZ=     2.4461   YZ=     1.8403   ZZ=    23.8618
   Eigenvalues:    22.4406    29.5769    30.0167
     53  H    Isotropic =    24.1412   Anisotropy =    12.3210
   XX=    30.2345   YX=     3.6088   ZX=     0.1120
   XY=     5.5363   YY=    22.4558   ZY=    -1.0169
   XZ=     1.7949   YZ=    -1.7008   ZZ=    19.7332
   Eigenvalues:    18.3724    21.6960    32.3552
     54  H    Isotropic =    27.0317   Anisotropy =    13.6356
   XX=    26.8612   YX=     3.6124   ZX=     5.3378
   XY=     1.5266   YY=    31.0687   ZY=     4.6903
   XZ=     4.6917   YZ=     5.8616   ZZ=    23.1651
   Eigenvalues:    18.8468    26.1261    36.1221
     55  H    Isotropic =    25.4026   Anisotropy =    16.1294
   XX=    27.8290   YX=     1.8554   ZX=     3.9815
   XY=     0.5377   YY=    15.7380   ZY=    -5.1540
   XZ=     5.5216   YZ=    -4.2768   ZZ=    32.6409
   Eigenvalues:    14.0791    25.9732    36.1556
     56  H    Isotropic =    25.2946   Anisotropy =    16.1377
   XX=    26.9213   YX=    -4.4635   ZX=    -1.6590
   XY=    -6.6657   YY=    30.6477   ZY=    -6.4716
   XZ=    -1.6636   YZ=    -7.4064   ZZ=    18.3148
   Eigenvalues:    13.9929    25.8378    36.0531
     57  H    Isotropic =    27.0448   Anisotropy =    13.6299
   XX=    26.6202   YX=    -5.8520   ZX=    -2.6644
   XY=    -4.9688   YY=    25.1092   ZY=     6.7919
   XZ=    -0.7314   YZ=     5.5634   ZZ=    29.4050
   Eigenvalues:    18.8761    26.1268    36.1314
     58  H    Isotropic =    24.0517   Anisotropy =    12.5546
   XX=    30.2945   YX=    -1.0154   ZX=    -3.6936
   XY=    -3.1770   YY=    19.9565   ZY=    -0.0032
   XZ=    -4.9672   YZ=    -0.1210   ZZ=    21.9041
   Eigenvalues:    18.9791    20.7547    32.4214
     59  H    Isotropic =    26.8116   Anisotropy =     8.3586
   XX=    27.8676   YX=    -2.1130   ZX=     3.1977
   XY=    -0.5801   YY=    30.6841   ZY=    -2.2131
   XZ=     3.3717   YZ=    -2.3191   ZZ=    21.8831
   Eigenvalues:    20.1979    27.8529    32.3840
     60  H    Isotropic =    27.3202   Anisotropy =     4.2261
   XX=    28.7230   YX=    -3.0749   ZX=    -0.4043
   XY=    -2.5572   YY=    24.4166   ZY=     2.5542
   XZ=     2.6187   YZ=     1.3988   ZZ=    28.8210
   Eigenvalues:    22.2461    29.5769    30.1376
     61  H    Isotropic =    28.4461   Anisotropy =     7.6533
   XX=    30.9410   YX=    -0.2270   ZX=    -2.9729
   XY=     1.4924   YY=    27.7200   ZY=    -3.6431
   XZ=    -3.6305   YZ=    -2.5683   ZZ=    26.6771
   Eigenvalues:    23.3724    28.4176    33.5482
     62  H    Isotropic =    27.9610   Anisotropy =     8.0927
   XX=    24.9447   YX=    -2.9683   ZX=    -1.0173
   XY=    -5.9780   YY=    30.5812   ZY=    -2.4392
   XZ=    -2.8399   YZ=    -2.2993   ZZ=    28.3571
   Eigenvalues:    21.3174    29.2095    33.3561
     63  H    Isotropic =    28.8989   Anisotropy =     6.7428
   XX=    30.7802   YX=     0.7031   ZX=     1.8919
   XY=     0.3652   YY=    28.0820   ZY=     5.1339
   XZ=    -0.6886   YZ=     5.2421   ZZ=    27.8343
   Eigenvalues:    22.7683    30.5342    33.3940
     64  H    Isotropic =    24.9140   Anisotropy =     6.7923
   XX=    26.9859   YX=    -3.5245   ZX=    -0.4659
   XY=    -3.2763   YY=    23.8552   ZY=     1.7101
   XZ=    -0.3769   YZ=     1.5106   ZZ=    23.9010
   Eigenvalues:    21.1753    24.1246    29.4422
     65  H    Isotropic =    24.2408   Anisotropy =     8.2242
   XX=    25.3195   YX=    -3.6246   ZX=    -1.6973
   XY=    -3.7211   YY=    23.9767   ZY=     3.0688
   XZ=    -1.3894   YZ=     2.2181   ZZ=    23.4263
   Eigenvalues:    20.3757    22.6231    29.7236
     66  H    Isotropic =    24.9922   Anisotropy =     4.5091
   XX=    26.5417   YX=    -2.0284   ZX=     1.8412
   XY=    -2.4103   YY=    23.0941   ZY=     0.6437
   XZ=     1.1185   YZ=     1.2145   ZZ=    25.3410
   Eigenvalues:    21.4243    25.5542    27.9983
     67  H    Isotropic =    27.6309   Anisotropy =     9.9572
   XX=    25.3246   YX=    -1.4964   ZX=     1.7380
   XY=    -0.5334   YY=    27.8159   ZY=    -6.9353
   XZ=    -0.2003   YZ=    -3.5125   ZZ=    29.7523
   Eigenvalues:    23.4238    25.2000    34.2690
     68  H    Isotropic =    28.1225   Anisotropy =     9.0516
   XX=    26.3185   YX=    -2.1776   ZX=     0.6219
   XY=     0.0654   YY=    33.8331   ZY=    -1.1221
   XZ=     1.3202   YZ=    -1.2867   ZZ=    24.2159
   Eigenvalues:    23.7781    26.4325    34.1569
     69  H    Isotropic =    26.9842   Anisotropy =     7.4254
   XX=    29.6931   YX=    -0.0654   ZX=     0.6396
   XY=    -3.5980   YY=    27.4086   ZY=    -5.2746
   XZ=     0.6258   YZ=    -3.4777   ZZ=    23.8508
   Eigenvalues:    20.8765    28.1416    31.9345
     70  H    Isotropic =    28.1074   Anisotropy =     9.3644
   XX=    28.5126   YX=     1.1183   ZX=     2.9083
   XY=     4.6531   YY=    25.6952   ZY=     4.0954
   XZ=     3.6341   YZ=     1.0059   ZZ=    30.1146
   Eigenvalues:    23.8418    26.1301    34.3504
     71  H    Isotropic =    28.6313   Anisotropy =     5.5237
   XX=    24.2035   YX=     2.1398   ZX=    -0.2602
   XY=     3.6659   YY=    30.8910   ZY=     0.2665
   XZ=    -0.9901   YZ=     1.6812   ZZ=    30.7994
   Eigenvalues:    23.0084    30.5718    32.3138
     72  H    Isotropic =    28.2481   Anisotropy =     9.0373
   XX=    25.3694   YX=     1.3380   ZX=    -1.2726
   XY=     0.5591   YY=    29.0716   ZY=     6.2038
   XZ=    -2.3881   YZ=     2.7483   ZZ=    30.3033
   Eigenvalues:    23.3238    27.1475    34.2730
     73  H    Isotropic =    27.7172   Anisotropy =     9.0898
   XX=    30.9510   YX=    -2.4280   ZX=     1.4052
   XY=    -2.1112   YY=    26.7223   ZY=    -2.8760
   XZ=     4.0492   YZ=    -3.6341   ZZ=    25.4783
   Eigenvalues:    22.7195    26.6550    33.7771
     74  H    Isotropic =    26.8777   Anisotropy =     7.5850
   XX=    27.9675   YX=    -0.1624   ZX=     2.5206
   XY=     2.3496   YY=    24.9984   ZY=    -4.0259
   XZ=     1.3510   YZ=    -6.4316   ZZ=    27.6671
   Eigenvalues:    20.3774    28.3214    31.9344
     75  H    Isotropic =    27.9903   Anisotropy =     7.8415
   XX=    27.6938   YX=     2.3616   ZX=     3.2362
   XY=     2.6000   YY=    25.5209   ZY=    -1.6642
   XZ=     3.8379   YZ=     0.7649   ZZ=    30.7563
   Eigenvalues:    23.0766    27.6763    33.2180
     76  H    Isotropic =    27.1789   Anisotropy =     7.4330
   XX=    27.2917   YX=     1.2579   ZX=    -1.4980
   XY=    -1.5436   YY=    30.4380   ZY=     2.4269
   XZ=    -3.4661   YZ=     4.3368   ZZ=    23.8071
   Eigenvalues:    21.5070    27.8955    32.1343
     77  H    Isotropic =    28.2252   Anisotropy =     9.1072
   XX=    27.0272   YX=     0.9178   ZX=     1.0924
   XY=     2.2388   YY=    29.7997   ZY=     4.3399
   XZ=     3.3808   YZ=     4.4722   ZZ=    27.8487
   Eigenvalues:    24.0548    26.3242    34.2966
     78  H    Isotropic =    27.6642   Anisotropy =    10.0931
   XX=    24.7302   YX=     0.6080   ZX=    -0.5171
   XY=     1.1944   YY=    34.2959   ZY=    -2.3317
   XZ=    -0.4657   YZ=     1.6897   ZZ=    23.9664
   Eigenvalues:    23.7248    24.8748    34.3929
 End of Minotr F.D. properties file   721 does not exist.
 End of Minotr F.D. properties file   722 does not exist.
 End of Minotr F.D. properties file   788 does not exist.

 **********************************************************************

            Population analysis using the SCF Density.

 **********************************************************************

 Orbital symmetries:
       Occupied  (A) (A) (A) (A) (A) (A) (A) (A) (A) (A) (A) (A)
                 (A) (A) (A) (A) (A) (A) (A) (A) (A) (A) (A) (A)
                 (A) (A) (A) (A) (A) (A) (A) (A) (A) (A) (A) (A)
                 (A) (A) (A) (A) (A) (A) (A) (A) (A) (A) (A) (A)
                 (A) (A) (A) (A) (A) (A) (A) (A) (A) (A) (A) (A)
                 (A) (A) (A) (A) (A) (A) (A) (A) (A) (A) (A) (A)
                 (A) (A) (A) (A) (A) (A) (A) (A) (A) (A) (A) (A)
                 (A) (A) (A) (A) (A) (A) (A) (A) (A) (A) (A) (A)
                 (A) (A) (A) (A) (A) (A) (A) (A) (A) (A) (A) (A)
                 (A) (A) (A) (A) (A) (A) (A) (A) (A) (A) (A) (A)
                 (A) (A) (A) (A) (A) (A) (A) (A) (A) (A) (A) (A)
                 (A) (A) (A) (A) (A) (A) (A) (A) (A) (A) (A) (A)
                 (A) (A) (A) (A) (A) (A) (A) (A) (A) (A) (A) (A)
                 (A) (A) (A)
       Virtual   (A) (A) (A) (A) (A) (A) (A) (A) (A) (A) (A) (A)
                 (A) (A) (A) (A) (A) (A) (A) (A) (A) (A) (A) (A)
                 (A) (A) (A) (A) (A) (A) (A) (A) (A) (A) (A) (A)
                 (A) (A) (A) (A) (A) (A) (A) (A) (A) (A) (A) (A)
                 (A) (A) (A) (A) (A) (A) (A) (A) (A) (A) (A) (A)
                 (A) (A) (A) (A) (A) (A) (A) (A) (A) (A) (A) (A)
                 (A) (A) (A) (A) (A) (A) (A) (A) (A) (A) (A) (A)
                 (A) (A) (A) (A) (A) (A) (A) (A) (A) (A) (A) (A)
                 (A) (A) (A) (A) (A) (A) (A) (A) (A) (A) (A) (A)
                 (A) (A) (A) (A) (A) (A) (A) (A) (A) (A) (A) (A)
                 (A) (A) (A) (A) (A) (A) (A) (A) (A) (A) (A) (A)
                 (A) (A) (A) (A) (A) (A) (A) (A) (A) (A) (A) (A)
                 (A) (A) (A) (A) (A) (A) (A) (A) (A) (A) (A) (A)
                 (A) (A) (A) (A) (A) (A) (A) (A) (A) (A) (A) (A)
                 (A) (A) (A) (A) (A) (A) (A) (A) (A) (A) (A) (A)
                 (A) (A) (A) (A) (A) (A) (A) (A) (A) (A) (A) (A)
                 (A) (A) (A) (A) (A) (A) (A) (A) (A) (A) (A) (A)
                 (A) (A) (A) (A) (A) (A) (A) (A) (A) (A) (A) (A)
                 (A) (A) (A) (A) (A) (A) (A) (A) (A) (A) (A) (A)
                 (A) (A) (A) (A) (A) (A) (A) (A) (A) (A) (A) (A)
                 (A) (A) (A) (A) (A) (A) (A) (A) (A) (A) (A) (A)
                 (A) (A) (A) (A) (A) (A) (A) (A) (A) (A) (A) (A)
                 (A) (A) (A) (A) (A) (A) (A) (A) (A) (A) (A) (A)
                 (A) (A) (A) (A) (A) (A) (A) (A) (A) (A) (A) (A)
                 (A) (A) (A) (A) (A) (A) (A) (A) (A) (A) (A) (A)
                 (A) (A) (A) (A) (A) (A) (A) (A) (A) (A) (A) (A)
                 (A) (A) (A) (A) (A) (A) (A) (A) (A) (A) (A) (A)
                 (A) (A) (A) (A) (A) (A) (A) (A) (A) (A) (A) (A)
                 (A) (A) (A) (A) (A) (A) (A) (A) (A) (A) (A) (A)
                 (A) (A) (A) (A) (A) (A) (A) (A) (A) (A) (A) (A)
                 (A) (A) (A) (A) (A) (A) (A) (A) (A) (A) (A) (A)
                 (A) (A) (A) (A) (A) (A) (A) (A) (A) (A) (A) (A)
                 (A) (A) (A) (A) (A) (A) (A) (A) (A) (A) (A) (A)
                 (A) (A) (A) (A) (A) (A) (A) (A) (A) (A) (A) (A)
                 (A) (A) (A) (A) (A) (A) (A) (A) (A) (A) (A) (A)
                 (A) (A) (A) (A) (A) (A) (A) (A) (A) (A) (A) (A)
                 (A) (A) (A) (A) (A) (A) (A) (A) (A) (A) (A) (A)
                 (A) (A) (A) (A) (A) (A) (A) (A) (A) (A) (A) (A)
                 (A) (A) (A) (A) (A) (A) (A) (A) (A) (A) (A) (A)
                 (A) (A) (A) (A) (A) (A) (A) (A) (A) (A) (A) (A)
                 (A) (A) (A) (A) (A) (A) (A) (A) (A) (A) (A) (A)
                 (A) (A) (A) (A) (A) (A) (A) (A) (A) (A) (A) (A)
                 (A) (A) (A) (A) (A) (A) (A) (A) (A) (A) (A) (A)
                 (A) (A) (A) (A) (A) (A) (A) (A) (A) (A) (A) (A)
                 (A) (A) (A) (A) (A) (A) (A) (A) (A) (A) (A) (A)
                 (A) (A) (A) (A) (A) (A) (A) (A) (A) (A) (A) (A)
                 (A) (A) (A) (A) (A) (A) (A) (A) (A) (A) (A) (A)
                 (A) (A) (A) (A) (A) (A) (A) (A) (A) (A) (A) (A)
                 (A) (A) (A) (A) (A) (A) (A) (A) (A) (A) (A) (A)
                 (A) (A) (A) (A) (A) (A) (A) (A) (A) (A) (A) (A)
                 (A) (A) (A) (A) (A) (A) (A) (A) (A) (A) (A) (A)
                 (A) (A) (A) (A) (A) (A) (A) (A) (A) (A) (A) (A)
                 (A) (A) (A) (A) (A) (A) (A) (A) (A) (A) (A) (A)
                 (A) (A) (A) (A) (A) (A) (A) (A) (A) (A) (A) (A)
                 (A) (A) (A) (A) (A) (A) (A) (A) (A) (A) (A) (A)
                 (A) (A) (A) (A) (A) (A) (A) (A) (A) (A) (A) (A)
                 (A) (A) (A) (A) (A) (A) (A) (A) (A) (A) (A) (A)
                 (A) (A) (A) (A) (A) (A) (A) (A) (A) (A) (A) (A)
                 (A) (A) (A) (A) (A) (A) (A) (A) (A) (A) (A) (A)
                 (A) (A) (A) (A) (A) (A) (A) (A) (A) (A) (A) (A)
                 (A) (A) (A) (A) (A) (A) (A) (A) (A) (A) (A) (A)
                 (A) (A) (A) (A) (A) (A) (A) (A) (A) (A) (A) (A)
                 (A) (A) (A) (A) (A) (A) (A) (A) (A) (A) (A) (A)
                 (A) (A) (A) (A) (A) (A) (A) (A) (A) (A) (A) (A)
                 (A) (A) (A) (A) (A) (A) (A) (A) (A) (A) (A) (A)
                 (A) (A) (A) (A) (A) (A) (A) (A) (A) (A) (A) (A)
                 (A) (A) (A) (A) (A) (A) (A) (A) (A) (A) (A) (A)
                 (A) (A) (A) (A) (A) (A) (A) (A) (A) (A) (A) (A)
                 (A) (A) (A) (A) (A) (A) (A) (A) (A) (A) (A) (A)
                 (A) (A) (A) (A) (A) (A) (A) (A) (A) (A) (A) (A)
                 (A) (A) (A) (A) (A) (A) (A) (A) (A) (A) (A) (A)
                 (A) (A) (A) (A) (A) (A) (A) (A) (A) (A) (A) (A)
                 (A) (A) (A) (A) (A) (A) (A) (A) (A) (A) (A) (A)
                 (A) (A) (A) (A) (A) (A) (A) (A) (A) (A) (A) (A)
                 (A) (A) (A) (A) (A) (A) (A) (A) (A) (A) (A) (A)
                 (A) (A) (A) (A) (A) (A) (A) (A) (A) (A) (A) (A)
                 (A) (A) (A) (A) (A) (A) (A) (A) (A) (A) (A) (A)
                 (A) (A) (A) (A) (A) (A) (A) (A) (A) (A) (A) (A)
                 (A) (A) (A) (A) (A) (A) (A) (A) (A) (A) (A) (A)
                 (A) (A) (A) (A) (A) (A) (A) (A) (A) (A) (A) (A)
                 (A) (A) (A) (A) (A) (A) (A) (A) (A) (A) (A) (A)
                 (A) (A) (A) (A) (A) (A) (A) (A) (A) (A) (A) (A)
                 (A) (A) (A) (A) (A) (A) (A) (A) (A) (A) (A) (A)
                 (A) (A) (A) (A) (A) (A) (A) (A) (A) (A) (A) (A)
                 (A) (A) (A) (A) (A) (A) (A) (A) (A) (A) (A) (A)
                 (A) (A) (A) (A) (A) (A) (A) (A) (A) (A) (A) (A)
                 (A) (A) (A) (A) (A) (A) (A) (A) (A) (A) (A) (A)
                 (A) (A) (A) (A) (A) (A) (A) (A) (A) (A) (A) (A)
                 (A) (A) (A) (A) (A) (A) (A) (A) (A) (A) (A) (A)
                 (A) (A) (A) (A) (A) (A) (A) (A) (A) (A) (A) (A)
                 (A) (A) (A) (A) (A) (A) (A) (A) (A) (A) (A) (A)
                 (A) (A) (A) (A) (A) (A) (A) (A) (A) (A) (A) (A)
                 (A) (A) (A) (A) (A) (A) (A) (A) (A) (A) (A) (A)
                 (A) (A) (A) (A) (A) (A) (A) (A) (A) (A) (A) (A)
                 (A) (A) (A) (A) (A) (A) (A) (A) (A) (A) (A) (A)
                 (A) (A) (A) (A) (A) (A) (A) (A) (A) (A) (A) (A)
                 (A) (A) (A) (A) (A) (A) (A) (A) (A) (A) (A) (A)
                 (A) (A) (A) (A) (A) (A) (A) (A) (A) (A) (A) (A)
                 (A) (A) (A) (A) (A) (A) (A) (A) (A) (A) (A) (A)
                 (A) (A) (A) (A) (A) (A) (A) (A) (A) (A) (A) (A)
                 (A) (A) (A) (A) (A) (A) (A) (A) (A) (A) (A) (A)
                 (A) (A) (A) (A) (A) (A) (A) (A) (A)
 The electronic state is 1-A.
 Alpha  occ. eigenvalues --  -19.25201 -19.25142 -19.25092 -19.24999 -19.24930
 Alpha  occ. eigenvalues --  -19.24927 -19.24568 -19.24566 -19.24136 -19.23686
 Alpha  occ. eigenvalues --  -10.30324 -10.30229 -10.30102 -10.30097 -10.30004
 Alpha  occ. eigenvalues --  -10.29854 -10.29854 -10.29680 -10.29345 -10.29274
 Alpha  occ. eigenvalues --  -10.27919 -10.27911 -10.27445 -10.27241 -10.27098
 Alpha  occ. eigenvalues --  -10.27063 -10.24944 -10.24900 -10.24832 -10.24765
 Alpha  occ. eigenvalues --  -10.24605 -10.24598 -10.23944 -10.23941 -10.23898
 Alpha  occ. eigenvalues --  -10.23889 -10.23878 -10.23874 -10.23206 -10.23188
 Alpha  occ. eigenvalues --  -10.23063 -10.23061 -10.22928 -10.22921  -1.11264
 Alpha  occ. eigenvalues --   -1.11106  -1.09438  -1.09435  -1.09163  -1.09162
 Alpha  occ. eigenvalues --   -1.09037  -1.08796  -1.07390  -1.07220  -0.89686
 Alpha  occ. eigenvalues --   -0.88269  -0.87946  -0.87885  -0.84416  -0.83575
 Alpha  occ. eigenvalues --   -0.79904  -0.78634  -0.78504  -0.77660  -0.77648
 Alpha  occ. eigenvalues --   -0.75938  -0.75519  -0.75208  -0.72440  -0.71564
 Alpha  occ. eigenvalues --   -0.70085  -0.69938  -0.68625  -0.68624  -0.66205
 Alpha  occ. eigenvalues --   -0.66044  -0.65445  -0.63267  -0.63142  -0.62713
 Alpha  occ. eigenvalues --   -0.61247  -0.60888  -0.59711  -0.58751  -0.57978
 Alpha  occ. eigenvalues --   -0.57074  -0.55860  -0.55718  -0.53644  -0.53557
 Alpha  occ. eigenvalues --   -0.53070  -0.52264  -0.51738  -0.51636  -0.50202
 Alpha  occ. eigenvalues --   -0.50044  -0.49518  -0.49450  -0.49418  -0.48889
 Alpha  occ. eigenvalues --   -0.48564  -0.48417  -0.47497  -0.47028  -0.46702
 Alpha  occ. eigenvalues --   -0.46392  -0.45741  -0.45360  -0.45218  -0.45138
 Alpha  occ. eigenvalues --   -0.44881  -0.44504  -0.44275  -0.44082  -0.43973
 Alpha  occ. eigenvalues --   -0.43219  -0.43137  -0.43088  -0.42357  -0.42207
 Alpha  occ. eigenvalues --   -0.41862  -0.41412  -0.41370  -0.41155  -0.40401
 Alpha  occ. eigenvalues --   -0.40309  -0.40173  -0.39798  -0.39765  -0.39334
 Alpha  occ. eigenvalues --   -0.38884  -0.37488  -0.37269  -0.37021  -0.36815
 Alpha  occ. eigenvalues --   -0.36536  -0.36472  -0.35693  -0.34980  -0.34964
 Alpha  occ. eigenvalues --   -0.33950  -0.33881  -0.33655  -0.33010  -0.32590
 Alpha  occ. eigenvalues --   -0.32329  -0.31823  -0.31623  -0.31227  -0.29081
 Alpha  occ. eigenvalues --   -0.28830  -0.25353  -0.25048  -0.24796  -0.24616
 Alpha  occ. eigenvalues --   -0.24496  -0.22673  -0.22512  -0.21744
 Alpha virt. eigenvalues --   -0.02005  -0.01075  -0.01051  -0.00819  -0.00621
 Alpha virt. eigenvalues --    0.00222   0.00361   0.01102   0.01157   0.01225
 Alpha virt. eigenvalues --    0.01323   0.01744   0.01842   0.02070   0.02306
 Alpha virt. eigenvalues --    0.02757   0.02876   0.03117   0.03360   0.03572
 Alpha virt. eigenvalues --    0.03754   0.03983   0.04110   0.04431   0.04695
 Alpha virt. eigenvalues --    0.05010   0.05274   0.05341   0.05405   0.05792
 Alpha virt. eigenvalues --    0.05949   0.06345   0.06397   0.06780   0.06892
 Alpha virt. eigenvalues --    0.06994   0.07241   0.07540   0.07660   0.07901
 Alpha virt. eigenvalues --    0.08570   0.08880   0.09206   0.09326   0.09417
 Alpha virt. eigenvalues --    0.09543   0.09615   0.09778   0.10064   0.10300
 Alpha virt. eigenvalues --    0.10659   0.11194   0.11341   0.11368   0.11507
 Alpha virt. eigenvalues --    0.11867   0.12031   0.12308   0.12418   0.12576
 Alpha virt. eigenvalues --    0.12638   0.12820   0.13067   0.13425   0.13506
 Alpha virt. eigenvalues --    0.13623   0.13682   0.13887   0.14147   0.14470
 Alpha virt. eigenvalues --    0.14597   0.14783   0.14977   0.15263   0.15481
 Alpha virt. eigenvalues --    0.15543   0.15746   0.15779   0.16135   0.16235
 Alpha virt. eigenvalues --    0.16335   0.16452   0.16584   0.16860   0.17198
 Alpha virt. eigenvalues --    0.17254   0.17432   0.17696   0.17807   0.17835
 Alpha virt. eigenvalues --    0.18077   0.18118   0.18365   0.18433   0.18528
 Alpha virt. eigenvalues --    0.18683   0.18809   0.18974   0.19191   0.19234
 Alpha virt. eigenvalues --    0.19488   0.19568   0.19833   0.19945   0.20228
 Alpha virt. eigenvalues --    0.20285   0.20436   0.20572   0.20702   0.20832
 Alpha virt. eigenvalues --    0.20951   0.21222   0.21358   0.21649   0.21857
 Alpha virt. eigenvalues --    0.21934   0.22076   0.22316   0.22468   0.22474
 Alpha virt. eigenvalues --    0.22687   0.22752   0.22880   0.23133   0.23271
 Alpha virt. eigenvalues --    0.23467   0.23596   0.23787   0.23889   0.24042
 Alpha virt. eigenvalues --    0.24176   0.24264   0.24769   0.24870   0.24958
 Alpha virt. eigenvalues --    0.25037   0.25185   0.25255   0.25514   0.25583
 Alpha virt. eigenvalues --    0.25645   0.25915   0.26130   0.26214   0.26430
 Alpha virt. eigenvalues --    0.26569   0.26814   0.26990   0.27100   0.27293
 Alpha virt. eigenvalues --    0.27443   0.27716   0.27878   0.27988   0.28161
 Alpha virt. eigenvalues --    0.28228   0.28519   0.28568   0.28830   0.28980
 Alpha virt. eigenvalues --    0.29113   0.29205   0.29331   0.29381   0.29509
 Alpha virt. eigenvalues --    0.29652   0.29717   0.29981   0.30028   0.30129
 Alpha virt. eigenvalues --    0.30498   0.30667   0.30897   0.31170   0.31596
 Alpha virt. eigenvalues --    0.31707   0.31831   0.31898   0.32142   0.32283
 Alpha virt. eigenvalues --    0.32446   0.32958   0.33049   0.33107   0.33199
 Alpha virt. eigenvalues --    0.33424   0.33803   0.33856   0.33923   0.34178
 Alpha virt. eigenvalues --    0.34757   0.34800   0.34897   0.34948   0.35233
 Alpha virt. eigenvalues --    0.35460   0.35607   0.36061   0.36103   0.36486
 Alpha virt. eigenvalues --    0.36691   0.36774   0.37113   0.37304   0.37441
 Alpha virt. eigenvalues --    0.37761   0.37941   0.38158   0.38209   0.38582
 Alpha virt. eigenvalues --    0.38719   0.38928   0.39197   0.39331   0.39517
 Alpha virt. eigenvalues --    0.39844   0.39872   0.40128   0.40270   0.40699
 Alpha virt. eigenvalues --    0.40879   0.40963   0.41184   0.41683   0.41941
 Alpha virt. eigenvalues --    0.41975   0.42180   0.42392   0.42789   0.42893
 Alpha virt. eigenvalues --    0.43190   0.43250   0.43524   0.43906   0.44031
 Alpha virt. eigenvalues --    0.44200   0.44722   0.44975   0.45721   0.45870
 Alpha virt. eigenvalues --    0.46442   0.46706   0.47005   0.47202   0.47444
 Alpha virt. eigenvalues --    0.47829   0.48032   0.48405   0.48813   0.48952
 Alpha virt. eigenvalues --    0.49124   0.49783   0.50066   0.50799   0.51482
 Alpha virt. eigenvalues --    0.51833   0.52115   0.52206   0.52488   0.52791
 Alpha virt. eigenvalues --    0.53090   0.53303   0.53574   0.53807   0.54024
 Alpha virt. eigenvalues --    0.54390   0.54588   0.54711   0.54976   0.55474
 Alpha virt. eigenvalues --    0.55567   0.56040   0.56177   0.56363   0.56492
 Alpha virt. eigenvalues --    0.56738   0.56971   0.57130   0.58030   0.58160
 Alpha virt. eigenvalues --    0.58367   0.58500   0.58830   0.58985   0.59476
 Alpha virt. eigenvalues --    0.59693   0.59917   0.60376   0.60596   0.60863
 Alpha virt. eigenvalues --    0.61194   0.61602   0.61802   0.62023   0.62391
 Alpha virt. eigenvalues --    0.62588   0.62655   0.62979   0.63081   0.63427
 Alpha virt. eigenvalues --    0.63936   0.64052   0.64364   0.64736   0.64833
 Alpha virt. eigenvalues --    0.65140   0.65298   0.65400   0.65534   0.65779
 Alpha virt. eigenvalues --    0.66312   0.66364   0.66765   0.66987   0.67237
 Alpha virt. eigenvalues --    0.67505   0.67595   0.67903   0.68050   0.68286
 Alpha virt. eigenvalues --    0.68568   0.68772   0.68899   0.68997   0.69343
 Alpha virt. eigenvalues --    0.69649   0.69709   0.70099   0.70271   0.70560
 Alpha virt. eigenvalues --    0.70956   0.71102   0.71331   0.71434   0.71976
 Alpha virt. eigenvalues --    0.72037   0.72290   0.72584   0.72618   0.72725
 Alpha virt. eigenvalues --    0.73157   0.73250   0.73450   0.73687   0.73835
 Alpha virt. eigenvalues --    0.74012   0.74288   0.74658   0.74804   0.75122
 Alpha virt. eigenvalues --    0.75241   0.75552   0.75809   0.76183   0.76386
 Alpha virt. eigenvalues --    0.76463   0.76886   0.76951   0.77133   0.77535
 Alpha virt. eigenvalues --    0.77743   0.77880   0.78099   0.78355   0.78776
 Alpha virt. eigenvalues --    0.78825   0.79168   0.79231   0.79557   0.79823
 Alpha virt. eigenvalues --    0.80081   0.80183   0.80639   0.80913   0.81233
 Alpha virt. eigenvalues --    0.81473   0.81760   0.81890   0.82004   0.82135
 Alpha virt. eigenvalues --    0.82545   0.82832   0.83177   0.83248   0.83715
 Alpha virt. eigenvalues --    0.83924   0.84188   0.84359   0.84673   0.85016
 Alpha virt. eigenvalues --    0.85195   0.85389   0.85668   0.86160   0.86221
 Alpha virt. eigenvalues --    0.86676   0.86874   0.87075   0.87341   0.87428
 Alpha virt. eigenvalues --    0.87924   0.87988   0.88212   0.88410   0.88684
 Alpha virt. eigenvalues --    0.89421   0.90010   0.90464   0.90922   0.90970
 Alpha virt. eigenvalues --    0.91322   0.91688   0.92234   0.92386   0.92500
 Alpha virt. eigenvalues --    0.92879   0.92997   0.93382   0.93585   0.94103
 Alpha virt. eigenvalues --    0.94620   0.94930   0.95450   0.95997   0.96733
 Alpha virt. eigenvalues --    0.97028   0.97418   0.98172   0.98763   0.98975
 Alpha virt. eigenvalues --    0.99269   0.99683   0.99754   0.99939   1.00121
 Alpha virt. eigenvalues --    1.00936   1.01420   1.01812   1.02031   1.02829
 Alpha virt. eigenvalues --    1.03417   1.03697   1.04031   1.04175   1.04530
 Alpha virt. eigenvalues --    1.04692   1.04987   1.05435   1.05700   1.06277
 Alpha virt. eigenvalues --    1.06454   1.07355   1.07432   1.07650   1.07969
 Alpha virt. eigenvalues --    1.08115   1.08249   1.08503   1.09172   1.09304
 Alpha virt. eigenvalues --    1.09821   1.09882   1.09946   1.10516   1.10805
 Alpha virt. eigenvalues --    1.11281   1.11506   1.11990   1.12528   1.13051
 Alpha virt. eigenvalues --    1.13333   1.13632   1.13949   1.14229   1.15054
 Alpha virt. eigenvalues --    1.15276   1.15437   1.15928   1.16378   1.16447
 Alpha virt. eigenvalues --    1.16699   1.16930   1.17073   1.17957   1.18113
 Alpha virt. eigenvalues --    1.18469   1.18899   1.19514   1.19823   1.20459
 Alpha virt. eigenvalues --    1.20845   1.20990   1.21039   1.21356   1.21682
 Alpha virt. eigenvalues --    1.21937   1.22112   1.22271   1.22707   1.22996
 Alpha virt. eigenvalues --    1.23217   1.23334   1.23651   1.24325   1.24749
 Alpha virt. eigenvalues --    1.25093   1.25549   1.25892   1.26288   1.26467
 Alpha virt. eigenvalues --    1.26979   1.27091   1.27697   1.28092   1.28805
 Alpha virt. eigenvalues --    1.29090   1.29213   1.29571   1.30038   1.30182
 Alpha virt. eigenvalues --    1.30264   1.30810   1.30960   1.31530   1.31693
 Alpha virt. eigenvalues --    1.31770   1.32248   1.32693   1.33282   1.33428
 Alpha virt. eigenvalues --    1.33805   1.34135   1.34450   1.35030   1.35215
 Alpha virt. eigenvalues --    1.35641   1.35849   1.36105   1.36628   1.36761
 Alpha virt. eigenvalues --    1.37296   1.37791   1.38027   1.38438   1.38551
 Alpha virt. eigenvalues --    1.38847   1.39031   1.39700   1.40030   1.40266
 Alpha virt. eigenvalues --    1.40425   1.40612   1.41026   1.41436   1.41646
 Alpha virt. eigenvalues --    1.42613   1.43123   1.43516   1.43893   1.44216
 Alpha virt. eigenvalues --    1.44633   1.44730   1.45117   1.46001   1.46328
 Alpha virt. eigenvalues --    1.46428   1.47708   1.48138   1.48860   1.49341
 Alpha virt. eigenvalues --    1.49555   1.49972   1.50733   1.50810   1.50992
 Alpha virt. eigenvalues --    1.51637   1.52362   1.52693   1.53175   1.53534
 Alpha virt. eigenvalues --    1.53852   1.54415   1.55039   1.55722   1.56199
 Alpha virt. eigenvalues --    1.56604   1.56916   1.57044   1.57742   1.58251
 Alpha virt. eigenvalues --    1.58727   1.59222   1.59597   1.60472   1.60699
 Alpha virt. eigenvalues --    1.60895   1.61296   1.61927   1.62335   1.62809
 Alpha virt. eigenvalues --    1.63738   1.63904   1.64487   1.65470   1.65753
 Alpha virt. eigenvalues --    1.66516   1.67122   1.67601   1.67858   1.69432
 Alpha virt. eigenvalues --    1.69651   1.69946   1.70467   1.71131   1.71629
 Alpha virt. eigenvalues --    1.72345   1.72895   1.73107   1.73192   1.73490
 Alpha virt. eigenvalues --    1.74496   1.75822   1.76115   1.76586   1.76934
 Alpha virt. eigenvalues --    1.77244   1.77473   1.77918   1.78076   1.78459
 Alpha virt. eigenvalues --    1.78924   1.79154   1.79964   1.80255   1.80760
 Alpha virt. eigenvalues --    1.80902   1.81006   1.81620   1.82178   1.83017
 Alpha virt. eigenvalues --    1.83425   1.83651   1.84045   1.85221   1.85505
 Alpha virt. eigenvalues --    1.85919   1.86616   1.87176   1.88137   1.88586
 Alpha virt. eigenvalues --    1.88799   1.90428   1.91376   1.91569   1.91685
 Alpha virt. eigenvalues --    1.92835   1.93380   1.94744   1.95572   1.96507
 Alpha virt. eigenvalues --    1.96730   1.97228   1.97924   1.98175   1.98314
 Alpha virt. eigenvalues --    1.98579   1.98694   1.99271   1.99602   2.00147
 Alpha virt. eigenvalues --    2.00290   2.00391   2.00778   2.00966   2.01224
 Alpha virt. eigenvalues --    2.01596   2.03655   2.04508   2.05574   2.05645
 Alpha virt. eigenvalues --    2.06336   2.06637   2.07047   2.07751   2.08047
 Alpha virt. eigenvalues --    2.08248   2.08574   2.09922   2.10156   2.10634
 Alpha virt. eigenvalues --    2.11956   2.13352   2.14078   2.14898   2.15429
 Alpha virt. eigenvalues --    2.17371   2.17721   2.18274   2.19477   2.19893
 Alpha virt. eigenvalues --    2.20263   2.20846   2.22461   2.22823   2.23257
 Alpha virt. eigenvalues --    2.25278   2.25517   2.25678   2.26656   2.27131
 Alpha virt. eigenvalues --    2.27941   2.28273   2.28507   2.28958   2.29376
 Alpha virt. eigenvalues --    2.29986   2.30074   2.30331   2.31175   2.32112
 Alpha virt. eigenvalues --    2.33072   2.33394   2.33466   2.34183   2.34449
 Alpha virt. eigenvalues --    2.35647   2.36358   2.37179   2.37414   2.38568
 Alpha virt. eigenvalues --    2.39696   2.39921   2.40319   2.40573   2.40767
 Alpha virt. eigenvalues --    2.40963   2.41081   2.41576   2.42204   2.42393
 Alpha virt. eigenvalues --    2.43158   2.43450   2.44287   2.44751   2.45409
 Alpha virt. eigenvalues --    2.45547   2.46240   2.46620   2.47153   2.47234
 Alpha virt. eigenvalues --    2.47615   2.48000   2.48326   2.48497   2.50090
 Alpha virt. eigenvalues --    2.50497   2.51617   2.52743   2.53160   2.53806
 Alpha virt. eigenvalues --    2.54690   2.57714   2.58296   2.58923   2.59858
 Alpha virt. eigenvalues --    2.61230   2.61588   2.62221   2.62575   2.63012
 Alpha virt. eigenvalues --    2.63270   2.64628   2.64882   2.65394   2.66394
 Alpha virt. eigenvalues --    2.66962   2.67887   2.68116   2.69464   2.69489
 Alpha virt. eigenvalues --    2.69620   2.71569   2.71850   2.73422   2.73529
 Alpha virt. eigenvalues --    2.74967   2.75302   2.75591   2.75761   2.76724
 Alpha virt. eigenvalues --    2.77379   2.78016   2.78664   2.79255   2.79328
 Alpha virt. eigenvalues --    2.79451   2.79704   2.80687   2.81151   2.83610
 Alpha virt. eigenvalues --    2.83873   2.84833   2.85450   2.86310   2.86968
 Alpha virt. eigenvalues --    2.87480   2.88535   2.88859   2.89550   2.90112
 Alpha virt. eigenvalues --    2.90758   2.90895   2.91839   2.93407   2.93829
 Alpha virt. eigenvalues --    2.94249   2.94388   2.95179   2.96337   2.96811
 Alpha virt. eigenvalues --    2.98048   2.99122   3.00278   3.00299   3.01121
 Alpha virt. eigenvalues --    3.01222   3.01537   3.01785   3.02870   3.03076
 Alpha virt. eigenvalues --    3.03783   3.04242   3.04602   3.04965   3.05064
 Alpha virt. eigenvalues --    3.05341   3.05857   3.06973   3.07499   3.07785
 Alpha virt. eigenvalues --    3.08923   3.09363   3.10293   3.10453   3.11034
 Alpha virt. eigenvalues --    3.11794   3.12181   3.13593   3.14362   3.15004
 Alpha virt. eigenvalues --    3.15266   3.15741   3.16402   3.18350   3.18714
 Alpha virt. eigenvalues --    3.18914   3.19557   3.20623   3.20965   3.21619
 Alpha virt. eigenvalues --    3.21864   3.22519   3.23522   3.23988   3.24709
 Alpha virt. eigenvalues --    3.25039   3.25576   3.25933   3.26434   3.27199
 Alpha virt. eigenvalues --    3.27517   3.27909   3.28848   3.29124   3.29763
 Alpha virt. eigenvalues --    3.30405   3.30968   3.31578   3.32541   3.32868
 Alpha virt. eigenvalues --    3.33982   3.34406   3.34634   3.35570   3.35927
 Alpha virt. eigenvalues --    3.36175   3.36598   3.37013   3.37710   3.38088
 Alpha virt. eigenvalues --    3.38528   3.38617   3.38847   3.39082   3.39866
 Alpha virt. eigenvalues --    3.40493   3.40738   3.41276   3.41970   3.42397
 Alpha virt. eigenvalues --    3.43118   3.43263   3.43662   3.44084   3.44385
 Alpha virt. eigenvalues --    3.44473   3.44911   3.45140   3.45728   3.46237
 Alpha virt. eigenvalues --    3.46775   3.47255   3.47428   3.47852   3.48298
 Alpha virt. eigenvalues --    3.49610   3.50071   3.50452   3.50795   3.50859
 Alpha virt. eigenvalues --    3.51173   3.51343   3.51639   3.51730   3.52447
 Alpha virt. eigenvalues --    3.53195   3.53523   3.54101   3.54537   3.55242
 Alpha virt. eigenvalues --    3.56062   3.56304   3.56514   3.57043   3.57719
 Alpha virt. eigenvalues --    3.58173   3.58705   3.59191   3.59627   3.60209
 Alpha virt. eigenvalues --    3.60797   3.61513   3.61792   3.62039   3.62178
 Alpha virt. eigenvalues --    3.62610   3.62719   3.63030   3.63403   3.63692
 Alpha virt. eigenvalues --    3.63971   3.64120   3.64826   3.65055   3.65483
 Alpha virt. eigenvalues --    3.66138   3.66249   3.67080   3.67260   3.67989
 Alpha virt. eigenvalues --    3.68069   3.68331   3.69241   3.69385   3.69661
 Alpha virt. eigenvalues --    3.70452   3.70538   3.71162   3.71625   3.71872
 Alpha virt. eigenvalues --    3.72215   3.72504   3.72795   3.73151   3.73582
 Alpha virt. eigenvalues --    3.74189   3.74463   3.74956   3.75987   3.76664
 Alpha virt. eigenvalues --    3.76907   3.77138   3.77600   3.78436   3.78973
 Alpha virt. eigenvalues --    3.79151   3.79656   3.79913   3.80693   3.81052
 Alpha virt. eigenvalues --    3.81849   3.82069   3.82794   3.83477   3.83950
 Alpha virt. eigenvalues --    3.85024   3.85652   3.86124   3.86437   3.86725
 Alpha virt. eigenvalues --    3.87646   3.87875   3.88059   3.88249   3.88980
 Alpha virt. eigenvalues --    3.89258   3.90006   3.91036   3.91381   3.91825
 Alpha virt. eigenvalues --    3.92093   3.93221   3.94196   3.94676   3.95023
 Alpha virt. eigenvalues --    3.95922   3.96681   3.96838   3.98230   3.98798
 Alpha virt. eigenvalues --    3.99463   3.99816   4.00565   4.01297   4.01951
 Alpha virt. eigenvalues --    4.03362   4.05034   4.05929   4.06287   4.07295
 Alpha virt. eigenvalues --    4.07977   4.08685   4.09345   4.09735   4.11150
 Alpha virt. eigenvalues --    4.11751   4.12184   4.12587   4.12650   4.14029
 Alpha virt. eigenvalues --    4.14193   4.15393   4.18131   4.19773   4.19902
 Alpha virt. eigenvalues --    4.20301   4.20706   4.22111   4.22673   4.23026
 Alpha virt. eigenvalues --    4.23878   4.24121   4.24604   4.26943   4.27476
 Alpha virt. eigenvalues --    4.27937   4.28016   4.29079   4.29481   4.30338
 Alpha virt. eigenvalues --    4.31140   4.31325   4.32256   4.32749   4.35041
 Alpha virt. eigenvalues --    4.36270   4.36437   4.42138   4.44176   4.45254
 Alpha virt. eigenvalues --    4.46284   4.46372   4.50180   4.50332   4.51275
 Alpha virt. eigenvalues --    4.51534   4.55159   4.56740   4.58019   4.61107
 Alpha virt. eigenvalues --    4.61802   4.68276   4.68361   4.71942   4.77662
 Alpha virt. eigenvalues --    4.80254   4.81814   4.82580   4.83235   4.87204
 Alpha virt. eigenvalues --    4.92529   4.93516   5.05869   5.06050   5.06143
 Alpha virt. eigenvalues --    5.11794   5.12304   5.16703   5.16750   5.24573
 Alpha virt. eigenvalues --    5.25260   5.28254   5.28285   5.31667   5.32145
 Alpha virt. eigenvalues --    5.40610   5.43208   5.46820   5.49395   5.55115
 Alpha virt. eigenvalues --    5.55966   5.59592   5.59670   5.60789   5.60817
 Alpha virt. eigenvalues --    5.72708   5.74194   5.84311   5.85432   5.93951
 Alpha virt. eigenvalues --    5.94071   5.96390   5.97322   6.02460   6.02500
 Alpha virt. eigenvalues --    6.04730   6.04862   6.87259   6.87265   6.91586
 Alpha virt. eigenvalues --    6.91731   6.98072   6.98078   6.99232   6.99264
 Alpha virt. eigenvalues --    7.03342   7.03429   7.04966   7.05328   7.07110
 Alpha virt. eigenvalues --    7.07313   7.07368   7.07975   7.08512   7.09093
 Alpha virt. eigenvalues --    7.10765   7.11014   7.11335   7.11690   7.14185
 Alpha virt. eigenvalues --    7.14733   7.16556   7.16717   7.20883   7.22316
 Alpha virt. eigenvalues --    7.25876   7.27984   7.31576   7.31589   7.34080
 Alpha virt. eigenvalues --    7.34185   7.37664   7.37880   7.37912   7.39156
 Alpha virt. eigenvalues --    7.40556   7.42190   7.45119   7.47562   7.49212
 Alpha virt. eigenvalues --    7.49287   7.55387   7.56328   7.57411   7.58370
 Alpha virt. eigenvalues --    7.58716   7.58938  23.77320  23.78118  23.80268
 Alpha virt. eigenvalues --   23.87612  24.02188  24.02799  24.06629  24.06848
 Alpha virt. eigenvalues --   24.07117  24.07550  24.08715  24.11662  24.11744
 Alpha virt. eigenvalues --   24.11960  24.12005  24.12550  24.13367  24.17446
 Alpha virt. eigenvalues --   24.17482  24.20749  24.21798  24.22813  24.23601
 Alpha virt. eigenvalues --   24.24750  24.27326  24.29747  24.29791  24.32477
 Alpha virt. eigenvalues --   24.33272  24.33662  24.36972  24.38734  24.39250
 Alpha virt. eigenvalues --   24.48865  50.10314  50.10318  50.12218  50.12431
 Alpha virt. eigenvalues --   50.16326  50.17373  50.20345  50.20446  50.22242
 Alpha virt. eigenvalues --   50.22458
          Condensed to atoms (all electrons):
 Mulliken charges:
               1
     1  C    0.064375
     2  C   -0.122246
     3  C   -0.468619
     4  C    1.314081
     5  C   -0.175570
     6  C   -0.598842
     7  C   -1.118199
     8  C    0.735923
     9  C   -0.457229
    10  O   -0.398515
    11  C    0.970012
    12  C   -0.789134
    13  C    0.203070
    14  C    0.622556
    15  C   -0.402915
    16  C   -0.479038
    17  O   -0.447328
    18  O   -0.493784
    19  O   -0.476355
    20  O   -0.447725
    21  C   -0.402662
    22  C   -0.470277
    23  C   -0.067802
    24  C    0.919177
    25  C   -0.722527
    26  C    0.808812
    27  O   -0.399898
    28  C   -0.478262
    29  C    0.828303
    30  C   -0.942229
    31  C   -0.567014
    32  C   -0.237844
    33  C    1.289950
    34  C   -0.467886
    35  C   -0.101720
    36  C    0.058151
    37  O   -0.445465
    38  C   -0.241070
    39  O   -0.332546
    40  C   -0.308181
    41  O   -0.379586
    42  C   -0.276959
    43  O   -0.444270
    44  C   -0.272138
    45  H    0.150791
    46  H    0.150165
    47  H    0.147176
    48  H    0.210542
    49  H    0.185238
    50  H    0.140461
    51  H    0.190067
    52  H    0.179896
    53  H    0.155904
    54  H    0.316697
    55  H    0.356383
    56  H    0.354129
    57  H    0.316727
    58  H    0.165567
    59  H    0.190430
    60  H    0.180504
    61  H    0.136869
    62  H    0.206625
    63  H    0.184080
    64  H    0.147227
    65  H    0.150283
    66  H    0.150817
    67  H    0.176132
    68  H    0.184117
    69  H    0.193669
    70  H    0.184523
    71  H    0.188198
    72  H    0.191088
    73  H    0.185675
    74  H    0.189722
    75  H    0.194930
    76  H    0.193016
    77  H    0.189078
    78  H    0.182698
 Sum of Mulliken charges =  -0.00000
 Mulliken charges with hydrogens summed into heavy atoms:
               1
     1  C    0.064375
     2  C    0.028545
     3  C   -0.318454
     4  C    1.314081
     5  C   -0.175570
     6  C   -0.451666
     7  C   -0.722418
     8  C    0.876384
     9  C   -0.087266
    10  O   -0.398515
    11  C    0.970012
    12  C   -0.633230
    13  C    0.203070
    14  C    0.622556
    15  C   -0.402915
    16  C   -0.479038
    17  O   -0.130631
    18  O   -0.137401
    19  O   -0.122226
    20  O   -0.130997
    21  C   -0.402662
    22  C   -0.470277
    23  C   -0.067802
    24  C    0.919177
    25  C   -0.556960
    26  C    0.808812
    27  O   -0.399898
    28  C   -0.107328
    29  C    0.965172
    30  C   -0.551524
    31  C   -0.419787
    32  C   -0.237844
    33  C    1.289950
    34  C   -0.317602
    35  C    0.049097
    36  C    0.058151
    37  O   -0.445465
    38  C    0.312849
    39  O   -0.332546
    40  C    0.255629
    41  O   -0.379586
    42  C    0.293368
    43  O   -0.444270
    44  C    0.292653
 Electronic spatial extent (au):  <R**2>=          39827.6426
 Charge=             -0.0000 electrons
 Dipole moment (field-independent basis, Debye):
    X=              0.5086    Y=              0.3727    Z=             -0.9259  Tot=              1.1202
 Quadrupole moment (field-independent basis, Debye-Ang):
   XX=           -315.2287   YY=           -212.4824   ZZ=           -230.7835
   XY=             23.8266   XZ=            -13.7162   YZ=              8.3517
 Traceless Quadrupole moment (field-independent basis, Debye-Ang):
   XX=            -62.3971   YY=             40.3491   ZZ=             22.0480
   XY=             23.8266   XZ=            -13.7162   YZ=              8.3517
 Octapole moment (field-independent basis, Debye-Ang**2):
  XXX=              5.2855  YYY=             90.5163  ZZZ=             69.3389  XYY=              9.3510
  XXY=           -218.9988  XXZ=           -205.7267  XZZ=             17.2970  YZZ=            -70.3098
  YYZ=            -61.2999  XYZ=             27.7569
 Hexadecapole moment (field-independent basis, Debye-Ang**3):
 XXXX=         -44930.1090 YYYY=          -5141.4117 ZZZZ=          -5041.4001 XXXY=            984.9626
 XXXZ=           -938.0482 YYYX=            312.2040 YYYZ=             24.1354 ZZZX=           -138.5070
 ZZZY=            -44.5373 XXYY=          -6431.8938 XXZZ=          -6926.3568 YYZZ=          -1563.7008
 XXYZ=           1583.3506 YYXZ=           -110.2425 ZZXY=            116.8166
 N-N= 5.134877248981D+03 E-N=-1.510249476727D+04  KE= 2.059466995290D+03
 Unable to Open any file for archive entry.
 1\1\GINC-C08B01N04\SP\RmPW1PW91\6-311+G(2d,p)\C34H34O10\ROOT\25-Sep-20
 25\0\\# mPW1PW91/6-311+g(2d,p) NMR scrf(SMD,solvent=dmso) geom=connect
 ivity\\58RR\\0,1\C,0,8.665002,1.393376,-2.306862\C,0,7.929667,2.585851
 ,-2.301003\C,0,6.695458,2.614555,-1.655392\C,0,6.163924,1.496765,-1.00
 4512\C,0,6.92732,0.315266,-1.020298\C,0,8.165805,0.259422,-1.667618\C,
 0,4.81339,1.5396,-0.324956\C,0,4.275869,0.116312,-0.094812\C,0,5.40693
 9,-0.739858,0.482115\O,0,6.505007,-0.846845,-0.439685\C,0,3.02464,0.07
 2126,0.754829\C,0,1.829222,-0.409179,0.213803\C,0,0.626025,-0.473373,0
 .930447\C,0,0.630986,-0.025253,2.263479\C,0,1.811298,0.461616,2.830079
 \C,0,2.998532,0.514302,2.086489\O,0,9.880286,1.285301,-2.922188\O,0,4.
 121462,0.994926,2.694135\O,0,-4.143655,-2.457927,-1.385039\O,0,-9.7816
 56,3.271468,-0.860989\C,0,-3.008701,-1.946973,-0.827594\C,0,-1.839607,
 -2.718541,-0.877876\C,0,-0.641391,-2.251655,-0.326357\C,0,-0.617158,-0
 .9965,0.310986\C,0,-1.806793,-0.255543,0.358002\C,0,-3.008405,-0.68785
 ,-0.20812\O,0,-6.463479,0.434682,0.881778\C,0,-5.382914,-0.483261,0.64
 3966\C,0,-4.242227,0.184306,-0.129768\C,0,-4.777972,0.619773,-1.504912
 \C,0,-8.096143,1.844493,-0.031958\C,0,-6.87348,1.182912,-0.184873\C,0,
 -6.11267,1.316468,-1.360607\C,0,-6.630146,2.131653,-2.37221\C,0,-7.848
 631,2.795426,-2.246431\C,0,-8.581643,2.649456,-1.061467\O,0,1.903202,0
 .863948,4.147102\C,0,1.190997,2.079545,4.452446\O,0,-0.508097,-0.04255
 9,3.03645\C,0,-0.761928,-1.313748,3.649192\O,0,0.487846,-3.030272,-0.3
 33803\C,0,1.013822,-3.350805,-1.630911\O,0,-1.956801,-3.946885,-1.5021
 17\C,0,-1.843278,-5.073234,-0.60783\H,0,8.315794,3.471018,-2.800579\H,
 0,6.117416,3.53596,-1.660935\H,0,8.733319,-0.665294,-1.666005\H,0,4.88
 9026,2.055739,0.639066\H,0,4.103266,2.110885,-0.93394\H,0,4.024923,-0.
 317118,-1.070433\H,0,5.771587,-0.318587,1.425209\H,0,5.078625,-1.76695
 9,0.656077\H,0,1.835199,-0.738126,-0.81988\H,0,10.104654,2.146425,-3.3
 16504\H,0,3.854317,1.196982,3.613751\H,0,-3.885544,-3.324286,-1.76015\
 H,0,-9.997997,3.789341,-1.656207\H,0,-1.789542,0.711813,0.848087\H,0,-
 5.766013,-1.35267,0.098599\H,0,-5.055909,-0.803168,1.635837\H,0,-3.970
 843,1.085651,0.432907\H,0,-4.876229,-0.262081,-2.148374\H,0,-4.056097,
 1.286321,-1.990763\H,0,-8.66165,1.726055,0.886419\H,0,-6.053637,2.2543
 08,-3.2864\H,0,-8.223867,3.424747,-3.04991\H,0,1.433348,2.320498,5.489
 752\H,0,1.520622,2.89484,3.79772\H,0,0.114116,1.929023,4.345848\H,0,-1
 .687588,-1.20322,4.21859\H,0,-0.889935,-2.097235,2.89325\H,0,0.055461,
 -1.589557,4.326112\H,0,1.995256,-3.796867,-1.455496\H,0,0.374036,-4.06
 1756,-2.161465\H,0,1.128486,-2.445124,-2.237633\H,0,-0.840507,-5.12471
 9,-0.175312\H,0,-2.587607,-5.002381,0.193456\H,0,-2.034259,-5.961866,-
 1.212625\\Version=ES64L-G16RevC.02\State=1-A\HF=-2068.4232848\RMSD=3.1
 31e-09\Dipole=-0.2000844,-0.1466497,-0.3642616\Quadrupole=-46.3907421,
 29.9985813,16.3921608,17.7144926,10.1976718,-6.2093137\PG=C01 [X(C34H3
 4O10)]\\@
 The archive entry for this job was punched.


 EXPERIENCE IS A WONDERFUL THING.  IT ENABLES
 YOU TO RECOGNIZE A MISTAKE WHEN YOU MAKE IT AGAIN.
           - BACK OF A SUGAR PACKET
 Job cpu time:       0 days  8 hours 36 minutes 25.0 seconds.
 Elapsed time:       0 days  0 hours 11 minutes 35.3 seconds.
 File lengths (MBytes):  RWF=   1618 Int=      0 D2E=      0 Chk=    151 Scr=      1
 Normal termination of Gaussian 16 at Thu Sep 25 18:08:20 2025.
