 Entering Gaussian System, Link 0=/home/tupf/tupf_yangsy/lustre1/g16/Gaussian16_AVX2/g16/g16
 Input=58RR_4.gjf
 Output=58RR_4.log
 Initial command:
 /home/tupf/tupf_yangsy/lustre1/g16/Gaussian16_AVX2/g16/l1.exe "/home/tupf/tupf_yangsy/lustre1/g16/tmp/Gau-768192.inp" -scrdir="/home/tupf/tupf_yangsy/lustre1/g16/tmp/"
 Entering Link 1 = /home/tupf/tupf_yangsy/lustre1/g16/Gaussian16_AVX2/g16/l1.exe PID=    768193.
  
 Copyright (c) 1988-2021, Gaussian, Inc.  All Rights Reserved.
  
 This is part of the Gaussian(R) 16 program.  It is based on
 the Gaussian(R) 09 system (copyright 2009, Gaussian, Inc.),
 the Gaussian(R) 03 system (copyright 2003, Gaussian, Inc.),
 the Gaussian(R) 98 system (copyright 1998, Gaussian, Inc.),
 the Gaussian(R) 94 system (copyright 1995, Gaussian, Inc.),
 the Gaussian 92(TM) system (copyright 1992, Gaussian, Inc.),
 the Gaussian 90(TM) system (copyright 1990, Gaussian, Inc.),
 the Gaussian 88(TM) system (copyright 1988, Gaussian, Inc.),
 the Gaussian 86(TM) system (copyright 1986, Carnegie Mellon
 University), and the Gaussian 82(TM) system (copyright 1983,
 Carnegie Mellon University). Gaussian is a federally registered
 trademark of Gaussian, Inc.
  
 This software contains proprietary and confidential information,
 including trade secrets, belonging to Gaussian, Inc.
  
 This software is provided under written license and may be
 used, copied, transmitted, or stored only in accord with that
 written license.
  
 The following legend is applicable only to US Government
 contracts under FAR:
  
                    RESTRICTED RIGHTS LEGEND
  
 Use, reproduction and disclosure by the US Government is
 subject to restrictions as set forth in subparagraphs (a)
 and (c) of the Commercial Computer Software - Restricted
 Rights clause in FAR 52.227-19.
  
 Gaussian, Inc.
 340 Quinnipiac St., Bldg. 40, Wallingford CT 06492
  
  
 ---------------------------------------------------------------
 Warning -- This program may not be used in any manner that
 competes with the business of Gaussian, Inc. or will provide
 assistance to any competitor of Gaussian, Inc.  The licensee
 of this program is prohibited from giving any competitor of
 Gaussian, Inc. access to this program.  By using this program,
 the user acknowledges that Gaussian, Inc. is engaged in the
 business of creating and licensing software in the field of
 computational chemistry and represents and warrants to the
 licensee that it is not a competitor of Gaussian, Inc. and that
 it will not use this program in any manner prohibited above.
 ---------------------------------------------------------------
  

 Cite this work as:
 Gaussian 16, Revision C.02,
 M. J. Frisch, G. W. Trucks, H. B. Schlegel, G. E. Scuseria, 
 M. A. Robb, J. R. Cheeseman, G. Scalmani, V. Barone, 
 G. A. Petersson, H. Nakatsuji, X. Li, M. Caricato, A. V. Marenich, 
 J. Bloino, B. G. Janesko, R. Gomperts, B. Mennucci, H. P. Hratchian, 
 J. V. Ortiz, A. F. Izmaylov, J. L. Sonnenberg, D. Williams-Young, 
 F. Ding, F. Lipparini, F. Egidi, J. Goings, B. Peng, A. Petrone, 
 T. Henderson, D. Ranasinghe, V. G. Zakrzewski, J. Gao, N. Rega, 
 G. Zheng, W. Liang, M. Hada, M. Ehara, K. Toyota, R. Fukuda, 
 J. Hasegawa, M. Ishida, T. Nakajima, Y. Honda, O. Kitao, H. Nakai, 
 T. Vreven, K. Throssell, J. A. Montgomery, Jr., J. E. Peralta, 
 F. Ogliaro, M. J. Bearpark, J. J. Heyd, E. N. Brothers, K. N. Kudin, 
 V. N. Staroverov, T. A. Keith, R. Kobayashi, J. Normand, 
 K. Raghavachari, A. P. Rendell, J. C. Burant, S. S. Iyengar, 
 J. Tomasi, M. Cossi, J. M. Millam, M. Klene, C. Adamo, R. Cammi, 
 J. W. Ochterski, R. L. Martin, K. Morokuma, O. Farkas, 
 J. B. Foresman, and D. J. Fox, Gaussian, Inc., Wallingford CT, 2019.
 
 ******************************************
 Gaussian 16:  ES64L-G16RevC.02  7-Dec-2021
                25-Sep-2025 
 ******************************************
 %mem=400GB
 %nprocshared=64
 Will use up to   64 processors via shared memory.
 ---------------------------------------------------------------------
 # mPW1PW91/6-311+g(2d,p) NMR scrf(SMD,solvent=dmso) geom=connectivity
 ---------------------------------------------------------------------
 1/38=1,57=2,172=1/1;
 2/12=2,17=6,18=5,40=1/2;
 3/5=4,6=6,7=112,11=2,25=1,30=1,70=32201,72=21,74=-7/1,2,3,8;
 4//1;
 5/5=2,38=5,53=21/2;
 8/6=1,10=90,11=11/1;
 10/13=100,45=16/2;
 6/7=2,8=2,9=2,10=2,28=1/1;
 99/9=1/99;
 ----
 58RR
 ----
 Symbolic Z-matrix:
 Charge =  0 Multiplicity = 1
 C                    -2.62995  -2.12497  -1.43837 
 C                    -2.68811  -2.47922  -0.08339 
 C                    -1.57934  -3.09101   0.50151 
 C                    -0.41209  -3.37298  -0.21573 
 C                    -0.38089  -2.99951  -1.57168 
 C                    -1.4763   -2.38124  -2.17987 
 C                     0.7931   -4.02016   0.42955 
 C                     2.09163  -3.72984  -0.35655 
 C                     1.79411  -3.96183  -1.84096 
 O                     0.73233  -3.13848  -2.35078 
 C                     2.68344  -2.36769  -0.04806 
 C                     1.95923  -1.18061  -0.18289 
 C                     2.4536    0.08081   0.17638 
 C                     3.75497   0.16543   0.7053 
 C                     4.50761  -1.00752   0.83584 
 C                     3.985    -2.25589   0.46035 
 O                    -3.67121  -1.53069  -2.08956 
 O                     4.7629   -3.36169   0.62963 
 O                    -1.29351   4.28807  -0.31233 
 O                    -8.05576  -0.7212    1.32134 
 C                    -0.38634   3.28169  -0.17146 
 C                     0.9153    3.46316  -0.66092 
 C                     1.86882   2.44146  -0.56946 
 C                     1.53457   1.24074   0.07682 
 C                     0.2263    1.09439   0.56455 
 C                    -0.75663   2.07688   0.44062 
 O                    -3.68689   0.65099   2.39414 
 C                    -2.32823   0.77138   1.94187 
 C                    -2.19037   1.8462    0.86482 
 C                    -3.04916   1.42709  -0.34613 
 C                    -5.85694  -0.02721   1.81538 
 C                    -4.62594   0.50054   1.41506 
 C                    -4.3907    0.87872   0.08127 
 C                    -5.43946   0.70733  -0.83043 
 C                    -6.67152   0.17055  -0.45798 
 C                    -6.87699  -0.19437   0.87909 
 O                     5.78512  -1.02713   1.36987 
 C                     5.8194   -0.78995   2.79178 
 O                     4.21515   1.36755   1.16789 
 C                     5.44643   1.84017   0.60205 
 O                     3.11402   2.60969  -1.12568 
 C                     3.11888   2.60021  -2.56051 
 O                     1.15239   4.66641  -1.29639 
 C                     2.1652    5.48606  -0.6805 
 H                    -3.58255  -2.27307   0.49825 
 H                    -1.61765  -3.35451   1.55605 
 H                    -1.42007  -2.08967  -3.22333 
 H                     0.89246  -3.6809    1.46603 
 H                     0.65419  -5.10925   0.46726 
 H                     2.83312  -4.48317  -0.07952 
 H                     2.65831  -3.72823  -2.46631 
 H                     1.52345  -5.01506  -1.99365 
 H                     0.95578  -1.2183   -0.58148 
 H                    -4.34413  -1.25718  -1.43902 
 H                     5.61209  -3.03239   0.98626 
 H                    -0.81975   5.0074   -0.77544 
 H                    -8.66866  -0.78741   0.5679 
 H                    -0.02062   0.15479   1.04455 
 H                    -2.0091   -0.20695   1.56487 
 H                    -1.74711   1.01425   2.834 
 H                    -2.59808   2.7765    1.27695 
 H                    -2.50161   0.66175  -0.91096 
 H                    -3.18252   2.27804  -1.02245 
 H                    -6.01004  -0.31134   2.85115 
 H                    -5.28553   1.00938  -1.86384 
 H                    -7.46677   0.04852  -1.18901 
 H                     6.86481  -0.88463   3.09243 
 H                     5.45396   0.21372   3.0267 
 H                     5.21269  -1.5342    3.32055 
 H                     5.4753    2.9142    0.79748 
 H                     6.31263   1.35902   1.06559 
 H                     5.46455   1.67028  -0.47777 
 H                     4.16237   2.7138   -2.86256 
 H                     2.73034   1.64714  -2.93959 
 H                     2.52718   3.42595  -2.96853 
 H                     2.16672   6.42912  -1.23082 
 H                     1.9202    5.67179   0.3716 
 H                     3.14587   5.00947  -0.75265 
 
 Stoichiometry    C34H34O10
 Framework group  C1[X(C34H34O10)]
 Deg. of freedom   228
 Full point group                 C1      NOp   1
 Largest Abelian subgroup         C1      NOp   1
 Largest concise Abelian subgroup C1      NOp   1
                         Standard orientation:                         
 ---------------------------------------------------------------------
 Center     Atomic      Atomic             Coordinates (Angstroms)
 Number     Number       Type             X           Y           Z
 ---------------------------------------------------------------------
      1          6           0        2.629952   -2.124966    1.438366
      2          6           0        2.688113   -2.479217    0.083387
      3          6           0        1.579340   -3.091010   -0.501509
      4          6           0        0.412091   -3.372982    0.215729
      5          6           0        0.380894   -2.999514    1.571675
      6          6           0        1.476295   -2.381236    2.179868
      7          6           0       -0.793101   -4.020156   -0.429551
      8          6           0       -2.091626   -3.729836    0.356552
      9          6           0       -1.794110   -3.961827    1.840964
     10          8           0       -0.732333   -3.138475    2.350784
     11          6           0       -2.683441   -2.367694    0.048056
     12          6           0       -1.959234   -1.180605    0.182890
     13          6           0       -2.453603    0.080807   -0.176380
     14          6           0       -3.754972    0.165429   -0.705301
     15          6           0       -4.507613   -1.007518   -0.835839
     16          6           0       -3.984996   -2.255889   -0.460347
     17          8           0        3.671212   -1.530688    2.089561
     18          8           0       -4.762895   -3.361690   -0.629634
     19          8           0        1.293508    4.288066    0.312327
     20          8           0        8.055757   -0.721204   -1.321342
     21          6           0        0.386338    3.281692    0.171462
     22          6           0       -0.915297    3.463156    0.660924
     23          6           0       -1.868817    2.441461    0.569461
     24          6           0       -1.534567    1.240742   -0.076819
     25          6           0       -0.226304    1.094394   -0.564545
     26          6           0        0.756625    2.076884   -0.440624
     27          8           0        3.686889    0.650990   -2.394139
     28          6           0        2.328230    0.771376   -1.941869
     29          6           0        2.190373    1.846199   -0.864824
     30          6           0        3.049157    1.427090    0.346125
     31          6           0        5.856944   -0.027207   -1.815383
     32          6           0        4.625936    0.500535   -1.415063
     33          6           0        4.390699    0.878720   -0.081272
     34          6           0        5.439463    0.707328    0.830426
     35          6           0        6.671522    0.170550    0.457981
     36          6           0        6.876989   -0.194366   -0.879093
     37          8           0       -5.785122   -1.027126   -1.369867
     38          6           0       -5.819404   -0.789946   -2.791784
     39          8           0       -4.215151    1.367545   -1.167892
     40          6           0       -5.446429    1.840174   -0.602046
     41          8           0       -3.114021    2.609691    1.125683
     42          6           0       -3.118881    2.600207    2.560514
     43          8           0       -1.152389    4.666407    1.296385
     44          6           0       -2.165200    5.486058    0.680501
     45          1           0        3.582553   -2.273075   -0.498252
     46          1           0        1.617652   -3.354508   -1.556050
     47          1           0        1.420070   -2.089671    3.223334
     48          1           0       -0.892462   -3.680904   -1.466031
     49          1           0       -0.654190   -5.109245   -0.467262
     50          1           0       -2.833120   -4.483169    0.079519
     51          1           0       -2.658312   -3.728225    2.466313
     52          1           0       -1.523447   -5.015061    1.993646
     53          1           0       -0.955775   -1.218299    0.581482
     54          1           0        4.344127   -1.257181    1.439017
     55          1           0       -5.612089   -3.032393   -0.986263
     56          1           0        0.819748    5.007398    0.775441
     57          1           0        8.668659   -0.787407   -0.567895
     58          1           0        0.020616    0.154785   -1.044545
     59          1           0        2.009103   -0.206946   -1.564866
     60          1           0        1.747109    1.014254   -2.834003
     61          1           0        2.598077    2.776500   -1.276951
     62          1           0        2.501613    0.661745    0.910957
     63          1           0        3.182517    2.278039    1.022450
     64          1           0        6.010042   -0.311339   -2.851154
     65          1           0        5.285528    1.009385    1.863841
     66          1           0        7.466770    0.048522    1.189006
     67          1           0       -6.864811   -0.884629   -3.092432
     68          1           0       -5.453961    0.213717   -3.026704
     69          1           0       -5.212693   -1.534196   -3.320552
     70          1           0       -5.475303    2.914204   -0.797478
     71          1           0       -6.312630    1.359021   -1.065593
     72          1           0       -5.464553    1.670279    0.477771
     73          1           0       -4.162373    2.713801    2.862559
     74          1           0       -2.730342    1.647135    2.939589
     75          1           0       -2.527177    3.425953    2.968530
     76          1           0       -2.166719    6.429124    1.230817
     77          1           0       -1.920201    5.671790   -0.371601
     78          1           0       -3.145872    5.009468    0.752654
 ---------------------------------------------------------------------
 Rotational constants (GHZ):           0.1054686           0.0549021           0.0422473
 Standard basis: 6-311+G(2d,p) (5D, 7F)
 There are  1480 symmetry adapted cartesian basis functions of A   symmetry.
 There are  1392 symmetry adapted basis functions of A   symmetry.
  1392 basis functions,  2120 primitive gaussians,  1480 cartesian basis functions
   159 alpha electrons      159 beta electrons
       nuclear repulsion energy      5606.2170200695 Hartrees.
 NAtoms=   78 NActive=   78 NUniq=   78 SFac= 1.00D+00 NAtFMM=   60 NAOKFM=T Big=T
 Integral buffers will be    131072 words long.
 Raffenetti 2 integral format.
 Two-electron integral symmetry is turned on.
 ------------------------------------------------------------------------------
 Polarizable Continuum Model (PCM)
 =================================
 Model                : PCM.
 Atomic radii         : SMD-Coulomb.
 Polarization charges : Total charges.
 Charge compensation  : None.
 Solution method      : On-the-fly selection.
 Cavity type          : VdW (van der Waals Surface) (Alpha=1.000).
 Cavity algorithm     : GePol (No added spheres)
                        Default sphere list used, NSphG=   78.
                        Lebedev-Laikov grids with approx.  5.0 points / Ang**2.
                        Smoothing algorithm: York/Karplus (Gamma=1.0000).
                        Polarization charges: spherical gaussians, with
                                              point-specific exponents (IZeta= 3).
                        Self-potential: point-specific (ISelfS= 7).
                        Self-field    : sphere-specific E.n sum rule (ISelfD= 2).
 Solvent              : DiMethylSulfoxide, Eps=  46.826000 Eps(inf)=   2.185371
 ------------------------------------------------------------------------------
 ------------------------------------------------------------------------------
 Atomic radii for non-electrostatic terms: SMD-CDS.
 ------------------------------------------------------------------------------
 Nuclear repulsion after PCM non-electrostatic terms =     5606.2122530030 Hartrees.
 One-electron integrals computed using PRISM.
 NBasis=  1392 RedAO= T EigKep=  1.09D-06  NBF=  1392
 NBsUse=  1378 1.00D-06 EigRej=  9.70D-07 NBFU=  1378
 ExpMin= 4.38D-02 ExpMax= 8.59D+03 ExpMxC= 1.30D+03 IAcc=3 IRadAn=         5 AccDes= 0.00D+00
 Harris functional with IExCor=  908 and IRadAn=       5 diagonalized for initial guess.
 HarFok:  IExCor=  908 AccDes= 0.00D+00 IRadAn=         5 IDoV= 1 UseB2=F ITyADJ=14
 ICtDFT=  3500011 ScaDFX=  1.000000  1.000000  1.000000  1.000000
 FoFCou: FMM=F IPFlag=           0 FMFlag=      100000 FMFlg1=        2001
         NFxFlg=           0 DoJE=T BraDBF=F KetDBF=T FulRan=T
         wScrn=  0.000000 ICntrl=       500 IOpCl=  0 I1Cent=   200000004 NGrid=           0
         NMat0=    1 NMatS0=      1 NMatT0=    0 NMatD0=    1 NMtDS0=    0 NMtDT0=    0
 Petite list used in FoFCou.
 Requested convergence on RMS density matrix=1.00D-08 within 128 cycles.
 Requested convergence on MAX density matrix=1.00D-06.
 Requested convergence on             energy=1.00D-06.
 No special actions if energy rises.
 Inv3:  Mode=1 IEnd=    88552467.
 Iteration    1 A*A^-1 deviation from unit magnitude is 3.55D-15 for   1459.
 Iteration    1 A*A^-1 deviation from orthogonality  is 3.11D-15 for   3268   1510.
 Iteration    1 A^-1*A deviation from unit magnitude is 3.55D-15 for   4040.
 Iteration    1 A^-1*A deviation from orthogonality  is 5.34D-15 for   5413   2843.
 Error on total polarization charges =  0.04687
 SCF Done:  E(RmPW1PW91) =  -2068.41808696     A.U. after   14 cycles
            NFock= 14  Conv=0.33D-08     -V/T= 2.0043
 SMD-CDS (non-electrostatic) energy       (kcal/mol) =      -2.99
 (included in total energy above)
 DoSCS=F DFT=T ScalE2(SS,OS)=  1.000000  1.000000
 Range of M.O.s used for correlation:     1  1378
 NBasis=  1392 NAE=   159 NBE=   159 NFC=     0 NFV=     0
 NROrb=   1378 NOA=   159 NOB=   159 NVA=  1219 NVB=  1219

 **** Warning!!: The largest alpha MO coefficient is  0.95195765D+02

 NEqPCM:  Using equilibrium solvation (IEInf=0, Eps=  46.8260, EpsInf=   2.1854)
          Differentiating once with respect to magnetic field using GIAOs.
          Electric field/nuclear overlap derivatives assumed to be zero.
 FoFJK:  IHMeth= 1 ICntrl=    6127 DoSepK=F KAlg= 0 I1Cent=           0 FoldK=F
 IRaf=         1 NMat=       1 IRICut=       1 DoRegI=T DoRafI=F ISym2E= 0 IDoP0=0 IntGTp=1.
          There are     3 degrees of freedom in the 1st order CPHF.  IDoFFX=0 NUNeed=     3.
      3 vectors produced by pass  0 Test12= 6.46D-12 3.33D-08 XBig12= 3.58D+03 6.87D+00.
 AX will form     3 AO Fock derivatives at one time.
      3 vectors produced by pass  1 Test12= 6.46D-12 3.33D-08 XBig12= 8.95D+00 5.68D-01.
      3 vectors produced by pass  2 Test12= 6.46D-12 3.33D-08 XBig12= 4.39D-02 5.27D-02.
      3 vectors produced by pass  3 Test12= 6.46D-12 3.33D-08 XBig12= 2.16D-04 2.83D-03.
      3 vectors produced by pass  4 Test12= 6.46D-12 3.33D-08 XBig12= 7.38D-07 1.28D-04.
      3 vectors produced by pass  5 Test12= 6.46D-12 3.33D-08 XBig12= 2.76D-09 7.30D-06.
      3 vectors produced by pass  6 Test12= 6.46D-12 3.33D-08 XBig12= 1.28D-11 3.71D-07.
 InvSVY:  IOpt=1 It=  1 EMax= 7.11D-15
 Solved reduced A of dimension    21 with     3 vectors.
 Calculating GIAO nuclear magnetic shielding tensors.
 SCF GIAO Magnetic shielding tensor (ppm):
      1  C    Isotropic =    24.0966   Anisotropy =   144.2650
   XX=   -17.5402   YX=   -60.7749   ZX=   -16.8582
   XY=   -62.9087   YY=    83.1528   ZY=   -40.3632
   XZ=   -18.0580   YZ=   -39.9163   ZZ=     6.6771
   Eigenvalues:   -63.5553    15.5718   120.2733
      2  C    Isotropic =    74.9102   Anisotropy =   132.8351
   XX=    29.6507   YX=   -40.8318   ZX=    44.8647
   XY=   -43.3703   YY=   142.8319   ZY=   -13.4081
   XZ=    37.1610   YZ=   -14.7831   ZZ=    52.2481
   Eigenvalues:    -6.2354    67.4991   163.4669
      3  C    Isotropic =    49.9263   Anisotropy =   171.2414
   XX=    58.3233   YX=   -40.8492   ZX=    15.8796
   XY=   -44.5563   YY=   133.2042   ZY=   -44.7325
   XZ=    10.2780   YZ=   -50.2689   ZZ=   -41.7486
   Eigenvalues:   -53.8592    39.5508   164.0872
      4  C    Isotropic =    66.7841   Anisotropy =   167.1031
   XX=    20.5032   YX=   -64.6313   ZX=    -6.8723
   XY=   -45.1364   YY=   145.6936   ZY=   -52.4183
   XZ=    -4.2643   YZ=   -39.2273   ZZ=    34.1556
   Eigenvalues:   -12.4069    34.5731   178.1862
      5  C    Isotropic =    23.2298   Anisotropy =   143.8440
   XX=   -26.6319   YX=   -42.2930   ZX=    39.3475
   XY=   -43.2735   YY=    96.1241   ZY=   -21.6696
   XZ=    45.7850   YZ=   -20.0427   ZZ=     0.1971
   Eigenvalues:   -61.3976    11.9611   119.1257
      6  C    Isotropic =    81.1824   Anisotropy =   115.9704
   XX=    79.9787   YX=   -28.5789   ZX=    11.7693
   XY=   -24.2182   YY=   135.9229   ZY=   -40.7168
   XZ=     9.4150   YZ=   -36.3690   ZZ=    27.6455
   Eigenvalues:    15.2552    69.7959   158.4960
      7  C    Isotropic =   153.3523   Anisotropy =    14.4006
   XX=   159.8722   YX=   -11.2763   ZX=    -7.5201
   XY=     2.4108   YY=   155.0927   ZY=    -6.3561
   XZ=    -2.6797   YZ=    -0.8502   ZZ=   145.0922
   Eigenvalues:   141.7405   155.3639   162.9527
      8  C    Isotropic =   155.9470   Anisotropy =    18.8278
   XX=   144.0632   YX=    -9.2599   ZX=    -4.4800
   XY=     1.6786   YY=   166.4097   ZY=    -2.4681
   XZ=    -2.1144   YZ=    -6.5650   ZZ=   157.3682
   Eigenvalues:   142.3339   157.0084   168.4989
      9  C    Isotropic =   114.9389   Anisotropy =    50.9397
   XX=   123.7685   YX=    24.2899   ZX=    16.1315
   XY=    22.7934   YY=   116.4309   ZY=     7.3154
   XZ=    16.8599   YZ=    -0.8908   ZZ=   104.6172
   Eigenvalues:    89.8938   106.0242   148.8987
     10  O    Isotropic =   220.2161   Anisotropy =   117.4402
   XX=   203.0062   YX=   -54.4192   ZX=   -36.4755
   XY=   -72.4405   YY=   256.3818   ZY=     0.5278
   XZ=   -55.7795   YZ=   -61.7934   ZZ=   201.2603
   Eigenvalues:   122.1305   240.0082   298.5095
     11  C    Isotropic =    56.1983   Anisotropy =   157.5736
   XX=    35.8896   YX=    -3.6969   ZX=   -48.1062
   XY=     6.4674   YY=    -3.6097   ZY=    18.0207
   XZ=   -60.0539   YZ=    15.6742   ZZ=   136.3151
   Eigenvalues:    -8.0734    15.4210   161.2474
     12  C    Isotropic =    54.1048   Anisotropy =   154.4054
   XX=   -11.2157   YX=    -1.9209   ZX=   -71.6556
   XY=     2.5170   YY=    46.6043   ZY=    16.8430
   XZ=   -60.6499   YZ=    25.9857   ZZ=   126.9258
   Eigenvalues:   -38.6044    43.8772   157.0418
     13  C    Isotropic =    58.4894   Anisotropy =   142.0461
   XX=    37.9079   YX=   -18.8155   ZX=   -38.3441
   XY=   -42.4841   YY=     4.3940   ZY=     9.3055
   XZ=   -46.4332   YZ=    18.0987   ZZ=   133.1662
   Eigenvalues:   -14.5796    36.8609   153.1867
     14  C    Isotropic =    31.2902   Anisotropy =   119.4791
   XX=    17.7146   YX=    10.1943   ZX=   -41.6635
   XY=     1.0025   YY=   -10.2995   ZY=    20.3049
   XZ=   -38.6689   YZ=    43.4561   ZZ=    86.4555
   Eigenvalues:   -28.0610    10.9887   110.9429
     15  C    Isotropic =    42.3767   Anisotropy =   100.5881
   XX=    18.4888   YX=    -6.6893   ZX=   -41.0182
   XY=     3.0587   YY=    21.7884   ZY=    14.8539
   XZ=   -42.7264   YZ=    17.5039   ZZ=    86.8527
   Eigenvalues:    -2.6420    20.3365   109.4354
     16  C    Isotropic =    33.5255   Anisotropy =   126.4538
   XX=    18.1843   YX=   -25.8560   ZX=   -34.7618
   XY=   -26.9018   YY=   -16.0707   ZY=     7.4725
   XZ=   -51.3058   YZ=   -10.3607   ZZ=    98.4630
   Eigenvalues:   -34.6191    17.3676   117.8281
     17  O    Isotropic =   202.0599   Anisotropy =    56.9488
   XX=   208.1613   YX=     9.0856   ZX=    34.5806
   XY=    19.1348   YY=   230.4378   ZY=    -6.4037
   XZ=    28.2114   YZ=     2.1462   ZZ=   167.5805
   Eigenvalues:   149.5513   216.6026   240.0257
     18  O    Isotropic =   231.8933   Anisotropy =   107.3444
   XX=   204.5759   YX=    32.0211   ZX=   -43.5550
   XY=    -0.9308   YY=   204.1871   ZY=    10.2026
   XZ=   -32.6581   YZ=    28.5733   ZZ=   286.9170
   Eigenvalues:   173.7633   218.4605   303.4562
     19  O    Isotropic =   231.4297   Anisotropy =   114.7124
   XX=   198.8639   YX=   -20.9262   ZX=    25.9139
   XY=    26.3166   YY=   226.8522   ZY=   -45.7241
   XZ=    33.8058   YZ=   -56.2127   ZZ=   268.5730
   Eigenvalues:   174.7287   211.6558   307.9046
     20  O    Isotropic =   211.3455   Anisotropy =    64.2213
   XX=   241.3449   YX=   -12.1400   ZX=   -31.1339
   XY=   -10.5519   YY=   227.8552   ZY=    -3.2588
   XZ=   -24.8615   YZ=    -3.5280   ZZ=   164.8362
   Eigenvalues:   155.0507   224.8260   254.1597
     21  C    Isotropic =    33.8897   Anisotropy =   125.4919
   XX=     2.8994   YX=   -32.8297   ZX=    22.5037
   XY=   -37.6127   YY=     2.4989   ZY=   -36.7797
   XZ=    12.3425   YZ=   -40.6542   ZZ=    96.2707
   Eigenvalues:   -34.6295    18.7475   117.5510
     22  C    Isotropic =    41.9939   Anisotropy =   104.4117
   XX=    24.3978   YX=    -3.5508   ZX=    28.1860
   XY=    -5.7910   YY=    19.2687   ZY=   -34.3141
   XZ=    28.8145   YZ=   -48.4014   ZZ=    82.3153
   Eigenvalues:    -4.4955    18.8756   111.6017
     23  C    Isotropic =    31.6203   Anisotropy =   117.1242
   XX=    -3.0304   YX=   -16.2279   ZX=    44.0427
   XY=    -2.6691   YY=    26.9275   ZY=   -37.7971
   XZ=    54.2167   YZ=   -29.3504   ZZ=    70.9638
   Eigenvalues:   -28.4641    13.6219   109.7030
     24  C    Isotropic =    55.9276   Anisotropy =   147.9531
   XX=    26.9687   YX=   -48.2950   ZX=    27.8913
   XY=   -37.4407   YY=    21.0965   ZY=   -42.2042
   XZ=    50.7648   YZ=   -35.3997   ZZ=   119.7175
   Eigenvalues:   -18.9579    32.1777   154.5630
     25  C    Isotropic =    58.5445   Anisotropy =   156.1293
   XX=    56.0159   YX=    11.2291   ZX=    38.4068
   XY=     2.3282   YY=     3.7055   ZY=   -75.3946
   XZ=    51.6208   YZ=   -62.8799   ZZ=   115.9120
   Eigenvalues:   -36.8469    49.8496   162.6306
     26  C    Isotropic =    56.4486   Anisotropy =   160.2901
   XX=     5.5557   YX=    -3.5101   ZX=    46.2790
   XY=   -18.1089   YY=    37.4814   ZY=   -49.2400
   XZ=    42.7530   YZ=   -55.2377   ZZ=   126.3086
   Eigenvalues:   -10.3319    16.3690   163.3086
     27  O    Isotropic =   214.4004   Anisotropy =   107.9299
   XX=   160.6802   YX=    25.0109   ZX=    12.5820
   XY=    42.7762   YY=   258.3480   ZY=   -61.9788
   XZ=    56.0916   YZ=   -19.6624   ZZ=   224.1729
   Eigenvalues:   127.7529   229.0945   286.3536
     28  C    Isotropic =   116.3454   Anisotropy =    62.5585
   XX=   152.8936   YX=     1.8811   ZX=   -22.1600
   XY=    -5.4945   YY=    99.7169   ZY=     1.6058
   XZ=   -12.9777   YZ=     6.3329   ZZ=    96.4255
   Eigenvalues:    90.2290   100.7560   158.0510
     29  C    Isotropic =   152.9453   Anisotropy =    13.8604
   XX=   156.6568   YX=    -1.7707   ZX=    -4.7475
   XY=     7.4344   YY=   148.4342   ZY=    -5.3795
   XZ=    -7.7907   YZ=     3.7058   ZZ=   153.7450
   Eigenvalues:   147.1560   149.4944   162.1856
     30  C    Isotropic =   152.1608   Anisotropy =    24.8783
   XX=   164.9092   YX=    -7.8207   ZX=     6.4507
   XY=    -2.2797   YY=   147.7358   ZY=    -5.8325
   XZ=     4.9198   YZ=    -9.9792   ZZ=   143.8375
   Eigenvalues:   137.5666   150.1695   168.7464
     31  C    Isotropic =    80.1381   Anisotropy =   116.4990
   XX=    78.1427   YX=    29.3357   ZX=     0.6382
   XY=    32.8996   YY=   138.4426   ZY=   -32.8521
   XZ=     0.7968   YZ=   -29.8506   ZZ=    23.8289
   Eigenvalues:    14.5697    68.0404   157.8041
     32  C    Isotropic =    22.5022   Anisotropy =   142.5237
   XX=   -17.8378   YX=    39.1888   ZX=   -40.2231
   XY=    35.7515   YY=   101.3471   ZY=   -13.8582
   XZ=   -46.9086   YZ=   -14.6662   ZZ=   -16.0027
   Eigenvalues:   -62.3907    12.3793   117.5180
     33  C    Isotropic =    65.4578   Anisotropy =   165.6330
   XX=    20.2209   YX=    56.1012   ZX=    10.6899
   XY=    70.2100   YY=   145.5226   ZY=   -23.2715
   XZ=    -6.0379   YZ=   -31.0491   ZZ=    30.6298
   Eigenvalues:   -10.2915    30.7851   175.8798
     34  C    Isotropic =    52.0509   Anisotropy =   170.5673
   XX=    50.2986   YX=    43.0173   ZX=     0.9231
   XY=    41.8411   YY=   139.3134   ZY=   -47.4292
   XZ=     8.6542   YZ=   -49.0616   ZZ=   -33.4594
   Eigenvalues:   -48.5995    38.9897   165.7624
     35  C    Isotropic =    75.9207   Anisotropy =   127.7990
   XX=    39.5176   YX=    35.2407   ZX=   -47.6795
   XY=    34.1641   YY=   144.9901   ZY=   -13.6407
   XZ=   -40.0329   YZ=   -11.7438   ZZ=    43.2543
   Eigenvalues:    -4.4407    71.0827   161.1200
     36  C    Isotropic =    23.6098   Anisotropy =   140.6058
   XX=   -32.5651   YX=    58.5130   ZX=    10.8846
   XY=    58.2713   YY=    89.9544   ZY=   -25.9168
   XZ=    14.3839   YZ=   -27.6543   ZZ=    13.4401
   Eigenvalues:   -62.3363    15.8187   117.3470
     37  O    Isotropic =   281.1629   Anisotropy =    87.8330
   XX=   313.5543   YX=     3.4436   ZX=   -24.5677
   XY=     4.7574   YY=   227.0699   ZY=    32.9413
   XZ=   -36.0549   YZ=     4.4612   ZZ=   302.8645
   Eigenvalues:   221.2766   282.4939   339.7182
     38  C    Isotropic =   126.8134   Anisotropy =    91.1282
   XX=   102.9540   YX=    -1.8438   ZX=     7.2559
   XY=    -6.2874   YY=    92.3731   ZY=   -13.6083
   XZ=    10.7148   YZ=    -9.3885   ZZ=   185.1131
   Eigenvalues:    90.2332   102.6415   187.5655
     39  O    Isotropic =   253.8296   Anisotropy =   111.8320
   XX=   182.9757   YX=    13.7366   ZX=   -13.3268
   XY=   -10.3140   YY=   263.2907   ZY=   -10.9443
   XZ=   -43.7664   YZ=   -32.7372   ZZ=   315.2223
   Eigenvalues:   176.9861   256.1183   328.3843
     40  C    Isotropic =   126.2749   Anisotropy =    86.3807
   XX=   156.0538   YX=   -32.4098   ZX=   -30.1472
   XY=   -28.2997   YY=   109.6801   ZY=    13.7652
   XZ=   -26.4668   YZ=     7.4355   ZZ=   113.0906
   Eigenvalues:    93.5001   101.4625   183.8620
     41  O    Isotropic =   261.9813   Anisotropy =    95.9929
   XX=   298.1314   YX=   -13.5742   ZX=    21.0652
   XY=   -21.5336   YY=   223.4282   ZY=   -56.9367
   XZ=    31.4047   YZ=   -26.1470   ZZ=   264.3845
   Eigenvalues:   197.5790   262.3884   325.9766
     42  C    Isotropic =   127.6320   Anisotropy =    89.1688
   XX=   100.2345   YX=    -2.2716   ZX=    -5.4158
   XY=    -2.4988   YY=    96.2092   ZY=    -0.4516
   XZ=    -9.1060   YZ=    -2.5507   ZZ=   186.4521
   Eigenvalues:    94.8740   100.9440   187.0778
     43  O    Isotropic =   277.4088   Anisotropy =    95.4253
   XX=   217.0322   YX=    15.8978   ZX=    19.6424
   XY=   -15.0548   YY=   281.0880   ZY=    -4.1515
   XZ=    38.9095   YZ=     5.2611   ZZ=   334.1063
   Eigenvalues:   210.1184   281.0824   341.0257
     44  C    Isotropic =   126.3594   Anisotropy =    92.7808
   XX=   133.8192   YX=   -44.0386   ZX=    25.5628
   XY=   -38.2323   YY=   132.0066   ZY=   -21.5859
   XZ=    25.3962   YZ=   -19.4206   ZZ=   113.2524
   Eigenvalues:    90.7469   100.1180   188.2133
     45  H    Isotropic =    25.7711   Anisotropy =     6.5810
   XX=    25.9846   YX=     2.4519   ZX=     0.7684
   XY=     4.0702   YY=    27.3019   ZY=     2.2593
   XZ=    -0.4535   YZ=     0.2444   ZZ=    24.0267
   Eigenvalues:    22.8662    24.2886    30.1584
     46  H    Isotropic =    24.2886   Anisotropy =     7.9639
   XX=    28.0031   YX=     2.5768   ZX=    -1.0300
   XY=     3.4744   YY=    23.5627   ZY=     0.6781
   XZ=    -1.4047   YZ=     0.9924   ZZ=    21.3000
   Eigenvalues:    20.2846    22.9833    29.5979
     47  H    Isotropic =    25.1945   Anisotropy =     5.8890
   XX=    28.1043   YX=     2.2976   ZX=     0.0119
   XY=     2.7446   YY=    22.8655   ZY=    -0.9085
   XZ=     0.7639   YZ=    -1.1442   ZZ=    24.6138
   Eigenvalues:    21.4670    24.9961    29.1205
     48  H    Isotropic =    29.0509   Anisotropy =     5.0330
   XX=    29.8423   YX=     0.2933   ZX=     0.1048
   XY=    -0.2602   YY=    25.3000   ZY=    -0.8476
   XZ=    -1.9456   YZ=     2.2228   ZZ=    32.0105
   Eigenvalues:    25.2277    29.5189    32.4063
     49  H    Isotropic =    28.3161   Anisotropy =    10.1036
   XX=    27.3276   YX=    -1.3037   ZX=    -0.3474
   XY=     1.3115   YY=    33.9349   ZY=     3.7888
   XZ=    -1.6497   YZ=     3.2977   ZZ=    23.6859
   Eigenvalues:    22.3953    27.5012    35.0518
     50  H    Isotropic =    27.8885   Anisotropy =     9.8429
   XX=    31.9224   YX=     1.3715   ZX=     3.6199
   XY=     3.7748   YY=    29.2000   ZY=     1.3988
   XZ=     3.1281   YZ=     0.5612   ZZ=    22.5433
   Eigenvalues:    21.4528    27.7624    34.4505
     51  H    Isotropic =    27.4390   Anisotropy =     7.0977
   XX=    29.6780   YX=     2.5603   ZX=    -2.7561
   XY=     2.8463   YY=    23.6939   ZY=    -0.6636
   XZ=    -0.6450   YZ=    -2.4171   ZZ=    28.9450
   Eigenvalues:    22.5367    27.6094    32.1708
     52  H    Isotropic =    27.1906   Anisotropy =     9.5930
   XX=    24.4249   YX=     3.5582   ZX=     1.5390
   XY=     2.8601   YY=    31.3655   ZY=    -3.4192
   XZ=     1.3805   YZ=    -3.3657   ZZ=    25.7814
   Eigenvalues:    21.3861    26.5997    33.5859
     53  H    Isotropic =    24.7887   Anisotropy =    13.6665
   XX=    24.1951   YX=    -0.8342   ZX=     0.0991
   XY=    -3.6798   YY=    32.7160   ZY=    -0.9733
   XZ=     1.7995   YZ=    -5.1495   ZZ=    17.4551
   Eigenvalues:    16.8277    23.6388    33.8997
     54  H    Isotropic =    27.6084   Anisotropy =    20.7430
   XX=    31.4770   YX=     6.7980   ZX=    -6.8070
   XY=     9.5521   YY=    24.7476   ZY=    -8.6296
   XZ=    -4.2901   YZ=    -3.9152   ZZ=    26.6006
   Eigenvalues:    18.3234    23.0647    41.4371
     55  H    Isotropic =    25.3225   Anisotropy =    14.9630
   XX=    30.7496   YX=    -3.4269   ZX=     6.5528
   XY=    -1.7072   YY=    28.0445   ZY=    -2.7879
   XZ=     6.3140   YZ=    -4.4252   ZZ=    17.1733
   Eigenvalues:    14.1711    26.4985    35.2978
     56  H    Isotropic =    25.4909   Anisotropy =    15.7265
   XX=    29.4761   YX=    -1.7277   ZX=    -5.0664
   XY=    -4.0827   YY=    29.1211   ZY=     7.1886
   XZ=    -5.0012   YZ=     6.0753   ZZ=    17.8754
   Eigenvalues:    14.0158    26.4816    35.9752
     57  H    Isotropic =    26.8958   Anisotropy =    13.6743
   XX=    32.0638   YX=    -3.0594   ZX=     6.0326
   XY=    -3.7041   YY=    19.7951   ZY=    -0.0892
   XZ=     3.7617   YZ=     0.7900   ZZ=    28.8285
   Eigenvalues:    18.6440    26.0314    36.0120
     58  H    Isotropic =    25.3480   Anisotropy =    12.7400
   XX=    32.0327   YX=     3.0249   ZX=    -1.1754
   XY=     2.3272   YY=    24.5720   ZY=    -1.9177
   XZ=    -5.3533   YZ=    -1.8665   ZZ=    19.4392
   Eigenvalues:    18.3819    23.8207    33.8413
     59  H    Isotropic =    27.4050   Anisotropy =     9.6109
   XX=    29.9938   YX=     2.7111   ZX=    -2.0546
   XY=     3.7128   YY=    30.0849   ZY=    -1.0322
   XZ=    -3.1472   YZ=    -0.9671   ZZ=    22.1365
   Eigenvalues:    21.3534    27.0494    33.8123
     60  H    Isotropic =    27.4384   Anisotropy =     3.6858
   XX=    29.4769   YX=    -1.1612   ZX=     1.8957
   XY=    -0.2629   YY=    23.0441   ZY=    -0.7984
   XZ=    -1.4845   YZ=     1.4029   ZZ=    29.7943
   Eigenvalues:    22.9510    29.4687    29.8956
     61  H    Isotropic =    28.2105   Anisotropy =     7.8710
   XX=    25.8513   YX=    -0.1074   ZX=    -1.8617
   XY=    -0.8786   YY=    33.1129   ZY=    -1.5818
   XZ=    -3.0915   YZ=    -1.6965   ZZ=    25.6673
   Eigenvalues:    23.0480    28.1256    33.4579
     62  H    Isotropic =    29.5979   Anisotropy =     6.4909
   XX=    30.7030   YX=    -1.4913   ZX=    -1.8704
   XY=     1.7653   YY=    31.1306   ZY=    -3.6735
   XZ=     0.0535   YZ=    -4.9001   ZZ=    26.9600
   Eigenvalues:    24.2029    30.6655    33.9252
     63  H    Isotropic =    28.5285   Anisotropy =     6.6710
   XX=    28.4697   YX=    -1.6272   ZX=     2.2398
   XY=    -2.8995   YY=    30.0444   ZY=     4.9386
   XZ=     4.5008   YZ=     3.3756   ZZ=    27.0712
   Eigenvalues:    21.7068    30.9028    32.9758
     64  H    Isotropic =    24.7631   Anisotropy =     6.3824
   XX=    28.4793   YX=    -1.9556   ZX=     0.2105
   XY=    -1.9874   YY=    21.8034   ZY=     0.3007
   XZ=    -0.0374   YZ=     0.2805   ZZ=    24.0067
   Eigenvalues:    21.2316    24.0398    29.0181
     65  H    Isotropic =    24.2185   Anisotropy =     7.1156
   XX=    28.3175   YX=    -0.6501   ZX=     2.3791
   XY=    -0.4670   YY=    22.2191   ZY=     0.7043
   XZ=     1.7515   YZ=     0.4844   ZZ=    22.1189
   Eigenvalues:    21.0361    22.6572    28.9622
     66  H    Isotropic =    24.8341   Anisotropy =     4.5818
   XX=    26.9580   YX=    -1.3656   ZX=    -1.3256
   XY=    -1.2878   YY=    21.8875   ZY=     1.3922
   XZ=    -0.2895   YZ=     1.3224   ZZ=    25.6566
   Eigenvalues:    21.2594    25.3542    27.8886
     67  H    Isotropic =    27.7042   Anisotropy =    10.3736
   XX=    28.8945   YX=     0.6569   ZX=     3.2546
   XY=    -0.1931   YY=    24.4998   ZY=    -0.3161
   XZ=     7.3402   YZ=    -0.0116   ZZ=    29.7184
   Eigenvalues:    23.8677    24.6250    34.6200
     68  H    Isotropic =    27.3613   Anisotropy =     7.7806
   XX=    23.6012   YX=     1.5656   ZX=     1.7390
   XY=     1.5253   YY=    27.3037   ZY=    -0.4342
   XZ=     3.6608   YZ=    -3.8216   ZZ=    31.1791
   Eigenvalues:    21.8721    27.6635    32.5484
     69  H    Isotropic =    28.2520   Anisotropy =     9.3372
   XX=    24.4706   YX=    -1.0734   ZX=     0.1974
   XY=    -0.3720   YY=    26.4209   ZY=     0.8373
   XZ=     0.8342   YZ=     3.5673   ZZ=    33.8646
   Eigenvalues:    24.0654    26.2138    34.4768
     70  H    Isotropic =    27.7291   Anisotropy =     9.1679
   XX=    29.5219   YX=    -4.7814   ZX=     1.1377
   XY=    -2.7410   YY=    30.5653   ZY=     0.1222
   XZ=     1.1639   YZ=     1.7615   ZZ=    23.1001
   Eigenvalues:    22.5088    26.8374    33.8410
     71  H    Isotropic =    27.0413   Anisotropy =     8.1774
   XX=    32.1519   YX=    -0.2879   ZX=     2.1521
   XY=    -2.3418   YY=    27.1085   ZY=     1.7375
   XZ=    -0.1050   YZ=     3.0712   ZZ=    21.8634
   Eigenvalues:    20.7470    27.8839    32.4929
     72  H    Isotropic =    27.9943   Anisotropy =     6.9814
   XX=    30.5051   YX=    -0.5497   ZX=    -3.0575
   XY=    -1.0525   YY=    25.5092   ZY=     3.5363
   XZ=    -0.7210   YZ=     4.1337   ZZ=    27.9684
   Eigenvalues:    22.6819    28.6524    32.6485
     73  H    Isotropic =    27.8803   Anisotropy =     9.5629
   XX=    28.0323   YX=    -0.5199   ZX=    -2.4970
   XY=     0.0866   YY=    24.8329   ZY=     1.0439
   XZ=    -6.2347   YZ=     2.6149   ZZ=    30.7756
   Eigenvalues:    23.7880    25.5973    34.2555
     74  H    Isotropic =    28.5560   Anisotropy =     7.9034
   XX=    23.9002   YX=    -1.2489   ZX=    -0.4587
   XY=     0.0049   YY=    28.4571   ZY=    -0.9160
   XZ=    -0.3098   YZ=    -2.3948   ZZ=    33.3106
   Eigenvalues:    23.7767    28.0663    33.8249
     75  H    Isotropic =    27.4471   Anisotropy =     8.3535
   XX=    23.9301   YX=     1.9355   ZX=    -0.7455
   XY=     2.7913   YY=    26.4927   ZY=     0.4692
   XZ=    -1.0787   YZ=     4.8816   ZZ=    31.9185
   Eigenvalues:    22.0261    27.2991    33.0161
     76  H    Isotropic =    27.6031   Anisotropy =    10.2296
   XX=    26.4742   YX=    -4.3894   ZX=    -0.7153
   XY=    -2.3649   YY=    32.8996   ZY=     2.3637
   XZ=     0.9478   YZ=    -0.2954   ZZ=    23.4353
   Eigenvalues:    23.2156    25.1709    34.4228
     77  H    Isotropic =    28.1370   Anisotropy =     9.6275
   XX=    27.0361   YX=    -2.5779   ZX=     2.8158
   XY=    -1.8460   YY=    29.4543   ZY=    -4.5095
   XZ=     0.7912   YZ=    -4.9369   ZZ=    27.9207
   Eigenvalues:    23.9009    25.9548    34.5554
     78  H    Isotropic =    26.8180   Anisotropy =     7.5766
   XX=    30.3906   YX=    -0.2894   ZX=     0.1951
   XY=    -2.8851   YY=    29.3121   ZY=    -0.6320
   XZ=     2.8128   YZ=    -1.8585   ZZ=    20.7514
   Eigenvalues:    20.4078    28.1772    31.8691
 End of Minotr F.D. properties file   721 does not exist.
 End of Minotr F.D. properties file   722 does not exist.
 End of Minotr F.D. properties file   788 does not exist.

 **********************************************************************

            Population analysis using the SCF Density.

 **********************************************************************

 Orbital symmetries:
       Occupied  (A) (A) (A) (A) (A) (A) (A) (A) (A) (A) (A) (A)
                 (A) (A) (A) (A) (A) (A) (A) (A) (A) (A) (A) (A)
                 (A) (A) (A) (A) (A) (A) (A) (A) (A) (A) (A) (A)
                 (A) (A) (A) (A) (A) (A) (A) (A) (A) (A) (A) (A)
                 (A) (A) (A) (A) (A) (A) (A) (A) (A) (A) (A) (A)
                 (A) (A) (A) (A) (A) (A) (A) (A) (A) (A) (A) (A)
                 (A) (A) (A) (A) (A) (A) (A) (A) (A) (A) (A) (A)
                 (A) (A) (A) (A) (A) (A) (A) (A) (A) (A) (A) (A)
                 (A) (A) (A) (A) (A) (A) (A) (A) (A) (A) (A) (A)
                 (A) (A) (A) (A) (A) (A) (A) (A) (A) (A) (A) (A)
                 (A) (A) (A) (A) (A) (A) (A) (A) (A) (A) (A) (A)
                 (A) (A) (A) (A) (A) (A) (A) (A) (A) (A) (A) (A)
                 (A) (A) (A) (A) (A) (A) (A) (A) (A) (A) (A) (A)
                 (A) (A) (A)
       Virtual   (A) (A) (A) (A) (A) (A) (A) (A) (A) (A) (A) (A)
                 (A) (A) (A) (A) (A) (A) (A) (A) (A) (A) (A) (A)
                 (A) (A) (A) (A) (A) (A) (A) (A) (A) (A) (A) (A)
                 (A) (A) (A) (A) (A) (A) (A) (A) (A) (A) (A) (A)
                 (A) (A) (A) (A) (A) (A) (A) (A) (A) (A) (A) (A)
                 (A) (A) (A) (A) (A) (A) (A) (A) (A) (A) (A) (A)
                 (A) (A) (A) (A) (A) (A) (A) (A) (A) (A) (A) (A)
                 (A) (A) (A) (A) (A) (A) (A) (A) (A) (A) (A) (A)
                 (A) (A) (A) (A) (A) (A) (A) (A) (A) (A) (A) (A)
                 (A) (A) (A) (A) (A) (A) (A) (A) (A) (A) (A) (A)
                 (A) (A) (A) (A) (A) (A) (A) (A) (A) (A) (A) (A)
                 (A) (A) (A) (A) (A) (A) (A) (A) (A) (A) (A) (A)
                 (A) (A) (A) (A) (A) (A) (A) (A) (A) (A) (A) (A)
                 (A) (A) (A) (A) (A) (A) (A) (A) (A) (A) (A) (A)
                 (A) (A) (A) (A) (A) (A) (A) (A) (A) (A) (A) (A)
                 (A) (A) (A) (A) (A) (A) (A) (A) (A) (A) (A) (A)
                 (A) (A) (A) (A) (A) (A) (A) (A) (A) (A) (A) (A)
                 (A) (A) (A) (A) (A) (A) (A) (A) (A) (A) (A) (A)
                 (A) (A) (A) (A) (A) (A) (A) (A) (A) (A) (A) (A)
                 (A) (A) (A) (A) (A) (A) (A) (A) (A) (A) (A) (A)
                 (A) (A) (A) (A) (A) (A) (A) (A) (A) (A) (A) (A)
                 (A) (A) (A) (A) (A) (A) (A) (A) (A) (A) (A) (A)
                 (A) (A) (A) (A) (A) (A) (A) (A) (A) (A) (A) (A)
                 (A) (A) (A) (A) (A) (A) (A) (A) (A) (A) (A) (A)
                 (A) (A) (A) (A) (A) (A) (A) (A) (A) (A) (A) (A)
                 (A) (A) (A) (A) (A) (A) (A) (A) (A) (A) (A) (A)
                 (A) (A) (A) (A) (A) (A) (A) (A) (A) (A) (A) (A)
                 (A) (A) (A) (A) (A) (A) (A) (A) (A) (A) (A) (A)
                 (A) (A) (A) (A) (A) (A) (A) (A) (A) (A) (A) (A)
                 (A) (A) (A) (A) (A) (A) (A) (A) (A) (A) (A) (A)
                 (A) (A) (A) (A) (A) (A) (A) (A) (A) (A) (A) (A)
                 (A) (A) (A) (A) (A) (A) (A) (A) (A) (A) (A) (A)
                 (A) (A) (A) (A) (A) (A) (A) (A) (A) (A) (A) (A)
                 (A) (A) (A) (A) (A) (A) (A) (A) (A) (A) (A) (A)
                 (A) (A) (A) (A) (A) (A) (A) (A) (A) (A) (A) (A)
                 (A) (A) (A) (A) (A) (A) (A) (A) (A) (A) (A) (A)
                 (A) (A) (A) (A) (A) (A) (A) (A) (A) (A) (A) (A)
                 (A) (A) (A) (A) (A) (A) (A) (A) (A) (A) (A) (A)
                 (A) (A) (A) (A) (A) (A) (A) (A) (A) (A) (A) (A)
                 (A) (A) (A) (A) (A) (A) (A) (A) (A) (A) (A) (A)
                 (A) (A) (A) (A) (A) (A) (A) (A) (A) (A) (A) (A)
                 (A) (A) (A) (A) (A) (A) (A) (A) (A) (A) (A) (A)
                 (A) (A) (A) (A) (A) (A) (A) (A) (A) (A) (A) (A)
                 (A) (A) (A) (A) (A) (A) (A) (A) (A) (A) (A) (A)
                 (A) (A) (A) (A) (A) (A) (A) (A) (A) (A) (A) (A)
                 (A) (A) (A) (A) (A) (A) (A) (A) (A) (A) (A) (A)
                 (A) (A) (A) (A) (A) (A) (A) (A) (A) (A) (A) (A)
                 (A) (A) (A) (A) (A) (A) (A) (A) (A) (A) (A) (A)
                 (A) (A) (A) (A) (A) (A) (A) (A) (A) (A) (A) (A)
                 (A) (A) (A) (A) (A) (A) (A) (A) (A) (A) (A) (A)
                 (A) (A) (A) (A) (A) (A) (A) (A) (A) (A) (A) (A)
                 (A) (A) (A) (A) (A) (A) (A) (A) (A) (A) (A) (A)
                 (A) (A) (A) (A) (A) (A) (A) (A) (A) (A) (A) (A)
                 (A) (A) (A) (A) (A) (A) (A) (A) (A) (A) (A) (A)
                 (A) (A) (A) (A) (A) (A) (A) (A) (A) (A) (A) (A)
                 (A) (A) (A) (A) (A) (A) (A) (A) (A) (A) (A) (A)
                 (A) (A) (A) (A) (A) (A) (A) (A) (A) (A) (A) (A)
                 (A) (A) (A) (A) (A) (A) (A) (A) (A) (A) (A) (A)
                 (A) (A) (A) (A) (A) (A) (A) (A) (A) (A) (A) (A)
                 (A) (A) (A) (A) (A) (A) (A) (A) (A) (A) (A) (A)
                 (A) (A) (A) (A) (A) (A) (A) (A) (A) (A) (A) (A)
                 (A) (A) (A) (A) (A) (A) (A) (A) (A) (A) (A) (A)
                 (A) (A) (A) (A) (A) (A) (A) (A) (A) (A) (A) (A)
                 (A) (A) (A) (A) (A) (A) (A) (A) (A) (A) (A) (A)
                 (A) (A) (A) (A) (A) (A) (A) (A) (A) (A) (A) (A)
                 (A) (A) (A) (A) (A) (A) (A) (A) (A) (A) (A) (A)
                 (A) (A) (A) (A) (A) (A) (A) (A) (A) (A) (A) (A)
                 (A) (A) (A) (A) (A) (A) (A) (A) (A) (A) (A) (A)
                 (A) (A) (A) (A) (A) (A) (A) (A) (A) (A) (A) (A)
                 (A) (A) (A) (A) (A) (A) (A) (A) (A) (A) (A) (A)
                 (A) (A) (A) (A) (A) (A) (A) (A) (A) (A) (A) (A)
                 (A) (A) (A) (A) (A) (A) (A) (A) (A) (A) (A) (A)
                 (A) (A) (A) (A) (A) (A) (A) (A) (A) (A) (A) (A)
                 (A) (A) (A) (A) (A) (A) (A) (A) (A) (A) (A) (A)
                 (A) (A) (A) (A) (A) (A) (A) (A) (A) (A) (A) (A)
                 (A) (A) (A) (A) (A) (A) (A) (A) (A) (A) (A) (A)
                 (A) (A) (A) (A) (A) (A) (A) (A) (A) (A) (A) (A)
                 (A) (A) (A) (A) (A) (A) (A) (A) (A) (A) (A) (A)
                 (A) (A) (A) (A) (A) (A) (A) (A) (A) (A) (A) (A)
                 (A) (A) (A) (A) (A) (A) (A) (A) (A) (A) (A) (A)
                 (A) (A) (A) (A) (A) (A) (A) (A) (A) (A) (A) (A)
                 (A) (A) (A) (A) (A) (A) (A) (A) (A) (A) (A) (A)
                 (A) (A) (A) (A) (A) (A) (A) (A) (A) (A) (A) (A)
                 (A) (A) (A) (A) (A) (A) (A) (A) (A) (A) (A) (A)
                 (A) (A) (A) (A) (A) (A) (A) (A) (A) (A) (A) (A)
                 (A) (A) (A) (A) (A) (A) (A) (A) (A) (A) (A) (A)
                 (A) (A) (A) (A) (A) (A) (A) (A) (A) (A) (A) (A)
                 (A) (A) (A) (A) (A) (A) (A) (A) (A) (A) (A) (A)
                 (A) (A) (A) (A) (A) (A) (A) (A) (A) (A) (A) (A)
                 (A) (A) (A) (A) (A) (A) (A) (A) (A) (A) (A) (A)
                 (A) (A) (A) (A) (A) (A) (A) (A) (A) (A) (A) (A)
                 (A) (A) (A) (A) (A) (A) (A) (A) (A) (A) (A) (A)
                 (A) (A) (A) (A) (A) (A) (A) (A) (A) (A) (A) (A)
                 (A) (A) (A) (A) (A) (A) (A) (A) (A) (A) (A) (A)
                 (A) (A) (A) (A) (A) (A) (A) (A) (A) (A) (A) (A)
                 (A) (A) (A) (A) (A) (A) (A) (A) (A) (A) (A) (A)
                 (A) (A) (A) (A) (A) (A) (A) (A) (A) (A) (A) (A)
                 (A) (A) (A) (A) (A) (A) (A) (A) (A) (A) (A) (A)
                 (A) (A) (A) (A) (A) (A) (A) (A) (A) (A) (A) (A)
                 (A) (A) (A) (A) (A) (A) (A) (A) (A) (A) (A) (A)
                 (A) (A) (A) (A) (A) (A) (A) (A) (A) (A) (A) (A)
                 (A) (A) (A) (A) (A) (A) (A)
 The electronic state is 1-A.
 Alpha  occ. eigenvalues --  -19.25123 -19.25093 -19.25015 -19.24966 -19.24956
 Alpha  occ. eigenvalues --  -19.24701 -19.24650 -19.24435 -19.23751 -19.23601
 Alpha  occ. eigenvalues --  -10.30389 -10.30063 -10.30037 -10.30015 -10.30001
 Alpha  occ. eigenvalues --  -10.29792 -10.29762 -10.29626 -10.29269 -10.29072
 Alpha  occ. eigenvalues --  -10.28167 -10.28029 -10.27370 -10.27280 -10.26927
 Alpha  occ. eigenvalues --  -10.26619 -10.24744 -10.24668 -10.24612 -10.24576
 Alpha  occ. eigenvalues --  -10.24553 -10.24330 -10.24315 -10.24251 -10.23943
 Alpha  occ. eigenvalues --  -10.23883 -10.23670 -10.23472 -10.23463 -10.23410
 Alpha  occ. eigenvalues --  -10.23400 -10.23222 -10.22997 -10.22891  -1.11062
 Alpha  occ. eigenvalues --   -1.11010  -1.09670  -1.09477  -1.09397  -1.08934
 Alpha  occ. eigenvalues --   -1.08810  -1.08565  -1.07276  -1.07021  -0.89669
 Alpha  occ. eigenvalues --   -0.88322  -0.88061  -0.87793  -0.84377  -0.83506
 Alpha  occ. eigenvalues --   -0.79873  -0.78695  -0.78208  -0.77854  -0.77735
 Alpha  occ. eigenvalues --   -0.75787  -0.75643  -0.75132  -0.72620  -0.71326
 Alpha  occ. eigenvalues --   -0.69787  -0.69712  -0.68908  -0.68567  -0.66309
 Alpha  occ. eigenvalues --   -0.66219  -0.65515  -0.63589  -0.63248  -0.62045
 Alpha  occ. eigenvalues --   -0.61845  -0.60834  -0.59276  -0.58480  -0.58131
 Alpha  occ. eigenvalues --   -0.56822  -0.55848  -0.55328  -0.54006  -0.53740
 Alpha  occ. eigenvalues --   -0.52251  -0.52060  -0.51792  -0.51018  -0.50783
 Alpha  occ. eigenvalues --   -0.50650  -0.50162  -0.49273  -0.49116  -0.48890
 Alpha  occ. eigenvalues --   -0.48734  -0.47702  -0.47452  -0.46856  -0.46671
 Alpha  occ. eigenvalues --   -0.46533  -0.46172  -0.45472  -0.45116  -0.44966
 Alpha  occ. eigenvalues --   -0.44762  -0.44526  -0.44210  -0.44070  -0.43855
 Alpha  occ. eigenvalues --   -0.43444  -0.43290  -0.42501  -0.42402  -0.42248
 Alpha  occ. eigenvalues --   -0.42017  -0.41343  -0.41191  -0.40874  -0.40601
 Alpha  occ. eigenvalues --   -0.40303  -0.40141  -0.39728  -0.39669  -0.39425
 Alpha  occ. eigenvalues --   -0.38946  -0.37420  -0.37217  -0.36873  -0.36664
 Alpha  occ. eigenvalues --   -0.36530  -0.36414  -0.35175  -0.34792  -0.34674
 Alpha  occ. eigenvalues --   -0.34378  -0.34035  -0.33673  -0.33012  -0.32563
 Alpha  occ. eigenvalues --   -0.32493  -0.31925  -0.31661  -0.31237  -0.28879
 Alpha  occ. eigenvalues --   -0.28603  -0.25143  -0.25028  -0.24732  -0.24557
 Alpha  occ. eigenvalues --   -0.24265  -0.22918  -0.22576  -0.21439
 Alpha virt. eigenvalues --   -0.01782  -0.01521  -0.01126  -0.00721  -0.00655
 Alpha virt. eigenvalues --    0.00158   0.00573   0.00664   0.00896   0.01026
 Alpha virt. eigenvalues --    0.01641   0.01897   0.02205   0.02427   0.02656
 Alpha virt. eigenvalues --    0.02876   0.03087   0.03252   0.03574   0.03850
 Alpha virt. eigenvalues --    0.04129   0.04361   0.04501   0.04688   0.04878
 Alpha virt. eigenvalues --    0.05266   0.05524   0.05600   0.06079   0.06132
 Alpha virt. eigenvalues --    0.06334   0.06835   0.06911   0.07281   0.07371
 Alpha virt. eigenvalues --    0.07619   0.07942   0.08197   0.08703   0.08748
 Alpha virt. eigenvalues --    0.08858   0.09271   0.09474   0.09926   0.10133
 Alpha virt. eigenvalues --    0.10348   0.10445   0.10698   0.10893   0.11274
 Alpha virt. eigenvalues --    0.11590   0.11870   0.11994   0.12194   0.12363
 Alpha virt. eigenvalues --    0.12409   0.12673   0.12809   0.12886   0.13126
 Alpha virt. eigenvalues --    0.13416   0.13501   0.13669   0.13986   0.14183
 Alpha virt. eigenvalues --    0.14306   0.14598   0.14825   0.15102   0.15174
 Alpha virt. eigenvalues --    0.15308   0.15468   0.15710   0.15792   0.15871
 Alpha virt. eigenvalues --    0.16115   0.16204   0.16401   0.16569   0.16750
 Alpha virt. eigenvalues --    0.16787   0.16952   0.17334   0.17486   0.17586
 Alpha virt. eigenvalues --    0.17784   0.18109   0.18201   0.18312   0.18624
 Alpha virt. eigenvalues --    0.18816   0.19016   0.19085   0.19373   0.19412
 Alpha virt. eigenvalues --    0.19440   0.19736   0.19906   0.20078   0.20273
 Alpha virt. eigenvalues --    0.20494   0.20681   0.20759   0.20985   0.21119
 Alpha virt. eigenvalues --    0.21203   0.21329   0.21372   0.21817   0.21847
 Alpha virt. eigenvalues --    0.21963   0.22146   0.22231   0.22304   0.22521
 Alpha virt. eigenvalues --    0.22632   0.22866   0.22973   0.23077   0.23309
 Alpha virt. eigenvalues --    0.23434   0.23656   0.23733   0.24116   0.24230
 Alpha virt. eigenvalues --    0.24340   0.24661   0.24815   0.24830   0.24859
 Alpha virt. eigenvalues --    0.25271   0.25458   0.25537   0.25831   0.25864
 Alpha virt. eigenvalues --    0.26079   0.26166   0.26453   0.26533   0.26673
 Alpha virt. eigenvalues --    0.26893   0.27314   0.27426   0.27540   0.27647
 Alpha virt. eigenvalues --    0.27962   0.28028   0.28291   0.28478   0.28597
 Alpha virt. eigenvalues --    0.28752   0.28957   0.29104   0.29254   0.29271
 Alpha virt. eigenvalues --    0.29563   0.29755   0.29856   0.30044   0.30155
 Alpha virt. eigenvalues --    0.30283   0.30511   0.30569   0.30750   0.30785
 Alpha virt. eigenvalues --    0.31153   0.31334   0.31465   0.31570   0.31658
 Alpha virt. eigenvalues --    0.31945   0.32161   0.32207   0.32503   0.32571
 Alpha virt. eigenvalues --    0.32826   0.33157   0.33193   0.33306   0.33519
 Alpha virt. eigenvalues --    0.33781   0.33958   0.34179   0.34331   0.34606
 Alpha virt. eigenvalues --    0.34899   0.35110   0.35308   0.35455   0.35687
 Alpha virt. eigenvalues --    0.35835   0.35868   0.36046   0.36306   0.36439
 Alpha virt. eigenvalues --    0.36760   0.36937   0.37294   0.37535   0.37820
 Alpha virt. eigenvalues --    0.37970   0.38152   0.38281   0.38430   0.38773
 Alpha virt. eigenvalues --    0.39216   0.39319   0.39411   0.39563   0.39907
 Alpha virt. eigenvalues --    0.40095   0.40319   0.40624   0.40718   0.40764
 Alpha virt. eigenvalues --    0.41125   0.41190   0.41488   0.41554   0.41733
 Alpha virt. eigenvalues --    0.42090   0.42103   0.42515   0.42701   0.42754
 Alpha virt. eigenvalues --    0.43114   0.43196   0.43447   0.43769   0.43898
 Alpha virt. eigenvalues --    0.44378   0.44585   0.44667   0.44912   0.45446
 Alpha virt. eigenvalues --    0.45810   0.46207   0.46791   0.46854   0.47189
 Alpha virt. eigenvalues --    0.47672   0.47812   0.48005   0.48527   0.48705
 Alpha virt. eigenvalues --    0.48966   0.49315   0.49776   0.50210   0.50545
 Alpha virt. eigenvalues --    0.50778   0.51499   0.52086   0.52238   0.52894
 Alpha virt. eigenvalues --    0.52933   0.53644   0.54206   0.54344   0.54442
 Alpha virt. eigenvalues --    0.55214   0.55277   0.55411   0.55798   0.56070
 Alpha virt. eigenvalues --    0.56273   0.56449   0.56989   0.57176   0.57232
 Alpha virt. eigenvalues --    0.57677   0.57818   0.58267   0.58421   0.58614
 Alpha virt. eigenvalues --    0.58981   0.59298   0.59537   0.59743   0.60127
 Alpha virt. eigenvalues --    0.60152   0.60572   0.60707   0.61346   0.61562
 Alpha virt. eigenvalues --    0.61904   0.62017   0.62288   0.62625   0.62779
 Alpha virt. eigenvalues --    0.62980   0.63225   0.63461   0.63678   0.64079
 Alpha virt. eigenvalues --    0.64467   0.64667   0.64902   0.65247   0.65344
 Alpha virt. eigenvalues --    0.65517   0.66126   0.66344   0.66434   0.66823
 Alpha virt. eigenvalues --    0.67175   0.67240   0.67610   0.67714   0.67791
 Alpha virt. eigenvalues --    0.68068   0.68115   0.68410   0.68637   0.68872
 Alpha virt. eigenvalues --    0.69312   0.69468   0.69602   0.69895   0.69945
 Alpha virt. eigenvalues --    0.70346   0.70420   0.70589   0.70643   0.71091
 Alpha virt. eigenvalues --    0.71110   0.71278   0.71743   0.71940   0.72035
 Alpha virt. eigenvalues --    0.72300   0.72539   0.72610   0.73082   0.73317
 Alpha virt. eigenvalues --    0.73694   0.73840   0.74148   0.74322   0.74460
 Alpha virt. eigenvalues --    0.74708   0.74889   0.74979   0.75316   0.75623
 Alpha virt. eigenvalues --    0.75795   0.76095   0.76171   0.76353   0.76510
 Alpha virt. eigenvalues --    0.77214   0.77367   0.77542   0.77711   0.77787
 Alpha virt. eigenvalues --    0.78404   0.78627   0.78759   0.79075   0.79385
 Alpha virt. eigenvalues --    0.79505   0.79591   0.79928   0.80094   0.80133
 Alpha virt. eigenvalues --    0.80339   0.80787   0.81160   0.81297   0.81645
 Alpha virt. eigenvalues --    0.82192   0.82469   0.82627   0.82869   0.83051
 Alpha virt. eigenvalues --    0.83309   0.83525   0.84279   0.84678   0.84891
 Alpha virt. eigenvalues --    0.85010   0.85412   0.85575   0.85675   0.85964
 Alpha virt. eigenvalues --    0.86125   0.86243   0.86862   0.87096   0.87404
 Alpha virt. eigenvalues --    0.87529   0.87693   0.88368   0.88508   0.88715
 Alpha virt. eigenvalues --    0.89247   0.89444   0.89628   0.90356   0.90864
 Alpha virt. eigenvalues --    0.91008   0.91078   0.91464   0.91519   0.91878
 Alpha virt. eigenvalues --    0.91992   0.92542   0.92717   0.93125   0.93639
 Alpha virt. eigenvalues --    0.93847   0.94145   0.94635   0.95024   0.95282
 Alpha virt. eigenvalues --    0.95641   0.95878   0.96860   0.97336   0.97357
 Alpha virt. eigenvalues --    0.97707   0.97823   0.98363   0.98806   0.99214
 Alpha virt. eigenvalues --    0.99647   1.00135   1.00166   1.00829   1.01436
 Alpha virt. eigenvalues --    1.01726   1.02157   1.02735   1.03291   1.03642
 Alpha virt. eigenvalues --    1.04250   1.04549   1.04802   1.05121   1.05358
 Alpha virt. eigenvalues --    1.05885   1.06173   1.06363   1.06772   1.06980
 Alpha virt. eigenvalues --    1.07510   1.07751   1.08238   1.08514   1.08783
 Alpha virt. eigenvalues --    1.09141   1.09466   1.09777   1.09911   1.10739
 Alpha virt. eigenvalues --    1.10962   1.11281   1.11395   1.11812   1.12188
 Alpha virt. eigenvalues --    1.12513   1.12780   1.13141   1.13382   1.13921
 Alpha virt. eigenvalues --    1.14490   1.15068   1.15383   1.15554   1.15733
 Alpha virt. eigenvalues --    1.16006   1.16401   1.16789   1.17031   1.17290
 Alpha virt. eigenvalues --    1.17905   1.18071   1.18162   1.18615   1.18752
 Alpha virt. eigenvalues --    1.19193   1.19367   1.19994   1.20104   1.20400
 Alpha virt. eigenvalues --    1.20568   1.20976   1.21145   1.21676   1.21983
 Alpha virt. eigenvalues --    1.22344   1.22796   1.23113   1.23479   1.23963
 Alpha virt. eigenvalues --    1.24116   1.24442   1.24629   1.24873   1.25550
 Alpha virt. eigenvalues --    1.25748   1.26117   1.26577   1.26780   1.27070
 Alpha virt. eigenvalues --    1.27294   1.28037   1.28455   1.28588   1.28709
 Alpha virt. eigenvalues --    1.29027   1.29710   1.29828   1.30028   1.30528
 Alpha virt. eigenvalues --    1.30667   1.31308   1.31655   1.31960   1.32532
 Alpha virt. eigenvalues --    1.32646   1.33177   1.33731   1.33764   1.34201
 Alpha virt. eigenvalues --    1.34574   1.35065   1.35291   1.35853   1.36070
 Alpha virt. eigenvalues --    1.36424   1.36773   1.37081   1.37365   1.37856
 Alpha virt. eigenvalues --    1.38163   1.38635   1.38724   1.39159   1.39322
 Alpha virt. eigenvalues --    1.39948   1.40433   1.40551   1.41100   1.41366
 Alpha virt. eigenvalues --    1.42045   1.42189   1.42372   1.42463   1.43081
 Alpha virt. eigenvalues --    1.43661   1.44024   1.44982   1.45090   1.45349
 Alpha virt. eigenvalues --    1.45613   1.45885   1.46086   1.46202   1.47160
 Alpha virt. eigenvalues --    1.47575   1.47970   1.48107   1.48598   1.49074
 Alpha virt. eigenvalues --    1.49562   1.49832   1.50017   1.50268   1.51080
 Alpha virt. eigenvalues --    1.51297   1.51422   1.51875   1.52319   1.52785
 Alpha virt. eigenvalues --    1.53123   1.53764   1.54280   1.54697   1.55102
 Alpha virt. eigenvalues --    1.55748   1.56252   1.56577   1.56735   1.56903
 Alpha virt. eigenvalues --    1.57748   1.58560   1.58750   1.59332   1.59424
 Alpha virt. eigenvalues --    1.60280   1.61113   1.61759   1.62460   1.63129
 Alpha virt. eigenvalues --    1.63686   1.63847   1.63967   1.65552   1.65925
 Alpha virt. eigenvalues --    1.66251   1.67087   1.67689   1.68370   1.68792
 Alpha virt. eigenvalues --    1.69517   1.70092   1.71042   1.71353   1.71414
 Alpha virt. eigenvalues --    1.72431   1.72633   1.73182   1.73357   1.73801
 Alpha virt. eigenvalues --    1.74573   1.74798   1.75177   1.75730   1.76046
 Alpha virt. eigenvalues --    1.76201   1.76973   1.77829   1.78384   1.78620
 Alpha virt. eigenvalues --    1.78958   1.78967   1.79674   1.80358   1.80561
 Alpha virt. eigenvalues --    1.81251   1.81425   1.82023   1.83258   1.83588
 Alpha virt. eigenvalues --    1.84342   1.85381   1.85647   1.85751   1.86149
 Alpha virt. eigenvalues --    1.86468   1.87267   1.87550   1.88345   1.89137
 Alpha virt. eigenvalues --    1.89446   1.89758   1.90682   1.91712   1.92048
 Alpha virt. eigenvalues --    1.92542   1.93480   1.93925   1.94523   1.95102
 Alpha virt. eigenvalues --    1.95602   1.96595   1.96733   1.96778   1.97311
 Alpha virt. eigenvalues --    1.98144   1.98515   1.98830   1.99244   1.99738
 Alpha virt. eigenvalues --    2.00129   2.00526   2.01011   2.01857   2.02146
 Alpha virt. eigenvalues --    2.03107   2.03313   2.04018   2.04633   2.04908
 Alpha virt. eigenvalues --    2.05161   2.05829   2.06642   2.06769   2.07163
 Alpha virt. eigenvalues --    2.08175   2.08948   2.09577   2.10040   2.10934
 Alpha virt. eigenvalues --    2.11190   2.11586   2.12099   2.12871   2.13556
 Alpha virt. eigenvalues --    2.14910   2.15082   2.16740   2.17829   2.18441
 Alpha virt. eigenvalues --    2.19347   2.20212   2.21496   2.22497   2.22767
 Alpha virt. eigenvalues --    2.23642   2.23937   2.25526   2.25619   2.26488
 Alpha virt. eigenvalues --    2.26650   2.27313   2.27731   2.27739   2.28631
 Alpha virt. eigenvalues --    2.29092   2.29887   2.30226   2.30572   2.31788
 Alpha virt. eigenvalues --    2.32176   2.32541   2.33024   2.33424   2.33973
 Alpha virt. eigenvalues --    2.34639   2.34913   2.36032   2.36296   2.36858
 Alpha virt. eigenvalues --    2.37670   2.38153   2.39290   2.39556   2.40256
 Alpha virt. eigenvalues --    2.40872   2.41129   2.41588   2.42327   2.42476
 Alpha virt. eigenvalues --    2.42556   2.43115   2.43742   2.44815   2.45186
 Alpha virt. eigenvalues --    2.45595   2.46002   2.46642   2.46998   2.47188
 Alpha virt. eigenvalues --    2.48077   2.48382   2.48699   2.48837   2.49230
 Alpha virt. eigenvalues --    2.50391   2.50500   2.51626   2.51843   2.52830
 Alpha virt. eigenvalues --    2.54217   2.55621   2.56238   2.56759   2.57682
 Alpha virt. eigenvalues --    2.57925   2.58775   2.58943   2.60102   2.61220
 Alpha virt. eigenvalues --    2.62593   2.63067   2.64306   2.64988   2.65458
 Alpha virt. eigenvalues --    2.66017   2.66780   2.68019   2.69411   2.69727
 Alpha virt. eigenvalues --    2.70249   2.70762   2.71926   2.72578   2.73150
 Alpha virt. eigenvalues --    2.73525   2.75203   2.75393   2.76155   2.76419
 Alpha virt. eigenvalues --    2.77615   2.77721   2.78854   2.79286   2.79544
 Alpha virt. eigenvalues --    2.81554   2.81926   2.82102   2.82325   2.82934
 Alpha virt. eigenvalues --    2.83949   2.85031   2.85731   2.86567   2.88182
 Alpha virt. eigenvalues --    2.88527   2.88791   2.89662   2.90026   2.91540
 Alpha virt. eigenvalues --    2.91880   2.92161   2.93493   2.94537   2.94739
 Alpha virt. eigenvalues --    2.95664   2.96295   2.96481   2.97314   2.97746
 Alpha virt. eigenvalues --    2.98405   2.99076   2.99600   3.00611   3.01144
 Alpha virt. eigenvalues --    3.01715   3.01884   3.02229   3.02829   3.03307
 Alpha virt. eigenvalues --    3.03639   3.04283   3.04811   3.05035   3.05599
 Alpha virt. eigenvalues --    3.06108   3.06429   3.06827   3.07279   3.07954
 Alpha virt. eigenvalues --    3.08472   3.09107   3.09491   3.10516   3.11004
 Alpha virt. eigenvalues --    3.11448   3.12381   3.13046   3.13237   3.14707
 Alpha virt. eigenvalues --    3.15086   3.15973   3.16899   3.17254   3.17993
 Alpha virt. eigenvalues --    3.19021   3.19678   3.20221   3.20603   3.21375
 Alpha virt. eigenvalues --    3.22050   3.22996   3.23439   3.23962   3.24606
 Alpha virt. eigenvalues --    3.25034   3.25180   3.25826   3.26822   3.27353
 Alpha virt. eigenvalues --    3.27815   3.28154   3.28713   3.29545   3.29812
 Alpha virt. eigenvalues --    3.30660   3.31432   3.32237   3.32703   3.33007
 Alpha virt. eigenvalues --    3.34107   3.34275   3.34535   3.34985   3.35737
 Alpha virt. eigenvalues --    3.36227   3.36593   3.37126   3.38275   3.38793
 Alpha virt. eigenvalues --    3.39066   3.39132   3.39422   3.40261   3.40587
 Alpha virt. eigenvalues --    3.41110   3.41394   3.41573   3.42276   3.42480
 Alpha virt. eigenvalues --    3.42750   3.43047   3.43356   3.43593   3.44686
 Alpha virt. eigenvalues --    3.44830   3.45180   3.45594   3.46243   3.47035
 Alpha virt. eigenvalues --    3.47496   3.47818   3.48258   3.48882   3.49087
 Alpha virt. eigenvalues --    3.49696   3.50247   3.50900   3.51169   3.51420
 Alpha virt. eigenvalues --    3.51707   3.52352   3.52426   3.52767   3.52889
 Alpha virt. eigenvalues --    3.53224   3.54086   3.54602   3.55262   3.55560
 Alpha virt. eigenvalues --    3.55893   3.56142   3.56375   3.56690   3.57752
 Alpha virt. eigenvalues --    3.57907   3.58295   3.59146   3.59214   3.59982
 Alpha virt. eigenvalues --    3.60418   3.60607   3.61146   3.61629   3.62051
 Alpha virt. eigenvalues --    3.62987   3.63094   3.63652   3.63756   3.64044
 Alpha virt. eigenvalues --    3.64587   3.64996   3.65324   3.65761   3.65867
 Alpha virt. eigenvalues --    3.66089   3.66392   3.66896   3.68097   3.68105
 Alpha virt. eigenvalues --    3.68193   3.68383   3.69001   3.69186   3.69400
 Alpha virt. eigenvalues --    3.70373   3.70910   3.71353   3.71677   3.71883
 Alpha virt. eigenvalues --    3.72301   3.72873   3.73344   3.73469   3.74362
 Alpha virt. eigenvalues --    3.74584   3.75198   3.75703   3.76117   3.76839
 Alpha virt. eigenvalues --    3.77202   3.77922   3.78199   3.78776   3.79162
 Alpha virt. eigenvalues --    3.79940   3.80111   3.80977   3.81384   3.81676
 Alpha virt. eigenvalues --    3.82558   3.82889   3.83428   3.83709   3.84350
 Alpha virt. eigenvalues --    3.84647   3.84777   3.85333   3.85915   3.86253
 Alpha virt. eigenvalues --    3.86634   3.87442   3.88096   3.88609   3.89190
 Alpha virt. eigenvalues --    3.89829   3.90377   3.91132   3.91812   3.92272
 Alpha virt. eigenvalues --    3.92708   3.93098   3.93750   3.94297   3.94639
 Alpha virt. eigenvalues --    3.95216   3.96664   3.96986   3.97739   3.98057
 Alpha virt. eigenvalues --    3.98570   3.99087   3.99302   4.00599   4.01316
 Alpha virt. eigenvalues --    4.02270   4.02712   4.03034   4.03653   4.04866
 Alpha virt. eigenvalues --    4.06040   4.07467   4.08994   4.09881   4.10212
 Alpha virt. eigenvalues --    4.10402   4.10681   4.12109   4.12435   4.13471
 Alpha virt. eigenvalues --    4.14603   4.15336   4.15923   4.17347   4.18564
 Alpha virt. eigenvalues --    4.19896   4.20976   4.21250   4.21775   4.22587
 Alpha virt. eigenvalues --    4.23233   4.23323   4.23868   4.24136   4.24878
 Alpha virt. eigenvalues --    4.25634   4.27152   4.27733   4.28150   4.28434
 Alpha virt. eigenvalues --    4.28594   4.28999   4.30642   4.31372   4.31585
 Alpha virt. eigenvalues --    4.33242   4.34546   4.35373   4.36820   4.38672
 Alpha virt. eigenvalues --    4.40953   4.43581   4.45341   4.46563   4.48204
 Alpha virt. eigenvalues --    4.50535   4.50639   4.52887   4.53351   4.56538
 Alpha virt. eigenvalues --    4.57614   4.60324   4.60939   4.62902   4.68749
 Alpha virt. eigenvalues --    4.69811   4.72638   4.79608   4.80400   4.82678
 Alpha virt. eigenvalues --    4.83296   4.83937   4.88489   4.92090   4.92792
 Alpha virt. eigenvalues --    5.06056   5.07491   5.10290   5.11223   5.15851
 Alpha virt. eigenvalues --    5.20175   5.24334   5.24711   5.25119   5.28482
 Alpha virt. eigenvalues --    5.29327   5.30230   5.32855   5.39578   5.42503
 Alpha virt. eigenvalues --    5.46660   5.50243   5.54798   5.57568   5.60802
 Alpha virt. eigenvalues --    5.60926   5.61593   5.64386   5.72212   5.72712
 Alpha virt. eigenvalues --    5.84252   5.85612   5.94725   5.95745   5.97695
 Alpha virt. eigenvalues --    5.98382   6.03143   6.04626   6.05328   6.05835
 Alpha virt. eigenvalues --    6.87216   6.89343   6.90076   6.90995   6.98187
 Alpha virt. eigenvalues --    6.99151   6.99449   7.00392   7.04801   7.05153
 Alpha virt. eigenvalues --    7.05418   7.06158   7.07285   7.07655   7.07915
 Alpha virt. eigenvalues --    7.08698   7.09983   7.10519   7.11438   7.11829
 Alpha virt. eigenvalues --    7.12418   7.13116   7.14848   7.16798   7.17843
 Alpha virt. eigenvalues --    7.18134   7.20792   7.22068   7.26172   7.26648
 Alpha virt. eigenvalues --    7.31744   7.33442   7.33676   7.35393   7.37896
 Alpha virt. eigenvalues --    7.38349   7.38866   7.41805   7.41968   7.42375
 Alpha virt. eigenvalues --    7.45895   7.46646   7.49265   7.51007   7.55573
 Alpha virt. eigenvalues --    7.55843   7.58624   7.59191   7.59549   7.59898
 Alpha virt. eigenvalues --   23.80897  23.82207  23.83301  23.88533  24.01299
 Alpha virt. eigenvalues --   24.02394  24.06646  24.07538  24.08286  24.09383
 Alpha virt. eigenvalues --   24.09552  24.11826  24.12529  24.12891  24.13112
 Alpha virt. eigenvalues --   24.14096  24.14306  24.17598  24.18451  24.20890
 Alpha virt. eigenvalues --   24.22917  24.23776  24.25189  24.26815  24.29408
 Alpha virt. eigenvalues --   24.30199  24.31032  24.32129  24.33760  24.35276
 Alpha virt. eigenvalues --   24.37432  24.39156  24.39981  24.51130  50.10713
 Alpha virt. eigenvalues --   50.12090  50.12870  50.14329  50.16516  50.17447
 Alpha virt. eigenvalues --   50.20849  50.21602  50.22331  50.23497
          Condensed to atoms (all electrons):
 Mulliken charges:
               1
     1  C    0.241220
     2  C   -0.157358
     3  C   -0.431882
     4  C    0.935521
     5  C    0.156123
     6  C   -0.608155
     7  C   -1.252209
     8  C    0.500372
     9  C   -0.605649
    10  O   -0.334617
    11  C    0.616064
    12  C   -0.328930
    13  C    0.288876
    14  C   -0.064484
    15  C    0.078190
    16  C    0.085988
    17  O   -0.417343
    18  O   -0.515546
    19  O   -0.476948
    20  O   -0.422491
    21  C   -0.097124
    22  C   -0.587825
    23  C    0.027802
    24  C    0.326633
    25  C   -0.281765
    26  C    0.346007
    27  O   -0.342400
    28  C   -0.603729
    29  C    0.377793
    30  C   -0.103359
    31  C   -0.624572
    32  C   -0.374068
    33  C    0.567305
    34  C   -0.192525
    35  C   -0.125356
    36  C    0.144117
    37  O   -0.436358
    38  C   -0.303359
    39  O   -0.385280
    40  C   -0.250326
    41  O   -0.291251
    42  C   -0.251991
    43  O   -0.445264
    44  C   -0.260644
    45  H    0.200771
    46  H    0.156464
    47  H    0.149795
    48  H    0.202149
    49  H    0.202749
    50  H    0.162475
    51  H    0.188732
    52  H    0.197258
    53  H    0.206615
    54  H    0.376238
    55  H    0.345941
    56  H    0.339629
    57  H    0.313532
    58  H    0.174246
    59  H    0.208255
    60  H    0.197151
    61  H    0.147150
    62  H    0.187334
    63  H    0.189530
    64  H    0.153073
    65  H    0.176821
    66  H    0.156032
    67  H    0.182700
    68  H    0.193571
    69  H    0.189039
    70  H    0.175299
    71  H    0.177757
    72  H    0.188650
    73  H    0.182796
    74  H    0.193034
    75  H    0.200631
    76  H    0.178945
    77  H    0.188461
    78  H    0.197973
 Sum of Mulliken charges =  -0.00000
 Mulliken charges with hydrogens summed into heavy atoms:
               1
     1  C    0.241220
     2  C    0.043412
     3  C   -0.275418
     4  C    0.935521
     5  C    0.156123
     6  C   -0.458360
     7  C   -0.847310
     8  C    0.662847
     9  C   -0.219659
    10  O   -0.334617
    11  C    0.616064
    12  C   -0.122315
    13  C    0.288876
    14  C   -0.064484
    15  C    0.078190
    16  C    0.085988
    17  O   -0.041105
    18  O   -0.169605
    19  O   -0.137319
    20  O   -0.108959
    21  C   -0.097124
    22  C   -0.587825
    23  C    0.027802
    24  C    0.326633
    25  C   -0.107519
    26  C    0.346007
    27  O   -0.342400
    28  C   -0.198322
    29  C    0.524943
    30  C    0.273505
    31  C   -0.471498
    32  C   -0.374068
    33  C    0.567305
    34  C   -0.015704
    35  C    0.030676
    36  C    0.144117
    37  O   -0.436358
    38  C    0.261951
    39  O   -0.385280
    40  C    0.291380
    41  O   -0.291251
    42  C    0.324470
    43  O   -0.445264
    44  C    0.304735
 Electronic spatial extent (au):  <R**2>=          25460.9199
 Charge=              0.0000 electrons
 Dipole moment (field-independent basis, Debye):
    X=             -4.9918    Y=              1.7721    Z=             -0.2779  Tot=              5.3043
 Quadrupole moment (field-independent basis, Debye-Ang):
   XX=           -216.1984   YY=           -231.6949   ZZ=           -253.7145
   XY=             -8.6076   XZ=             19.9376   YZ=             15.6486
 Traceless Quadrupole moment (field-independent basis, Debye-Ang):
   XX=             17.6708   YY=              2.1744   ZZ=            -19.8452
   XY=             -8.6076   XZ=             19.9376   YZ=             15.6486
 Octapole moment (field-independent basis, Debye-Ang**2):
  XXX=            -21.7171  YYY=            137.0810  ZZZ=            -15.9120  XYY=           -129.8084
  XXY=              7.9798  XXZ=             69.6120  XZZ=           -106.4785  YZZ=             17.3909
  YYZ=             12.2282  XYZ=             -7.0335
 Hexadecapole moment (field-independent basis, Debye-Ang**3):
 XXXX=         -17194.8636 YYYY=          -8650.7210 ZZZZ=          -2817.6530 XXXY=           -420.1492
 XXXZ=           1529.9842 YYYX=           -221.5512 YYYZ=            155.3663 ZZZX=            116.8046
 ZZZY=            143.4778 XXYY=          -5041.6443 XXZZ=          -3819.3357 YYZZ=          -2104.0005
 XXYZ=            193.7810 YYXZ=            -79.2276 ZZXY=             58.9788
 N-N= 5.606212253003D+03 E-N=-1.604619022339D+04  KE= 2.059486657053D+03
 Unable to Open any file for archive entry.
 1\1\GINC-C08B01N08\SP\RmPW1PW91\6-311+G(2d,p)\C34H34O10\ROOT\25-Sep-20
 25\0\\# mPW1PW91/6-311+g(2d,p) NMR scrf(SMD,solvent=dmso) geom=connect
 ivity\\58RR\\0,1\C,0,-2.629952,-2.124966,-1.438366\C,0,-2.688113,-2.47
 9217,-0.083387\C,0,-1.57934,-3.09101,0.501509\C,0,-0.412091,-3.372982,
 -0.215729\C,0,-0.380894,-2.999514,-1.571675\C,0,-1.476295,-2.381236,-2
 .179868\C,0,0.793101,-4.020156,0.429551\C,0,2.091626,-3.729836,-0.3565
 52\C,0,1.79411,-3.961827,-1.840964\O,0,0.732333,-3.138475,-2.350784\C,
 0,2.683441,-2.367694,-0.048056\C,0,1.959234,-1.180605,-0.18289\C,0,2.4
 53603,0.080807,0.17638\C,0,3.754972,0.165429,0.705301\C,0,4.507613,-1.
 007518,0.835839\C,0,3.984996,-2.255889,0.460347\O,0,-3.671212,-1.53068
 8,-2.089561\O,0,4.762895,-3.36169,0.629634\O,0,-1.293508,4.288066,-0.3
 12327\O,0,-8.055757,-0.721204,1.321342\C,0,-0.386338,3.281692,-0.17146
 2\C,0,0.915297,3.463156,-0.660924\C,0,1.868817,2.441461,-0.569461\C,0,
 1.534567,1.240742,0.076819\C,0,0.226304,1.094394,0.564545\C,0,-0.75662
 5,2.076884,0.440624\O,0,-3.686889,0.65099,2.394139\C,0,-2.32823,0.7713
 76,1.941869\C,0,-2.190373,1.846199,0.864824\C,0,-3.049157,1.42709,-0.3
 46125\C,0,-5.856944,-0.027207,1.815383\C,0,-4.625936,0.500535,1.415063
 \C,0,-4.390699,0.87872,0.081272\C,0,-5.439463,0.707328,-0.830426\C,0,-
 6.671522,0.17055,-0.457981\C,0,-6.876989,-0.194366,0.879093\O,0,5.7851
 22,-1.027126,1.369867\C,0,5.819404,-0.789946,2.791784\O,0,4.215151,1.3
 67545,1.167892\C,0,5.446429,1.840174,0.602046\O,0,3.114021,2.609691,-1
 .125683\C,0,3.118881,2.600207,-2.560514\O,0,1.152389,4.666407,-1.29638
 5\C,0,2.1652,5.486058,-0.680501\H,0,-3.582553,-2.273075,0.498252\H,0,-
 1.617652,-3.354508,1.55605\H,0,-1.42007,-2.089671,-3.223334\H,0,0.8924
 62,-3.680904,1.466031\H,0,0.65419,-5.109245,0.467262\H,0,2.83312,-4.48
 3169,-0.079519\H,0,2.658312,-3.728225,-2.466313\H,0,1.523447,-5.015061
 ,-1.993646\H,0,0.955775,-1.218299,-0.581482\H,0,-4.344127,-1.257181,-1
 .439017\H,0,5.612089,-3.032393,0.986263\H,0,-0.819748,5.007398,-0.7754
 41\H,0,-8.668659,-0.787407,0.567895\H,0,-0.020616,0.154785,1.044545\H,
 0,-2.009103,-0.206946,1.564866\H,0,-1.747109,1.014254,2.834003\H,0,-2.
 598077,2.7765,1.276951\H,0,-2.501613,0.661745,-0.910957\H,0,-3.182517,
 2.278039,-1.02245\H,0,-6.010042,-0.311339,2.851154\H,0,-5.285528,1.009
 385,-1.863841\H,0,-7.46677,0.048522,-1.189006\H,0,6.864811,-0.884629,3
 .092432\H,0,5.453961,0.213717,3.026704\H,0,5.212693,-1.534196,3.320552
 \H,0,5.475303,2.914204,0.797478\H,0,6.31263,1.359021,1.065593\H,0,5.46
 4553,1.670279,-0.477771\H,0,4.162373,2.713801,-2.862559\H,0,2.730342,1
 .647135,-2.939589\H,0,2.527177,3.425953,-2.96853\H,0,2.166719,6.429124
 ,-1.230817\H,0,1.920201,5.67179,0.371601\H,0,3.145872,5.009468,-0.7526
 54\\Version=ES64L-G16RevC.02\State=1-A\HF=-2068.418087\RMSD=3.306e-09\
 Dipole=1.9639123,0.6971933,0.1093318\Quadrupole=13.1378416,1.6165952,-
 14.7544369,6.3995237,14.8231076,-11.6343547\PG=C01 [X(C34H34O10)]\\@
 The archive entry for this job was punched.


 WHERE THERE IS MUCH DESIRE TO LEARN, THERE OF NECESSITY WILL BE
 MUCH ARGUING, MUCH WRITING, MANY OPINIONS; FOR OPINION IN GOOD MEN
 IS BUT KNOWLEDGE IN THE MAKING. -- JOHN MILTON.
 Job cpu time:       0 days 11 hours 28 minutes 50.1 seconds.
 Elapsed time:       0 days  0 hours 14 minutes 41.6 seconds.
 File lengths (MBytes):  RWF=   1584 Int=      0 D2E=      0 Chk=    151 Scr=      1
 Normal termination of Gaussian 16 at Thu Sep 25 18:10:54 2025.
