 Entering Gaussian System, Link 0=/home/tupf/tupf_yangsy/lustre1/g16/Gaussian16_AVX2/g16/g16
 Input=58RR_7.gjf
 Output=58RR_7.log
 Initial command:
 /home/tupf/tupf_yangsy/lustre1/g16/Gaussian16_AVX2/g16/l1.exe "/home/tupf/tupf_yangsy/lustre1/g16/tmp/Gau-1767207.inp" -scrdir="/home/tupf/tupf_yangsy/lustre1/g16/tmp/"
 Entering Link 1 = /home/tupf/tupf_yangsy/lustre1/g16/Gaussian16_AVX2/g16/l1.exe PID=   1767208.
  
 Copyright (c) 1988-2021, Gaussian, Inc.  All Rights Reserved.
  
 This is part of the Gaussian(R) 16 program.  It is based on
 the Gaussian(R) 09 system (copyright 2009, Gaussian, Inc.),
 the Gaussian(R) 03 system (copyright 2003, Gaussian, Inc.),
 the Gaussian(R) 98 system (copyright 1998, Gaussian, Inc.),
 the Gaussian(R) 94 system (copyright 1995, Gaussian, Inc.),
 the Gaussian 92(TM) system (copyright 1992, Gaussian, Inc.),
 the Gaussian 90(TM) system (copyright 1990, Gaussian, Inc.),
 the Gaussian 88(TM) system (copyright 1988, Gaussian, Inc.),
 the Gaussian 86(TM) system (copyright 1986, Carnegie Mellon
 University), and the Gaussian 82(TM) system (copyright 1983,
 Carnegie Mellon University). Gaussian is a federally registered
 trademark of Gaussian, Inc.
  
 This software contains proprietary and confidential information,
 including trade secrets, belonging to Gaussian, Inc.
  
 This software is provided under written license and may be
 used, copied, transmitted, or stored only in accord with that
 written license.
  
 The following legend is applicable only to US Government
 contracts under FAR:
  
                    RESTRICTED RIGHTS LEGEND
  
 Use, reproduction and disclosure by the US Government is
 subject to restrictions as set forth in subparagraphs (a)
 and (c) of the Commercial Computer Software - Restricted
 Rights clause in FAR 52.227-19.
  
 Gaussian, Inc.
 340 Quinnipiac St., Bldg. 40, Wallingford CT 06492
  
  
 ---------------------------------------------------------------
 Warning -- This program may not be used in any manner that
 competes with the business of Gaussian, Inc. or will provide
 assistance to any competitor of Gaussian, Inc.  The licensee
 of this program is prohibited from giving any competitor of
 Gaussian, Inc. access to this program.  By using this program,
 the user acknowledges that Gaussian, Inc. is engaged in the
 business of creating and licensing software in the field of
 computational chemistry and represents and warrants to the
 licensee that it is not a competitor of Gaussian, Inc. and that
 it will not use this program in any manner prohibited above.
 ---------------------------------------------------------------
  

 Cite this work as:
 Gaussian 16, Revision C.02,
 M. J. Frisch, G. W. Trucks, H. B. Schlegel, G. E. Scuseria, 
 M. A. Robb, J. R. Cheeseman, G. Scalmani, V. Barone, 
 G. A. Petersson, H. Nakatsuji, X. Li, M. Caricato, A. V. Marenich, 
 J. Bloino, B. G. Janesko, R. Gomperts, B. Mennucci, H. P. Hratchian, 
 J. V. Ortiz, A. F. Izmaylov, J. L. Sonnenberg, D. Williams-Young, 
 F. Ding, F. Lipparini, F. Egidi, J. Goings, B. Peng, A. Petrone, 
 T. Henderson, D. Ranasinghe, V. G. Zakrzewski, J. Gao, N. Rega, 
 G. Zheng, W. Liang, M. Hada, M. Ehara, K. Toyota, R. Fukuda, 
 J. Hasegawa, M. Ishida, T. Nakajima, Y. Honda, O. Kitao, H. Nakai, 
 T. Vreven, K. Throssell, J. A. Montgomery, Jr., J. E. Peralta, 
 F. Ogliaro, M. J. Bearpark, J. J. Heyd, E. N. Brothers, K. N. Kudin, 
 V. N. Staroverov, T. A. Keith, R. Kobayashi, J. Normand, 
 K. Raghavachari, A. P. Rendell, J. C. Burant, S. S. Iyengar, 
 J. Tomasi, M. Cossi, J. M. Millam, M. Klene, C. Adamo, R. Cammi, 
 J. W. Ochterski, R. L. Martin, K. Morokuma, O. Farkas, 
 J. B. Foresman, and D. J. Fox, Gaussian, Inc., Wallingford CT, 2019.
 
 ******************************************
 Gaussian 16:  ES64L-G16RevC.02  7-Dec-2021
                25-Sep-2025 
 ******************************************
 %mem=400GB
 %nprocshared=64
 Will use up to   64 processors via shared memory.
 ---------------------------------------------------------------------
 # mPW1PW91/6-311+g(2d,p) NMR scrf(SMD,solvent=dmso) geom=connectivity
 ---------------------------------------------------------------------
 1/38=1,57=2,172=1/1;
 2/12=2,17=6,18=5,40=1/2;
 3/5=4,6=6,7=112,11=2,25=1,30=1,70=32201,72=21,74=-7/1,2,3,8;
 4//1;
 5/5=2,38=5,53=21/2;
 8/6=1,10=90,11=11/1;
 10/13=100,45=16/2;
 6/7=2,8=2,9=2,10=2,28=1/1;
 99/9=1/99;
 ----
 58RR
 ----
 Symbolic Z-matrix:
 Charge =  0 Multiplicity = 1
 C                     4.42706  -3.48701   0.00346 
 C                     4.05717  -3.51489   1.35365 
 C                     4.19187  -2.35471   2.11089 
 C                     4.687    -1.16104   1.5727 
 C                     5.05685  -1.16584   0.21786 
 C                     4.94179  -2.3221   -0.56093 
 C                     4.74819   0.11521   2.38463 
 C                     4.81959   1.3552    1.47872 
 C                     5.86795   1.06716   0.39552 
 O                     5.50596  -0.05071  -0.43025 
 C                     3.49743   1.76436   0.85654 
 C                     2.42543   0.88699   0.69632 
 C                     1.22851   1.24422   0.05814 
 C                     1.0946    2.56008  -0.41563 
 C                     2.14706   3.46563  -0.25184 
 C                     3.3382    3.07123   0.3724 
 O                     4.26089  -4.63501  -0.7226 
 O                     4.35094   3.97546   0.49313 
 O                    -2.72593  -2.73803  -0.67575 
 O                    -9.91021   0.45995   1.10685 
 C                    -1.80448  -1.74629  -0.50227 
 C                    -0.47382  -2.00604  -0.87214 
 C                     0.50941  -1.02688  -0.71518 
 C                     0.17425   0.22343  -0.15647 
 C                    -1.16375   0.45766   0.18216 
 C                    -2.17295  -0.49705   0.01614 
 O                    -5.4184   -0.61598   1.98227 
 C                    -4.14865  -1.0838    1.49511 
 C                    -3.5974   -0.16361   0.40244 
 C                    -4.57364  -0.18595  -0.78677 
 C                    -7.64781  -0.08327   1.49705 
 C                    -6.33719  -0.25311   1.03909 
 C                    -5.99974  -0.02956  -0.30825 
 C                    -7.02712   0.36227  -1.17218 
 C                    -8.34127   0.53105  -0.7415 
 C                    -8.6471    0.30906   0.60756 
 O                     2.11225   4.7573   -0.7382 
 C                     1.18765   5.62579  -0.05538 
 O                    -0.05252   2.9907   -1.04478 
 C                    -0.08803   2.67204  -2.44234 
 O                     1.79391  -1.33269  -1.0988 
 C                     2.20609  -0.72897  -2.32897 
 O                    -0.26028  -3.24501  -1.42909 
 C                     0.84453  -4.02273  -0.9255 
 H                     3.6603   -4.4287    1.78391 
 H                     3.88458  -2.36442   3.1543 
 H                     5.2345   -2.28736  -1.60679 
 H                     3.88155   0.1749    3.05234 
 H                     5.63757   0.1126    3.02821 
 H                     5.20287   2.19952   2.06136 
 H                     5.98053   1.90682  -0.29191 
 H                     6.83882   0.86225   0.86688 
 H                     2.52018  -0.12944   1.0512 
 H                     4.52338  -4.46138  -1.64372 
 H                     4.02564   4.79281   0.06548 
 H                    -2.22621  -3.49842  -1.03564 
 H                    -10.50011   0.72616   0.37986 
 H                    -1.43132   1.42404   0.59551 
 H                    -4.26463  -2.10644   1.12065 
 H                    -3.49512  -1.09866   2.37016 
 H                    -3.59297   0.84944   0.82228 
 H                    -4.4549   -1.13031  -1.33058 
 H                    -4.32207   0.617    -1.48926 
 H                    -7.88052  -0.25961   2.54202 
 H                    -6.78535   0.54755  -2.21641 
 H                    -9.11811   0.83928  -1.43694 
 H                     0.15878   5.29698  -0.22138 
 H                     1.40222   5.64989   1.01968 
 H                     1.33374   6.62105  -0.48104 
 H                    -1.02307   3.08382  -2.82935 
 H                     0.75905   3.12947  -2.96743 
 H                    -0.07498   1.5877   -2.601 
 H                     3.2063   -1.11284  -2.53544 
 H                     1.52767  -1.00784  -3.14495 
 H                     2.24681   0.36235  -2.24523 
 H                     0.5959   -5.0659   -1.13568 
 H                     1.77196  -3.74937  -1.42753 
 H                     0.95803  -3.88193   0.15418 
 
 Stoichiometry    C34H34O10
 Framework group  C1[X(C34H34O10)]
 Deg. of freedom   228
 Full point group                 C1      NOp   1
 Largest Abelian subgroup         C1      NOp   1
 Largest concise Abelian subgroup C1      NOp   1
                         Standard orientation:                         
 ---------------------------------------------------------------------
 Center     Atomic      Atomic             Coordinates (Angstroms)
 Number     Number       Type             X           Y           Z
 ---------------------------------------------------------------------
      1          6           0        4.427058   -3.487010    0.003455
      2          6           0        4.057166   -3.514886    1.353651
      3          6           0        4.191869   -2.354708    2.110885
      4          6           0        4.686996   -1.161044    1.572695
      5          6           0        5.056854   -1.165841    0.217857
      6          6           0        4.941788   -2.322102   -0.560930
      7          6           0        4.748185    0.115207    2.384631
      8          6           0        4.819591    1.355202    1.478716
      9          6           0        5.867952    1.067155    0.395518
     10          8           0        5.505962   -0.050714   -0.430246
     11          6           0        3.497434    1.764356    0.856544
     12          6           0        2.425432    0.886992    0.696315
     13          6           0        1.228506    1.244224    0.058139
     14          6           0        1.094601    2.560077   -0.415634
     15          6           0        2.147062    3.465632   -0.251844
     16          6           0        3.338199    3.071226    0.372397
     17          8           0        4.260885   -4.635009   -0.722597
     18          8           0        4.350939    3.975464    0.493131
     19          8           0       -2.725929   -2.738034   -0.675746
     20          8           0       -9.910209    0.459946    1.106849
     21          6           0       -1.804476   -1.746289   -0.502274
     22          6           0       -0.473821   -2.006039   -0.872140
     23          6           0        0.509409   -1.026879   -0.715178
     24          6           0        0.174245    0.223431   -0.156473
     25          6           0       -1.163751    0.457659    0.182155
     26          6           0       -2.172947   -0.497054    0.016135
     27          8           0       -5.418400   -0.615976    1.982268
     28          6           0       -4.148650   -1.083799    1.495105
     29          6           0       -3.597402   -0.163613    0.402441
     30          6           0       -4.573642   -0.185954   -0.786771
     31          6           0       -7.647808   -0.083268    1.497045
     32          6           0       -6.337186   -0.253109    1.039094
     33          6           0       -5.999738   -0.029560   -0.308253
     34          6           0       -7.027116    0.362274   -1.172176
     35          6           0       -8.341266    0.531045   -0.741500
     36          6           0       -8.647098    0.309064    0.607557
     37          8           0        2.112250    4.757296   -0.738199
     38          6           0        1.187647    5.625788   -0.055375
     39          8           0       -0.052520    2.990700   -1.044781
     40          6           0       -0.088029    2.672043   -2.442338
     41          8           0        1.793907   -1.332685   -1.098796
     42          6           0        2.206085   -0.728966   -2.328967
     43          8           0       -0.260275   -3.245008   -1.429087
     44          6           0        0.844534   -4.022731   -0.925498
     45          1           0        3.660296   -4.428703    1.783908
     46          1           0        3.884581   -2.364421    3.154304
     47          1           0        5.234497   -2.287363   -1.606794
     48          1           0        3.881547    0.174898    3.052337
     49          1           0        5.637572    0.112603    3.028212
     50          1           0        5.202872    2.199525    2.061359
     51          1           0        5.980530    1.906820   -0.291911
     52          1           0        6.838823    0.862251    0.866883
     53          1           0        2.520180   -0.129441    1.051202
     54          1           0        4.523379   -4.461382   -1.643721
     55          1           0        4.025639    4.792808    0.065480
     56          1           0       -2.226205   -3.498423   -1.035640
     57          1           0      -10.500107    0.726162    0.379858
     58          1           0       -1.431317    1.424043    0.595505
     59          1           0       -4.264628   -2.106442    1.120647
     60          1           0       -3.495120   -1.098661    2.370156
     61          1           0       -3.592971    0.849444    0.822280
     62          1           0       -4.454898   -1.130307   -1.330584
     63          1           0       -4.322070    0.617001   -1.489257
     64          1           0       -7.880519   -0.259611    2.542015
     65          1           0       -6.785352    0.547550   -2.216409
     66          1           0       -9.118114    0.839282   -1.436935
     67          1           0        0.158776    5.296984   -0.221382
     68          1           0        1.402224    5.649890    1.019682
     69          1           0        1.333737    6.621048   -0.481039
     70          1           0       -1.023066    3.083823   -2.829347
     71          1           0        0.759046    3.129473   -2.967432
     72          1           0       -0.074979    1.587701   -2.601000
     73          1           0        3.206296   -1.112839   -2.535441
     74          1           0        1.527673   -1.007844   -3.144949
     75          1           0        2.246808    0.362345   -2.245230
     76          1           0        0.595904   -5.065897   -1.135680
     77          1           0        1.771957   -3.749372   -1.427533
     78          1           0        0.958034   -3.881928    0.154176
 ---------------------------------------------------------------------
 Rotational constants (GHZ):           0.1201972           0.0404217           0.0334474
 Standard basis: 6-311+G(2d,p) (5D, 7F)
 There are  1480 symmetry adapted cartesian basis functions of A   symmetry.
 There are  1392 symmetry adapted basis functions of A   symmetry.
  1392 basis functions,  2120 primitive gaussians,  1480 cartesian basis functions
   159 alpha electrons      159 beta electrons
       nuclear repulsion energy      5455.7285655073 Hartrees.
 NAtoms=   78 NActive=   78 NUniq=   78 SFac= 1.00D+00 NAtFMM=   60 NAOKFM=T Big=T
 Integral buffers will be    131072 words long.
 Raffenetti 2 integral format.
 Two-electron integral symmetry is turned on.
 ------------------------------------------------------------------------------
 Polarizable Continuum Model (PCM)
 =================================
 Model                : PCM.
 Atomic radii         : SMD-Coulomb.
 Polarization charges : Total charges.
 Charge compensation  : None.
 Solution method      : On-the-fly selection.
 Cavity type          : VdW (van der Waals Surface) (Alpha=1.000).
 Cavity algorithm     : GePol (No added spheres)
                        Default sphere list used, NSphG=   78.
                        Lebedev-Laikov grids with approx.  5.0 points / Ang**2.
                        Smoothing algorithm: York/Karplus (Gamma=1.0000).
                        Polarization charges: spherical gaussians, with
                                              point-specific exponents (IZeta= 3).
                        Self-potential: point-specific (ISelfS= 7).
                        Self-field    : sphere-specific E.n sum rule (ISelfD= 2).
 Solvent              : DiMethylSulfoxide, Eps=  46.826000 Eps(inf)=   2.185371
 ------------------------------------------------------------------------------
 ------------------------------------------------------------------------------
 Atomic radii for non-electrostatic terms: SMD-CDS.
 ------------------------------------------------------------------------------
 Nuclear repulsion after PCM non-electrostatic terms =     5455.7241469660 Hartrees.
 One-electron integrals computed using PRISM.
 NBasis=  1392 RedAO= T EigKep=  1.19D-06  NBF=  1392
 NBsUse=  1378 1.00D-06 EigRej=  9.55D-07 NBFU=  1378
 ExpMin= 4.38D-02 ExpMax= 8.59D+03 ExpMxC= 1.30D+03 IAcc=3 IRadAn=         5 AccDes= 0.00D+00
 Harris functional with IExCor=  908 and IRadAn=       5 diagonalized for initial guess.
 HarFok:  IExCor=  908 AccDes= 0.00D+00 IRadAn=         5 IDoV= 1 UseB2=F ITyADJ=14
 ICtDFT=  3500011 ScaDFX=  1.000000  1.000000  1.000000  1.000000
 FoFCou: FMM=F IPFlag=           0 FMFlag=      100000 FMFlg1=        2001
         NFxFlg=           0 DoJE=T BraDBF=F KetDBF=T FulRan=T
         wScrn=  0.000000 ICntrl=       500 IOpCl=  0 I1Cent=   200000004 NGrid=           0
         NMat0=    1 NMatS0=      1 NMatT0=    0 NMatD0=    1 NMtDS0=    0 NMtDT0=    0
 Petite list used in FoFCou.
 Requested convergence on RMS density matrix=1.00D-08 within 128 cycles.
 Requested convergence on MAX density matrix=1.00D-06.
 Requested convergence on             energy=1.00D-06.
 No special actions if energy rises.
 Inv3:  Mode=1 IEnd=    86510700.
 Iteration    1 A*A^-1 deviation from unit magnitude is 4.44D-15 for    705.
 Iteration    1 A*A^-1 deviation from orthogonality  is 2.41D-15 for   2400    723.
 Iteration    1 A^-1*A deviation from unit magnitude is 3.77D-15 for    706.
 Iteration    1 A^-1*A deviation from orthogonality  is 1.21D-13 for   2465   2400.
 Error on total polarization charges =  0.04944
 SCF Done:  E(RmPW1PW91) =  -2068.41738046     A.U. after   14 cycles
            NFock= 14  Conv=0.36D-08     -V/T= 2.0043
 SMD-CDS (non-electrostatic) energy       (kcal/mol) =      -2.77
 (included in total energy above)
 DoSCS=F DFT=T ScalE2(SS,OS)=  1.000000  1.000000
 Range of M.O.s used for correlation:     1  1378
 NBasis=  1392 NAE=   159 NBE=   159 NFC=     0 NFV=     0
 NROrb=   1378 NOA=   159 NOB=   159 NVA=  1219 NVB=  1219

 **** Warning!!: The largest alpha MO coefficient is  0.12217660D+03

 NEqPCM:  Using equilibrium solvation (IEInf=0, Eps=  46.8260, EpsInf=   2.1854)
          Differentiating once with respect to magnetic field using GIAOs.
          Electric field/nuclear overlap derivatives assumed to be zero.
 FoFJK:  IHMeth= 1 ICntrl=    6127 DoSepK=F KAlg= 0 I1Cent=           0 FoldK=F
 IRaf=         1 NMat=       1 IRICut=       1 DoRegI=T DoRafI=F ISym2E= 0 IDoP0=0 IntGTp=1.
          There are     3 degrees of freedom in the 1st order CPHF.  IDoFFX=0 NUNeed=     3.
      3 vectors produced by pass  0 Test12= 6.46D-12 3.33D-08 XBig12= 2.29D+03 4.55D+00.
 AX will form     3 AO Fock derivatives at one time.
      3 vectors produced by pass  1 Test12= 6.46D-12 3.33D-08 XBig12= 6.85D+00 6.97D-01.
      3 vectors produced by pass  2 Test12= 6.46D-12 3.33D-08 XBig12= 4.04D-02 5.77D-02.
      3 vectors produced by pass  3 Test12= 6.46D-12 3.33D-08 XBig12= 1.49D-04 2.58D-03.
      3 vectors produced by pass  4 Test12= 6.46D-12 3.33D-08 XBig12= 4.34D-07 1.21D-04.
      3 vectors produced by pass  5 Test12= 6.46D-12 3.33D-08 XBig12= 1.68D-09 7.43D-06.
      3 vectors produced by pass  6 Test12= 6.46D-12 3.33D-08 XBig12= 7.25D-12 5.63D-07.
      1 vectors produced by pass  7 Test12= 6.46D-12 3.33D-08 XBig12= 3.11D-14 4.15D-08.
 InvSVY:  IOpt=1 It=  1 EMax= 2.13D-14
 Solved reduced A of dimension    22 with     3 vectors.
 Calculating GIAO nuclear magnetic shielding tensors.
 SCF GIAO Magnetic shielding tensor (ppm):
      1  C    Isotropic =    24.1608   Anisotropy =   142.7662
   XX=   104.2001   YX=   -35.1845   ZX=    14.2452
   XY=   -34.0154   YY=   -24.9245   ZY=   -47.4057
   XZ=    19.1104   YZ=   -43.9726   ZZ=    -6.7931
   Eigenvalues:   -64.1174    17.2616   119.3383
      2  C    Isotropic =    76.6338   Anisotropy =   139.8062
   XX=   141.9280   YX=   -53.2022   ZX=    40.4086
   XY=   -49.9284   YY=    24.3254   ZY=    18.2897
   XZ=    34.2623   YZ=    13.3508   ZZ=    63.6480
   Eigenvalues:    -7.0089    67.0724   169.8379
      3  C    Isotropic =    50.8958   Anisotropy =   171.5347
   XX=   136.0581   YX=   -36.5731   ZX=    60.6947
   XY=   -34.0196   YY=    50.5839   ZY=    -6.8196
   XZ=    53.3739   YZ=   -14.2656   ZZ=   -33.9544
   Eigenvalues:   -51.3154    38.7506   165.2523
      4  C    Isotropic =    67.1601   Anisotropy =   166.4995
   XX=   164.1768   YX=   -22.5434   ZX=    23.9977
   XY=   -34.8393   YY=     9.2076   ZY=   -36.0307
   XZ=    38.7240   YZ=   -22.6385   ZZ=    28.0959
   Eigenvalues:   -12.3167    35.6372   178.1598
      5  C    Isotropic =    23.5915   Anisotropy =   143.0034
   XX=    98.1907   YX=   -44.4130   ZX=    31.5913
   XY=   -46.3806   YY=   -35.8019   ZY=    13.8030
   XZ=    35.7661   YZ=    22.4728   ZZ=     8.3857
   Eigenvalues:   -61.0814    12.9288   118.9271
      6  C    Isotropic =    79.7894   Anisotropy =   109.8055
   XX=   138.8120   YX=   -18.5774   ZX=    29.9967
   XY=   -21.9270   YY=    78.7914   ZY=    -5.6584
   XZ=    34.3860   YZ=    -5.0241   ZZ=    21.7648
   Eigenvalues:    13.4952    72.8799   152.9931
      7  C    Isotropic =   156.1561   Anisotropy =     9.1610
   XX=   158.3054   YX=     3.2063   ZX=    -0.5191
   XY=    -2.8418   YY=   160.6895   ZY=    -9.5026
   XZ=     1.8899   YZ=     0.5314   ZZ=   149.4736
   Eigenvalues:   147.8525   158.3525   162.2635
      8  C    Isotropic =   152.4872   Anisotropy =    18.8543
   XX=   163.0421   YX=     3.4003   ZX=     7.9203
   XY=    -4.6719   YY=   139.6350   ZY=    -2.1258
   XZ=     1.1761   YZ=     5.6522   ZZ=   154.7844
   Eigenvalues:   139.3734   153.0314   165.0567
      9  C    Isotropic =   115.5007   Anisotropy =    49.1721
   XX=   108.9270   YX=     7.9885   ZX=     9.3002
   XY=     8.4474   YY=   127.6602   ZY=    24.7100
   XZ=     2.3676   YZ=    26.1082   ZZ=   109.9151
   Eigenvalues:    91.8740   106.3461   148.2821
     10  O    Isotropic =   218.7101   Anisotropy =   114.8383
   XX=   271.7843   YX=   -29.4045   ZX=    43.3795
   XY=   -19.8104   YY=   192.4427   ZY=   -57.1095
   XZ=   -10.1320   YZ=   -76.0651   ZZ=   191.9034
   Eigenvalues:   125.3624   235.4990   295.2690
     11  C    Isotropic =    57.3957   Anisotropy =   155.0576
   XX=    20.5843   YX=     2.4847   ZX=   -59.8983
   XY=   -15.0935   YY=    26.8118   ZY=    34.7887
   XZ=   -62.7469   YZ=    29.6456   ZZ=   124.7909
   Eigenvalues:    -9.7870    21.2066   160.7674
     12  C    Isotropic =    54.4105   Anisotropy =   168.8716
   XX=    58.1974   YX=    -3.7528   ZX=   -46.0674
   XY=    -9.6296   YY=   -21.0602   ZY=    59.9028
   XZ=   -48.4497   YZ=    57.9290   ZZ=   126.0943
   Eigenvalues:   -42.7178    38.9577   166.9915
     13  C    Isotropic =    59.9321   Anisotropy =   144.9170
   XX=    28.1340   YX=   -49.6778   ZX=   -46.9996
   XY=   -31.5268   YY=    24.8974   ZY=    25.6668
   XZ=   -50.8729   YZ=    16.1115   ZZ=   126.7649
   Eigenvalues:   -17.2168    40.4697   156.5434
     14  C    Isotropic =    31.7314   Anisotropy =   115.2607
   XX=     6.0986   YX=    -6.9780   ZX=   -47.1016
   XY=     4.3686   YY=    17.3546   ZY=    35.4300
   XZ=   -58.5083   YZ=    22.4661   ZZ=    71.7411
   Eigenvalues:   -27.4726    14.0950   108.5719
     15  C    Isotropic =    41.7099   Anisotropy =   106.2509
   XX=    31.4036   YX=    -7.7092   ZX=   -32.4307
   XY=    -6.7779   YY=    11.6477   ZY=    28.5240
   XZ=   -33.8843   YZ=    47.9158   ZZ=    82.0786
   Eigenvalues:    -6.7209    19.3069   112.5439
     16  C    Isotropic =    33.5288   Anisotropy =   125.3076
   XX=     2.6804   YX=   -31.5885   ZX=   -36.4981
   XY=   -38.2765   YY=     1.9703   ZY=    22.4724
   XZ=   -29.9091   YZ=    26.5365   ZZ=    95.9357
   Eigenvalues:   -32.9450    16.4642   117.0672
     17  O    Isotropic =   210.9202   Anisotropy =    60.7470
   XX=   217.7384   YX=   -14.9406   ZX=    14.5910
   XY=    -8.7448   YY=   224.5574   ZY=    37.9365
   XZ=    21.9248   YZ=    42.9853   ZZ=   190.4648
   Eigenvalues:   155.9428   225.3997   251.4182
     18  O    Isotropic =   228.2252   Anisotropy =   116.2912
   XX=   204.6369   YX=   -25.0521   ZX=   -31.6023
   XY=    30.4244   YY=   209.6519   ZY=    46.9339
   XZ=   -35.6614   YZ=    51.2263   ZZ=   270.3868
   Eigenvalues:   169.9991   208.9238   305.7527
     19  O    Isotropic =   226.8231   Anisotropy =   113.1282
   XX=   195.7004   YX=   -15.9871   ZX=    17.4404
   XY=    33.2238   YY=   205.5700   ZY=   -47.0786
   XZ=    21.3957   YZ=   -42.5932   ZZ=   279.1991
   Eigenvalues:   172.4591   205.7684   302.2419
     20  O    Isotropic =   212.7280   Anisotropy =    65.0314
   XX=   248.0609   YX=     1.0341   ZX=   -28.0558
   XY=    -1.5554   YY=   220.6496   ZY=    17.1650
   XZ=   -22.0645   YZ=    15.5339   ZZ=   169.4734
   Eigenvalues:   158.2370   223.8648   256.0822
     21  C    Isotropic =    33.8167   Anisotropy =   122.7144
   XX=    -0.1264   YX=   -24.2572   ZX=    14.2449
   XY=   -35.7869   YY=     0.1028   ZY=   -34.7790
   XZ=     9.4479   YZ=   -33.7523   ZZ=   101.4737
   Eigenvalues:   -32.1740    17.9978   115.6263
     22  C    Isotropic =    40.1176   Anisotropy =   110.1702
   XX=    17.9667   YX=     2.8029   ZX=    23.5860
   XY=    -0.8560   YY=    13.5685   ZY=   -34.3373
   XZ=    26.8102   YZ=   -51.2697   ZZ=    88.8176
   Eigenvalues:   -10.9520    17.7405   113.5644
     23  C    Isotropic =    32.2967   Anisotropy =   115.1705
   XX=   -12.0826   YX=    -8.7167   ZX=    30.4837
   XY=     6.7366   YY=    24.1806   ZY=   -39.0225
   XZ=    40.9783   YZ=   -28.7167   ZZ=    84.7919
   Eigenvalues:   -26.0683    13.8813   109.0770
     24  C    Isotropic =    57.9844   Anisotropy =   146.8514
   XX=    14.1396   YX=   -42.6824   ZX=    12.4957
   XY=   -28.7807   YY=    25.0191   ZY=   -46.2753
   XZ=    21.9929   YZ=   -41.2481   ZZ=   134.7947
   Eigenvalues:   -18.4470    36.5150   155.8853
     25  C    Isotropic =    55.2987   Anisotropy =   143.0521
   XX=    51.8093   YX=    14.0746   ZX=    24.1951
   XY=     8.2680   YY=    -5.2759   ZY=   -60.8623
   XZ=    28.5534   YZ=   -67.6336   ZZ=   119.3628
   Eigenvalues:   -37.3268    52.5562   150.6668
     26  C    Isotropic =    60.1887   Anisotropy =   154.0923
   XX=     5.0512   YX=     8.5698   ZX=    35.8965
   XY=   -11.9824   YY=    36.9213   ZY=   -42.7126
   XZ=    30.1173   YZ=   -50.2711   ZZ=   138.5936
   Eigenvalues:    -5.4397    23.0889   162.9169
     27  O    Isotropic =   208.1635   Anisotropy =    99.0797
   XX=   154.8236   YX=    30.1733   ZX=    34.3403
   XY=    21.9816   YY=   257.4604   ZY=    40.0586
   XZ=    54.5217   YZ=   -14.6130   ZZ=   212.2065
   Eigenvalues:   128.3439   221.9300   274.2167
     28  C    Isotropic =   116.5998   Anisotropy =    62.5966
   XX=   145.9381   YX=   -20.8317   ZX=   -21.8292
   XY=   -11.6178   YY=   104.0397   ZY=     3.4922
   XZ=   -18.9541   YZ=     0.5516   ZZ=    99.8217
   Eigenvalues:    90.5343   100.9343   158.3309
     29  C    Isotropic =   143.2557   Anisotropy =    32.6184
   XX=   150.5717   YX=    -4.9137   ZX=    -7.6213
   XY=   -15.6953   YY=   148.6464   ZY=     9.9355
   XZ=   -14.3826   YZ=     4.9759   ZZ=   130.5488
   Eigenvalues:   125.2987   139.4670   165.0012
     30  C    Isotropic =   155.6903   Anisotropy =    21.6149
   XX=   169.0784   YX=     0.4292   ZX=     5.9306
   XY=    -3.7990   YY=   148.0198   ZY=    -2.0765
   XZ=     2.1723   YZ=    -2.2743   ZZ=   149.9727
   Eigenvalues:   146.5785   150.3922   170.1002
     31  C    Isotropic =    81.6820   Anisotropy =   113.9440
   XX=    71.3177   YX=    14.6806   ZX=    16.2658
   XY=    12.2948   YY=   149.3539   ZY=    26.7592
   XZ=    14.7253   YZ=    25.2098   ZZ=    24.3745
   Eigenvalues:    16.2233    71.1781   157.6447
     32  C    Isotropic =    24.0578   Anisotropy =   139.8201
   XX=   -19.5844   YX=    33.8467   ZX=   -26.2459
   XY=    37.2604   YY=   102.6876   ZY=    30.9683
   XZ=   -32.3603   YZ=    35.3240   ZZ=   -10.9299
   Eigenvalues:   -59.4346    14.3367   117.2712
     33  C    Isotropic =    66.7810   Anisotropy =   159.1707
   XX=     2.1001   YX=    27.5753   ZX=    25.4428
   XY=    18.8365   YY=   165.3339   ZY=    14.6251
   XZ=    13.1929   YZ=    29.4167   ZZ=    32.9089
   Eigenvalues:    -8.0318    35.4800   172.8948
     34  C    Isotropic =    50.7497   Anisotropy =   169.0088
   XX=    40.1848   YX=    21.0963   ZX=    23.4707
   XY=    23.2797   YY=   149.2883   ZY=    41.2838
   XZ=    30.8974   YZ=    37.7777   ZZ=   -37.2241
   Eigenvalues:   -50.8974    39.7242   163.4222
     35  C    Isotropic =    77.1220   Anisotropy =   124.6630
   XX=    36.7555   YX=    32.5995   ZX=   -34.1069
   XY=    32.4198   YY=   146.4390   ZY=    33.3263
   XZ=   -28.6352   YZ=    29.8673   ZZ=    48.1715
   Eigenvalues:    -3.1015    74.2368   160.2307
     36  C    Isotropic =    24.1291   Anisotropy =   139.3954
   XX=   -48.4609   YX=    27.7829   ZX=    26.5993
   XY=    27.2794   YY=   108.3837   ZY=    15.3134
   XZ=    30.2303   YZ=    15.6561   ZZ=    12.4647
   Eigenvalues:   -62.0879    17.4160   117.0594
     37  O    Isotropic =   282.2450   Anisotropy =    96.0315
   XX=   235.4173   YX=    15.5395   ZX=   -32.4004
   XY=    -0.8801   YY=   284.1129   ZY=    -4.2934
   XZ=   -59.1375   YZ=     3.9956   ZZ=   327.2047
   Eigenvalues:   215.8343   284.6346   346.2660
     38  C    Isotropic =   124.6235   Anisotropy =    94.2898
   XX=   125.2675   YX=   -40.7413   ZX=   -26.6004
   XY=   -35.1660   YY=   137.1509   ZY=    24.9904
   XZ=   -26.6027   YZ=    26.3957   ZZ=   111.4520
   Eigenvalues:    90.0077    96.3794   187.4833
     39  O    Isotropic =   278.7024   Anisotropy =    92.3010
   XX=   286.9253   YX=   -36.4098   ZX=   -34.3449
   XY=   -33.3741   YY=   235.2413   ZY=    20.4999
   XZ=   -10.5852   YZ=    24.4619   ZZ=   313.9404
   Eigenvalues:   216.5221   279.3486   340.2364
     40  C    Isotropic =   126.2177   Anisotropy =    85.7760
   XX=   100.7487   YX=    -0.5261   ZX=     6.8959
   XY=     3.3051   YY=    97.5035   ZY=    14.9313
   XZ=    10.0147   YZ=    11.8707   ZZ=   180.4009
   Eigenvalues:    95.3902    99.8612   183.4017
     41  O    Isotropic =   271.5444   Anisotropy =   101.7034
   XX=   275.7574   YX=   -35.4649   ZX=    29.7702
   XY=   -34.9491   YY=   233.0264   ZY=   -21.7698
   XZ=    19.1981   YZ=   -42.5500   ZZ=   305.8494
   Eigenvalues:   209.9934   265.2931   339.3466
     42  C    Isotropic =   128.3546   Anisotropy =    82.5880
   XX=   112.9684   YX=     6.6357   ZX=   -22.3125
   XY=    12.1155   YY=   108.2740   ZY=   -27.9312
   XZ=   -24.2615   YZ=   -25.1611   ZZ=   163.8214
   Eigenvalues:    97.6278   104.0228   183.4132
     43  O    Isotropic =   270.2188   Anisotropy =   108.7309
   XX=   204.7771   YX=    23.9053   ZX=    14.2505
   XY=    -4.5116   YY=   270.6085   ZY=    -6.0978
   XZ=    49.6835   YZ=     4.3552   ZZ=   335.2707
   Eigenvalues:   196.1183   271.8319   342.7060
     44  C    Isotropic =   122.4393   Anisotropy =    93.1383
   XX=   140.0674   YX=   -40.4577   ZX=    27.0290
   XY=   -39.0869   YY=   123.4848   ZY=   -19.4169
   XZ=    25.8211   YZ=   -14.7267   ZZ=   103.7658
   Eigenvalues:    88.1902    94.5963   184.5315
     45  H    Isotropic =    25.0113   Anisotropy =     2.8356
   XX=    22.5583   YX=    -0.1216   ZX=     0.3660
   XY=    -0.2696   YY=    25.7137   ZY=     0.8062
   XZ=     0.1628   YZ=    -0.0186   ZZ=    26.7620
   Eigenvalues:    22.5264    25.6058    26.9018
     46  H    Isotropic =    24.2281   Anisotropy =     5.9413
   XX=    21.7444   YX=     1.8925   ZX=     0.4781
   XY=     1.5663   YY=    27.7205   ZY=    -0.8110
   XZ=     1.4417   YZ=     0.0023   ZZ=    23.2194
   Eigenvalues:    20.8333    23.6620    28.1890
     47  H    Isotropic =    25.0370   Anisotropy =     5.6708
   XX=    24.0937   YX=     0.4268   ZX=    -1.0029
   XY=     0.4397   YY=    28.3582   ZY=     1.3451
   XZ=    -0.8078   YZ=     1.9907   ZZ=    22.6593
   Eigenvalues:    21.7842    24.5093    28.8176
     48  H    Isotropic =    28.7452   Anisotropy =     5.8584
   XX=    27.7716   YX=    -0.0953   ZX=    -4.3634
   XY=     0.4984   YY=    27.6276   ZY=     0.1701
   XZ=    -1.2011   YZ=    -2.0782   ZZ=    30.8364
   Eigenvalues:    26.0599    27.5249    32.6508
     49  H    Isotropic =    28.2838   Anisotropy =    10.3339
   XX=    27.6382   YX=     2.1927   ZX=     6.1209
   XY=     0.1557   YY=    26.8090   ZY=    -0.3396
   XZ=     5.8078   YZ=    -0.2697   ZZ=    30.4041
   Eigenvalues:    22.6048    27.0735    35.1730
     50  H    Isotropic =    27.9934   Anisotropy =     8.8733
   XX=    24.9999   YX=     2.4113   ZX=     3.6392
   XY=     1.0341   YY=    32.0303   ZY=     1.5756
   XZ=     4.5269   YZ=     2.4537   ZZ=    26.9500
   Eigenvalues:    21.7760    28.2953    33.9090
     51  H    Isotropic =    27.2246   Anisotropy =     6.4636
   XX=    26.4161   YX=     1.7440   ZX=    -2.0940
   XY=     1.0802   YY=    30.6856   ZY=    -1.2968
   XZ=    -4.4323   YZ=     0.1060   ZZ=    24.5721
   Eigenvalues:    22.0860    28.0542    31.5337
     52  H    Isotropic =    27.1920   Anisotropy =     9.4068
   XX=    32.6571   YX=     2.1719   ZX=     1.0502
   XY=     2.0079   YY=    24.9125   ZY=     2.3364
   XZ=     1.1261   YZ=     2.0278   ZZ=    24.0066
   Eigenvalues:    22.2065    25.9063    33.4633
     53  H    Isotropic =    24.5877   Anisotropy =    13.6819
   XX=    31.3469   YX=    -2.8241   ZX=     3.3457
   XY=    -0.4094   YY=    22.1402   ZY=     1.0491
   XZ=     7.5612   YZ=     0.4781   ZZ=    20.2761
   Eigenvalues:    17.6455    22.4087    33.7090
     54  H    Isotropic =    27.0607   Anisotropy =    11.3677
   XX=    21.5208   YX=     1.1671   ZX=    -3.3905
   XY=     0.1286   YY=    26.2427   ZY=     2.5630
   XZ=    -3.8330   YZ=     0.5444   ZZ=    33.4186
   Eigenvalues:    20.3227    26.2202    34.6391
     55  H    Isotropic =    25.3895   Anisotropy =    14.9201
   XX=    27.2711   YX=    -1.1874   ZX=     5.4465
   XY=    -3.0012   YY=    30.9181   ZY=    -6.5330
   XZ=     4.9597   YZ=    -5.4945   ZZ=    17.9793
   Eigenvalues:    14.2575    26.5748    35.3363
     56  H    Isotropic =    25.4948   Anisotropy =    16.4534
   XX=    31.2499   YX=    -2.6351   ZX=    -4.0161
   XY=    -5.2603   YY=    28.6725   ZY=     6.0993
   XZ=    -3.5612   YZ=     6.3127   ZZ=    16.5619
   Eigenvalues:    13.7077    26.3129    36.4637
     57  H    Isotropic =    27.0493   Anisotropy =    13.6392
   XX=    32.3322   YX=    -3.6928   ZX=     5.2172
   XY=    -3.2228   YY=    20.1585   ZY=    -3.1372
   XZ=     2.7790   YZ=    -2.6060   ZZ=    28.6571
   Eigenvalues:    18.8743    26.1314    36.1421
     58  H    Isotropic =    24.1783   Anisotropy =    12.2844
   XX=    30.4188   YX=     3.5135   ZX=    -1.3460
   XY=     3.5894   YY=    22.6859   ZY=    -0.6570
   XZ=    -3.5941   YZ=    -1.5655   ZZ=    19.4303
   Eigenvalues:    18.8572    21.3099    32.3679
     59  H    Isotropic =    26.8638   Anisotropy =     8.6526
   XX=    27.3829   YX=    -3.4232   ZX=    -4.7253
   XY=    -2.0550   YY=    29.4298   ZY=    -0.0837
   XZ=    -5.2228   YZ=     0.3118   ZZ=    23.7788
   Eigenvalues:    20.0443    27.9149    32.6322
     60  H    Isotropic =    27.4650   Anisotropy =     4.5278
   XX=    30.1401   YX=    -1.2167   ZX=     1.1518
   XY=    -1.2446   YY=    22.6303   ZY=    -1.2766
   XZ=    -2.2023   YZ=    -1.6143   ZZ=    29.6247
   Eigenvalues:    22.1291    29.7824    30.4835
     61  H    Isotropic =    28.5100   Anisotropy =     7.2380
   XX=    30.5543   YX=     1.4437   ZX=    -0.4530
   XY=     3.8166   YY=    30.2481   ZY=     2.9420
   XZ=    -0.2531   YZ=     2.2581   ZZ=    24.7275
   Eigenvalues:    23.4340    28.7606    33.3353
     62  H    Isotropic =    28.0489   Anisotropy =     8.1280
   XX=    29.9074   YX=    -2.7740   ZX=     0.0701
   XY=    -5.3360   YY=    27.7905   ZY=     4.0844
   XZ=     2.1957   YZ=     3.8056   ZZ=    26.4487
   Eigenvalues:    21.5568    29.1223    33.4675
     63  H    Isotropic =    28.8408   Anisotropy =     6.5507
   XX=    30.8341   YX=     0.3393   ZX=    -0.2954
   XY=     0.4702   YY=    27.3861   ZY=    -5.6383
   XZ=     2.0411   YZ=    -4.9306   ZZ=    28.3024
   Eigenvalues:    22.4457    30.8688    33.2080
     64  H    Isotropic =    24.9566   Anisotropy =     6.8627
   XX=    29.2868   YX=    -1.4875   ZX=     0.0251
   XY=    -1.2961   YY=    21.6126   ZY=    -0.7938
   XZ=    -0.2016   YZ=    -0.6460   ZZ=    23.9702
   Eigenvalues:    21.1800    24.1580    29.5317
     65  H    Isotropic =    24.2420   Anisotropy =     8.3705
   XX=    28.8768   YX=    -1.9301   ZX=     1.8812
   XY=    -2.1129   YY=    21.1094   ZY=    -1.3280
   XZ=     1.2749   YZ=    -0.7638   ZZ=    22.7398
   Eigenvalues:    20.4072    22.4965    29.8223
     66  H    Isotropic =    24.9965   Anisotropy =     4.5447
   XX=    27.1293   YX=    -0.6709   ZX=    -1.7216
   XY=    -0.8012   YY=    21.6884   ZY=    -0.5635
   XZ=    -0.8444   YZ=    -0.8731   ZZ=    26.1717
   Eigenvalues:    21.4187    25.5444    28.0263
     67  H    Isotropic =    27.0255   Anisotropy =     7.7210
   XX=    30.2882   YX=    -1.0939   ZX=     0.9201
   XY=    -2.7508   YY=    29.1503   ZY=     1.8615
   XZ=    -2.1827   YZ=     3.4722   ZZ=    21.6381
   Eigenvalues:    20.7876    28.1161    32.1729
     68  H    Isotropic =    28.1268   Anisotropy =     9.5336
   XX=    26.7320   YX=    -2.7025   ZX=    -2.4355
   XY=    -1.5845   YY=    28.7351   ZY=     4.8248
   XZ=    -0.3145   YZ=     4.8932   ZZ=    28.9135
   Eigenvalues:    23.8240    26.0739    34.4826
     69  H    Isotropic =    27.6388   Anisotropy =    10.1850
   XX=    25.7813   YX=    -3.7720   ZX=     0.2327
   XY=    -1.0433   YY=    33.7480   ZY=    -1.2708
   XZ=    -0.6987   YZ=     1.8194   ZZ=    23.3871
   Eigenvalues:    23.3644    25.1233    34.4288
     70  H    Isotropic =    28.1071   Anisotropy =     9.4377
   XX=    27.7991   YX=    -1.2882   ZX=     2.7252
   XY=     0.3491   YY=    25.9414   ZY=    -0.8329
   XZ=     6.1963   YZ=    -3.7349   ZZ=    30.5806
   Eigenvalues:    23.9141    26.0082    34.3989
     71  H    Isotropic =    28.3167   Anisotropy =     8.4932
   XX=    25.0748   YX=     1.4857   ZX=    -0.6219
   XY=     1.8882   YY=    26.5313   ZY=     0.1995
   XZ=    -1.5093   YZ=    -3.5986   ZZ=    33.3442
   Eigenvalues:    23.9654    27.0059    33.9789
     72  H    Isotropic =    28.4331   Anisotropy =     4.6161
   XX=    23.8561   YX=    -0.6550   ZX=     1.0500
   XY=     1.3411   YY=    30.1881   ZY=    -0.5569
   XZ=     1.7468   YZ=     0.4400   ZZ=    31.2550
   Eigenvalues:    23.5823    30.2064    31.5105
     73  H    Isotropic =    28.3112   Anisotropy =     5.7438
   XX=    29.7668   YX=    -2.6998   ZX=     0.2699
   XY=     0.4648   YY=    25.4116   ZY=    -1.3128
   XZ=    -4.7797   YZ=     1.6456   ZZ=    29.7550
   Eigenvalues:    25.1045    27.6886    32.1403
     74  H    Isotropic =    28.7463   Anisotropy =     8.8554
   XX=    25.3390   YX=     0.3930   ZX=     0.2983
   XY=     1.2820   YY=    26.2704   ZY=    -1.7432
   XZ=     0.5651   YZ=     1.5645   ZZ=    34.6296
   Eigenvalues:    24.8286    26.7604    34.6499
     75  H    Isotropic =    28.8917   Anisotropy =     3.4981
   XX=    24.9812   YX=    -1.2525   ZX=    -1.2272
   XY=     1.0632   YY=    31.2070   ZY=     0.6851
   XZ=    -2.2865   YZ=    -0.6165   ZZ=    30.4868
   Eigenvalues:    24.4674    30.9839    31.2237
     76  H    Isotropic =    27.5867   Anisotropy =     8.2039
   XX=    28.0372   YX=    -2.7445   ZX=     1.0067
   XY=    -0.9546   YY=    32.3497   ZY=     0.8798
   XZ=     1.4931   YZ=    -0.9689   ZZ=    22.3732
   Eigenvalues:    22.0979    27.6063    33.0560
     77  H    Isotropic =    26.8461   Anisotropy =     9.3890
   XX=    32.6672   YX=     0.4284   ZX=     0.4648
   XY=    -3.1484   YY=    27.2315   ZY=     0.5799
   XZ=     2.1480   YZ=     0.0006   ZZ=    20.6395
   Eigenvalues:    20.4708    26.9620    33.1054
     78  H    Isotropic =    28.3406   Anisotropy =     8.9923
   XX=    31.1151   YX=     0.1093   ZX=     4.2809
   XY=    -2.4465   YY=    27.1920   ZY=    -3.7100
   XZ=     3.2832   YZ=    -2.7886   ZZ=    26.7147
   Eigenvalues:    23.0839    27.6025    34.3355
 End of Minotr F.D. properties file   721 does not exist.
 End of Minotr F.D. properties file   722 does not exist.
 End of Minotr F.D. properties file   788 does not exist.

 **********************************************************************

            Population analysis using the SCF Density.

 **********************************************************************

 Orbital symmetries:
       Occupied  (A) (A) (A) (A) (A) (A) (A) (A) (A) (A) (A) (A)
                 (A) (A) (A) (A) (A) (A) (A) (A) (A) (A) (A) (A)
                 (A) (A) (A) (A) (A) (A) (A) (A) (A) (A) (A) (A)
                 (A) (A) (A) (A) (A) (A) (A) (A) (A) (A) (A) (A)
                 (A) (A) (A) (A) (A) (A) (A) (A) (A) (A) (A) (A)
                 (A) (A) (A) (A) (A) (A) (A) (A) (A) (A) (A) (A)
                 (A) (A) (A) (A) (A) (A) (A) (A) (A) (A) (A) (A)
                 (A) (A) (A) (A) (A) (A) (A) (A) (A) (A) (A) (A)
                 (A) (A) (A) (A) (A) (A) (A) (A) (A) (A) (A) (A)
                 (A) (A) (A) (A) (A) (A) (A) (A) (A) (A) (A) (A)
                 (A) (A) (A) (A) (A) (A) (A) (A) (A) (A) (A) (A)
                 (A) (A) (A) (A) (A) (A) (A) (A) (A) (A) (A) (A)
                 (A) (A) (A) (A) (A) (A) (A) (A) (A) (A) (A) (A)
                 (A) (A) (A)
       Virtual   (A) (A) (A) (A) (A) (A) (A) (A) (A) (A) (A) (A)
                 (A) (A) (A) (A) (A) (A) (A) (A) (A) (A) (A) (A)
                 (A) (A) (A) (A) (A) (A) (A) (A) (A) (A) (A) (A)
                 (A) (A) (A) (A) (A) (A) (A) (A) (A) (A) (A) (A)
                 (A) (A) (A) (A) (A) (A) (A) (A) (A) (A) (A) (A)
                 (A) (A) (A) (A) (A) (A) (A) (A) (A) (A) (A) (A)
                 (A) (A) (A) (A) (A) (A) (A) (A) (A) (A) (A) (A)
                 (A) (A) (A) (A) (A) (A) (A) (A) (A) (A) (A) (A)
                 (A) (A) (A) (A) (A) (A) (A) (A) (A) (A) (A) (A)
                 (A) (A) (A) (A) (A) (A) (A) (A) (A) (A) (A) (A)
                 (A) (A) (A) (A) (A) (A) (A) (A) (A) (A) (A) (A)
                 (A) (A) (A) (A) (A) (A) (A) (A) (A) (A) (A) (A)
                 (A) (A) (A) (A) (A) (A) (A) (A) (A) (A) (A) (A)
                 (A) (A) (A) (A) (A) (A) (A) (A) (A) (A) (A) (A)
                 (A) (A) (A) (A) (A) (A) (A) (A) (A) (A) (A) (A)
                 (A) (A) (A) (A) (A) (A) (A) (A) (A) (A) (A) (A)
                 (A) (A) (A) (A) (A) (A) (A) (A) (A) (A) (A) (A)
                 (A) (A) (A) (A) (A) (A) (A) (A) (A) (A) (A) (A)
                 (A) (A) (A) (A) (A) (A) (A) (A) (A) (A) (A) (A)
                 (A) (A) (A) (A) (A) (A) (A) (A) (A) (A) (A) (A)
                 (A) (A) (A) (A) (A) (A) (A) (A) (A) (A) (A) (A)
                 (A) (A) (A) (A) (A) (A) (A) (A) (A) (A) (A) (A)
                 (A) (A) (A) (A) (A) (A) (A) (A) (A) (A) (A) (A)
                 (A) (A) (A) (A) (A) (A) (A) (A) (A) (A) (A) (A)
                 (A) (A) (A) (A) (A) (A) (A) (A) (A) (A) (A) (A)
                 (A) (A) (A) (A) (A) (A) (A) (A) (A) (A) (A) (A)
                 (A) (A) (A) (A) (A) (A) (A) (A) (A) (A) (A) (A)
                 (A) (A) (A) (A) (A) (A) (A) (A) (A) (A) (A) (A)
                 (A) (A) (A) (A) (A) (A) (A) (A) (A) (A) (A) (A)
                 (A) (A) (A) (A) (A) (A) (A) (A) (A) (A) (A) (A)
                 (A) (A) (A) (A) (A) (A) (A) (A) (A) (A) (A) (A)
                 (A) (A) (A) (A) (A) (A) (A) (A) (A) (A) (A) (A)
                 (A) (A) (A) (A) (A) (A) (A) (A) (A) (A) (A) (A)
                 (A) (A) (A) (A) (A) (A) (A) (A) (A) (A) (A) (A)
                 (A) (A) (A) (A) (A) (A) (A) (A) (A) (A) (A) (A)
                 (A) (A) (A) (A) (A) (A) (A) (A) (A) (A) (A) (A)
                 (A) (A) (A) (A) (A) (A) (A) (A) (A) (A) (A) (A)
                 (A) (A) (A) (A) (A) (A) (A) (A) (A) (A) (A) (A)
                 (A) (A) (A) (A) (A) (A) (A) (A) (A) (A) (A) (A)
                 (A) (A) (A) (A) (A) (A) (A) (A) (A) (A) (A) (A)
                 (A) (A) (A) (A) (A) (A) (A) (A) (A) (A) (A) (A)
                 (A) (A) (A) (A) (A) (A) (A) (A) (A) (A) (A) (A)
                 (A) (A) (A) (A) (A) (A) (A) (A) (A) (A) (A) (A)
                 (A) (A) (A) (A) (A) (A) (A) (A) (A) (A) (A) (A)
                 (A) (A) (A) (A) (A) (A) (A) (A) (A) (A) (A) (A)
                 (A) (A) (A) (A) (A) (A) (A) (A) (A) (A) (A) (A)
                 (A) (A) (A) (A) (A) (A) (A) (A) (A) (A) (A) (A)
                 (A) (A) (A) (A) (A) (A) (A) (A) (A) (A) (A) (A)
                 (A) (A) (A) (A) (A) (A) (A) (A) (A) (A) (A) (A)
                 (A) (A) (A) (A) (A) (A) (A) (A) (A) (A) (A) (A)
                 (A) (A) (A) (A) (A) (A) (A) (A) (A) (A) (A) (A)
                 (A) (A) (A) (A) (A) (A) (A) (A) (A) (A) (A) (A)
                 (A) (A) (A) (A) (A) (A) (A) (A) (A) (A) (A) (A)
                 (A) (A) (A) (A) (A) (A) (A) (A) (A) (A) (A) (A)
                 (A) (A) (A) (A) (A) (A) (A) (A) (A) (A) (A) (A)
                 (A) (A) (A) (A) (A) (A) (A) (A) (A) (A) (A) (A)
                 (A) (A) (A) (A) (A) (A) (A) (A) (A) (A) (A) (A)
                 (A) (A) (A) (A) (A) (A) (A) (A) (A) (A) (A) (A)
                 (A) (A) (A) (A) (A) (A) (A) (A) (A) (A) (A) (A)
                 (A) (A) (A) (A) (A) (A) (A) (A) (A) (A) (A) (A)
                 (A) (A) (A) (A) (A) (A) (A) (A) (A) (A) (A) (A)
                 (A) (A) (A) (A) (A) (A) (A) (A) (A) (A) (A) (A)
                 (A) (A) (A) (A) (A) (A) (A) (A) (A) (A) (A) (A)
                 (A) (A) (A) (A) (A) (A) (A) (A) (A) (A) (A) (A)
                 (A) (A) (A) (A) (A) (A) (A) (A) (A) (A) (A) (A)
                 (A) (A) (A) (A) (A) (A) (A) (A) (A) (A) (A) (A)
                 (A) (A) (A) (A) (A) (A) (A) (A) (A) (A) (A) (A)
                 (A) (A) (A) (A) (A) (A) (A) (A) (A) (A) (A) (A)
                 (A) (A) (A) (A) (A) (A) (A) (A) (A) (A) (A) (A)
                 (A) (A) (A) (A) (A) (A) (A) (A) (A) (A) (A) (A)
                 (A) (A) (A) (A) (A) (A) (A) (A) (A) (A) (A) (A)
                 (A) (A) (A) (A) (A) (A) (A) (A) (A) (A) (A) (A)
                 (A) (A) (A) (A) (A) (A) (A) (A) (A) (A) (A) (A)
                 (A) (A) (A) (A) (A) (A) (A) (A) (A) (A) (A) (A)
                 (A) (A) (A) (A) (A) (A) (A) (A) (A) (A) (A) (A)
                 (A) (A) (A) (A) (A) (A) (A) (A) (A) (A) (A) (A)
                 (A) (A) (A) (A) (A) (A) (A) (A) (A) (A) (A) (A)
                 (A) (A) (A) (A) (A) (A) (A) (A) (A) (A) (A) (A)
                 (A) (A) (A) (A) (A) (A) (A) (A) (A) (A) (A) (A)
                 (A) (A) (A) (A) (A) (A) (A) (A) (A) (A) (A) (A)
                 (A) (A) (A) (A) (A) (A) (A) (A) (A) (A) (A) (A)
                 (A) (A) (A) (A) (A) (A) (A) (A) (A) (A) (A) (A)
                 (A) (A) (A) (A) (A) (A) (A) (A) (A) (A) (A) (A)
                 (A) (A) (A) (A) (A) (A) (A) (A) (A) (A) (A) (A)
                 (A) (A) (A) (A) (A) (A) (A) (A) (A) (A) (A) (A)
                 (A) (A) (A) (A) (A) (A) (A) (A) (A) (A) (A) (A)
                 (A) (A) (A) (A) (A) (A) (A) (A) (A) (A) (A) (A)
                 (A) (A) (A) (A) (A) (A) (A) (A) (A) (A) (A) (A)
                 (A) (A) (A) (A) (A) (A) (A) (A) (A) (A) (A) (A)
                 (A) (A) (A) (A) (A) (A) (A) (A) (A) (A) (A) (A)
                 (A) (A) (A) (A) (A) (A) (A) (A) (A) (A) (A) (A)
                 (A) (A) (A) (A) (A) (A) (A) (A) (A) (A) (A) (A)
                 (A) (A) (A) (A) (A) (A) (A) (A) (A) (A) (A) (A)
                 (A) (A) (A) (A) (A) (A) (A) (A) (A) (A) (A) (A)
                 (A) (A) (A) (A) (A) (A) (A) (A) (A) (A) (A) (A)
                 (A) (A) (A) (A) (A) (A) (A) (A) (A) (A) (A) (A)
                 (A) (A) (A) (A) (A) (A) (A) (A) (A) (A) (A) (A)
                 (A) (A) (A) (A) (A) (A) (A) (A) (A) (A) (A) (A)
                 (A) (A) (A) (A) (A) (A) (A) (A) (A) (A) (A) (A)
                 (A) (A) (A) (A) (A) (A) (A) (A) (A) (A) (A) (A)
                 (A) (A) (A) (A) (A) (A) (A) (A) (A) (A) (A) (A)
                 (A) (A) (A) (A) (A) (A) (A)
 The electronic state is 1-A.
 Alpha  occ. eigenvalues --  -19.25131 -19.25037 -19.24928 -19.24921 -19.24857
 Alpha  occ. eigenvalues --  -19.24787 -19.24538 -19.24474 -19.23589 -19.23299
 Alpha  occ. eigenvalues --  -10.30090 -10.30049 -10.29919 -10.29842 -10.29821
 Alpha  occ. eigenvalues --  -10.29582 -10.29522 -10.29499 -10.29404 -10.29082
 Alpha  occ. eigenvalues --  -10.28071 -10.27857 -10.27180 -10.27032 -10.26992
 Alpha  occ. eigenvalues --  -10.26759 -10.24752 -10.24661 -10.24629 -10.24596
 Alpha  occ. eigenvalues --  -10.24527 -10.24425 -10.23929 -10.23857 -10.23686
 Alpha  occ. eigenvalues --  -10.23627 -10.23615 -10.23366 -10.23347 -10.23168
 Alpha  occ. eigenvalues --  -10.23050 -10.22912 -10.22887 -10.22604  -1.11061
 Alpha  occ. eigenvalues --   -1.10928  -1.09402  -1.09345  -1.09146  -1.08949
 Alpha  occ. eigenvalues --   -1.08697  -1.08602  -1.07151  -1.07100  -0.89478
 Alpha  occ. eigenvalues --   -0.88147  -0.87898  -0.87643  -0.84283  -0.83499
 Alpha  occ. eigenvalues --   -0.79796  -0.78546  -0.78084  -0.77670  -0.77631
 Alpha  occ. eigenvalues --   -0.75866  -0.75271  -0.75024  -0.72540  -0.71492
 Alpha  occ. eigenvalues --   -0.69829  -0.69600  -0.68870  -0.68582  -0.65949
 Alpha  occ. eigenvalues --   -0.65737  -0.65099  -0.63886  -0.63155  -0.62409
 Alpha  occ. eigenvalues --   -0.61174  -0.60684  -0.59033  -0.57954  -0.57162
 Alpha  occ. eigenvalues --   -0.56871  -0.56062  -0.55605  -0.53768  -0.53409
 Alpha  occ. eigenvalues --   -0.52977  -0.52523  -0.51689  -0.51371  -0.50698
 Alpha  occ. eigenvalues --   -0.50060  -0.49510  -0.49127  -0.49052  -0.48544
 Alpha  occ. eigenvalues --   -0.48277  -0.48267  -0.46861  -0.46627  -0.46421
 Alpha  occ. eigenvalues --   -0.46172  -0.45791  -0.45736  -0.45281  -0.45193
 Alpha  occ. eigenvalues --   -0.44849  -0.44498  -0.44350  -0.43885  -0.43690
 Alpha  occ. eigenvalues --   -0.43122  -0.43052  -0.42881  -0.42309  -0.41857
 Alpha  occ. eigenvalues --   -0.41618  -0.41290  -0.41188  -0.40705  -0.40411
 Alpha  occ. eigenvalues --   -0.40248  -0.39996  -0.39875  -0.39430  -0.39261
 Alpha  occ. eigenvalues --   -0.38856  -0.37223  -0.37021  -0.36748  -0.36635
 Alpha  occ. eigenvalues --   -0.36520  -0.36501  -0.35514  -0.34889  -0.34303
 Alpha  occ. eigenvalues --   -0.34194  -0.33785  -0.33365  -0.32867  -0.32410
 Alpha  occ. eigenvalues --   -0.32296  -0.31830  -0.31592  -0.31046  -0.28855
 Alpha  occ. eigenvalues --   -0.28679  -0.25143  -0.24902  -0.24602  -0.24536
 Alpha  occ. eigenvalues --   -0.23971  -0.22538  -0.22162  -0.21506
 Alpha virt. eigenvalues --   -0.02021  -0.01092  -0.00902  -0.00543  -0.00362
 Alpha virt. eigenvalues --    0.00266   0.00553   0.00945   0.01122   0.01235
 Alpha virt. eigenvalues --    0.01496   0.01610   0.02004   0.02375   0.02522
 Alpha virt. eigenvalues --    0.02788   0.02951   0.03173   0.03620   0.03693
 Alpha virt. eigenvalues --    0.04040   0.04153   0.04488   0.04624   0.04948
 Alpha virt. eigenvalues --    0.05113   0.05404   0.05705   0.05852   0.06197
 Alpha virt. eigenvalues --    0.06373   0.06416   0.06607   0.06839   0.07314
 Alpha virt. eigenvalues --    0.07566   0.07823   0.08316   0.08591   0.08783
 Alpha virt. eigenvalues --    0.08990   0.09084   0.09492   0.09601   0.09870
 Alpha virt. eigenvalues --    0.10064   0.10199   0.10416   0.10825   0.11111
 Alpha virt. eigenvalues --    0.11286   0.11388   0.11511   0.11975   0.12104
 Alpha virt. eigenvalues --    0.12231   0.12551   0.12622   0.12891   0.13153
 Alpha virt. eigenvalues --    0.13334   0.13543   0.13639   0.13862   0.14004
 Alpha virt. eigenvalues --    0.14253   0.14448   0.14718   0.14880   0.15159
 Alpha virt. eigenvalues --    0.15227   0.15522   0.15550   0.15717   0.15867
 Alpha virt. eigenvalues --    0.16113   0.16137   0.16485   0.16625   0.16815
 Alpha virt. eigenvalues --    0.16891   0.16945   0.17143   0.17249   0.17570
 Alpha virt. eigenvalues --    0.17712   0.17855   0.17898   0.18117   0.18318
 Alpha virt. eigenvalues --    0.18360   0.18535   0.18848   0.19023   0.19108
 Alpha virt. eigenvalues --    0.19213   0.19385   0.19573   0.19716   0.19930
 Alpha virt. eigenvalues --    0.20243   0.20326   0.20521   0.20727   0.20840
 Alpha virt. eigenvalues --    0.20998   0.21049   0.21075   0.21465   0.21560
 Alpha virt. eigenvalues --    0.21811   0.21953   0.22049   0.22204   0.22295
 Alpha virt. eigenvalues --    0.22454   0.22601   0.22675   0.22915   0.22964
 Alpha virt. eigenvalues --    0.23148   0.23406   0.23492   0.23659   0.23720
 Alpha virt. eigenvalues --    0.23881   0.23960   0.24026   0.24153   0.24671
 Alpha virt. eigenvalues --    0.24715   0.25098   0.25129   0.25339   0.25714
 Alpha virt. eigenvalues --    0.25806   0.26088   0.26098   0.26353   0.26429
 Alpha virt. eigenvalues --    0.26592   0.26722   0.26891   0.26923   0.27028
 Alpha virt. eigenvalues --    0.27315   0.27422   0.27452   0.27628   0.27925
 Alpha virt. eigenvalues --    0.28010   0.28282   0.28489   0.28659   0.28764
 Alpha virt. eigenvalues --    0.28918   0.29148   0.29263   0.29494   0.29576
 Alpha virt. eigenvalues --    0.29837   0.29969   0.30087   0.30395   0.30584
 Alpha virt. eigenvalues --    0.30620   0.30938   0.30980   0.31176   0.31393
 Alpha virt. eigenvalues --    0.31593   0.31770   0.32014   0.32053   0.32477
 Alpha virt. eigenvalues --    0.32651   0.32858   0.32897   0.33130   0.33312
 Alpha virt. eigenvalues --    0.33464   0.33521   0.33837   0.34221   0.34280
 Alpha virt. eigenvalues --    0.34375   0.34745   0.34805   0.34941   0.35218
 Alpha virt. eigenvalues --    0.35351   0.35580   0.35844   0.35890   0.36051
 Alpha virt. eigenvalues --    0.36212   0.36314   0.36616   0.36980   0.37190
 Alpha virt. eigenvalues --    0.37407   0.37539   0.37686   0.37792   0.38027
 Alpha virt. eigenvalues --    0.38274   0.38370   0.38632   0.38908   0.39252
 Alpha virt. eigenvalues --    0.39400   0.39705   0.39872   0.40060   0.40201
 Alpha virt. eigenvalues --    0.40337   0.40499   0.40951   0.41319   0.41576
 Alpha virt. eigenvalues --    0.41728   0.41798   0.42093   0.42373   0.42839
 Alpha virt. eigenvalues --    0.42889   0.43344   0.43441   0.43822   0.44214
 Alpha virt. eigenvalues --    0.44423   0.44677   0.45002   0.45328   0.45611
 Alpha virt. eigenvalues --    0.45841   0.46316   0.46505   0.47128   0.47417
 Alpha virt. eigenvalues --    0.47509   0.47708   0.47969   0.48392   0.48496
 Alpha virt. eigenvalues --    0.48729   0.49202   0.49393   0.49763   0.49828
 Alpha virt. eigenvalues --    0.50970   0.51317   0.51748   0.52391   0.52638
 Alpha virt. eigenvalues --    0.52939   0.53105   0.53327   0.53716   0.54273
 Alpha virt. eigenvalues --    0.54364   0.54511   0.54913   0.55180   0.55364
 Alpha virt. eigenvalues --    0.55722   0.56066   0.56278   0.56591   0.57008
 Alpha virt. eigenvalues --    0.57180   0.57373   0.57761   0.57905   0.58304
 Alpha virt. eigenvalues --    0.58578   0.58689   0.58980   0.59177   0.59674
 Alpha virt. eigenvalues --    0.59737   0.59909   0.60294   0.60905   0.60999
 Alpha virt. eigenvalues --    0.61115   0.61513   0.61767   0.62120   0.62610
 Alpha virt. eigenvalues --    0.62957   0.63145   0.63396   0.63509   0.63564
 Alpha virt. eigenvalues --    0.63799   0.64059   0.64461   0.64532   0.65103
 Alpha virt. eigenvalues --    0.65143   0.65653   0.65987   0.66054   0.66365
 Alpha virt. eigenvalues --    0.66444   0.66688   0.66885   0.66971   0.67261
 Alpha virt. eigenvalues --    0.67512   0.67784   0.67921   0.68373   0.68474
 Alpha virt. eigenvalues --    0.68590   0.68973   0.69070   0.69088   0.69325
 Alpha virt. eigenvalues --    0.69710   0.70107   0.70252   0.70580   0.70705
 Alpha virt. eigenvalues --    0.70848   0.71230   0.71547   0.71696   0.72036
 Alpha virt. eigenvalues --    0.72156   0.72484   0.72605   0.72799   0.72879
 Alpha virt. eigenvalues --    0.73239   0.73298   0.73631   0.73706   0.74075
 Alpha virt. eigenvalues --    0.74395   0.74649   0.75066   0.75263   0.75486
 Alpha virt. eigenvalues --    0.75570   0.75784   0.76080   0.76241   0.76394
 Alpha virt. eigenvalues --    0.76825   0.77116   0.77419   0.77714   0.77889
 Alpha virt. eigenvalues --    0.78127   0.78180   0.78299   0.78676   0.79034
 Alpha virt. eigenvalues --    0.79308   0.79385   0.79756   0.79855   0.80277
 Alpha virt. eigenvalues --    0.80473   0.80821   0.81077   0.81229   0.81446
 Alpha virt. eigenvalues --    0.81935   0.81963   0.82397   0.82643   0.82868
 Alpha virt. eigenvalues --    0.83343   0.83407   0.83656   0.83767   0.84232
 Alpha virt. eigenvalues --    0.84447   0.84608   0.84949   0.85340   0.85464
 Alpha virt. eigenvalues --    0.85793   0.85988   0.86327   0.86578   0.86758
 Alpha virt. eigenvalues --    0.86929   0.87315   0.87432   0.87677   0.88201
 Alpha virt. eigenvalues --    0.88741   0.88870   0.89486   0.89754   0.90160
 Alpha virt. eigenvalues --    0.90418   0.90581   0.90824   0.91058   0.91143
 Alpha virt. eigenvalues --    0.91955   0.92114   0.92279   0.92341   0.92683
 Alpha virt. eigenvalues --    0.93025   0.93320   0.93489   0.93698   0.94942
 Alpha virt. eigenvalues --    0.95262   0.95486   0.95802   0.96627   0.97121
 Alpha virt. eigenvalues --    0.97593   0.98045   0.98312   0.98495   0.99260
 Alpha virt. eigenvalues --    0.99614   0.99874   1.00178   1.00415   1.00591
 Alpha virt. eigenvalues --    1.01003   1.01575   1.01654   1.02060   1.02540
 Alpha virt. eigenvalues --    1.03217   1.03596   1.03875   1.04150   1.04367
 Alpha virt. eigenvalues --    1.04774   1.05025   1.05711   1.06163   1.06410
 Alpha virt. eigenvalues --    1.06948   1.07512   1.07848   1.08024   1.08157
 Alpha virt. eigenvalues --    1.08921   1.09241   1.09516   1.09926   1.10282
 Alpha virt. eigenvalues --    1.10370   1.10752   1.11368   1.11669   1.12005
 Alpha virt. eigenvalues --    1.12285   1.12393   1.13105   1.13403   1.13813
 Alpha virt. eigenvalues --    1.14287   1.14604   1.15159   1.15632   1.16342
 Alpha virt. eigenvalues --    1.16462   1.16621   1.16778   1.17141   1.17277
 Alpha virt. eigenvalues --    1.17609   1.17736   1.18345   1.18675   1.18840
 Alpha virt. eigenvalues --    1.19257   1.19445   1.20202   1.20412   1.20495
 Alpha virt. eigenvalues --    1.20722   1.21108   1.21302   1.21592   1.21948
 Alpha virt. eigenvalues --    1.22138   1.22598   1.22873   1.23352   1.23627
 Alpha virt. eigenvalues --    1.24052   1.24454   1.24893   1.25192   1.25458
 Alpha virt. eigenvalues --    1.25656   1.25994   1.26338   1.26957   1.27192
 Alpha virt. eigenvalues --    1.27641   1.27753   1.27891   1.28171   1.28827
 Alpha virt. eigenvalues --    1.29295   1.29387   1.29817   1.30085   1.30327
 Alpha virt. eigenvalues --    1.30908   1.31162   1.31517   1.32071   1.32423
 Alpha virt. eigenvalues --    1.32491   1.32732   1.33348   1.33408   1.33794
 Alpha virt. eigenvalues --    1.34811   1.34861   1.35220   1.35404   1.35713
 Alpha virt. eigenvalues --    1.36015   1.36387   1.36728   1.37072   1.37242
 Alpha virt. eigenvalues --    1.37457   1.37561   1.38616   1.38660   1.38759
 Alpha virt. eigenvalues --    1.39306   1.39681   1.39790   1.40246   1.40457
 Alpha virt. eigenvalues --    1.40798   1.41278   1.41878   1.42401   1.42483
 Alpha virt. eigenvalues --    1.42913   1.43121   1.43531   1.44418   1.44819
 Alpha virt. eigenvalues --    1.45043   1.45507   1.45608   1.46037   1.46397
 Alpha virt. eigenvalues --    1.47151   1.47367   1.47967   1.48558   1.48919
 Alpha virt. eigenvalues --    1.49579   1.49765   1.50408   1.50717   1.50979
 Alpha virt. eigenvalues --    1.51360   1.51757   1.52644   1.53190   1.53523
 Alpha virt. eigenvalues --    1.53793   1.54767   1.55089   1.55473   1.56259
 Alpha virt. eigenvalues --    1.56430   1.56655   1.57359   1.57587   1.57778
 Alpha virt. eigenvalues --    1.58104   1.58419   1.59020   1.59191   1.60173
 Alpha virt. eigenvalues --    1.60371   1.60974   1.61261   1.61757   1.62110
 Alpha virt. eigenvalues --    1.62487   1.63230   1.64044   1.64715   1.65385
 Alpha virt. eigenvalues --    1.65776   1.66260   1.66921   1.67803   1.68324
 Alpha virt. eigenvalues --    1.68688   1.69642   1.70401   1.71156   1.71322
 Alpha virt. eigenvalues --    1.71791   1.72466   1.72516   1.72901   1.73544
 Alpha virt. eigenvalues --    1.73764   1.74299   1.74416   1.75201   1.76021
 Alpha virt. eigenvalues --    1.76347   1.76455   1.77379   1.77787   1.77920
 Alpha virt. eigenvalues --    1.78394   1.78906   1.79559   1.79638   1.80605
 Alpha virt. eigenvalues --    1.80755   1.81341   1.82004   1.82687   1.83076
 Alpha virt. eigenvalues --    1.83514   1.83888   1.84399   1.84653   1.85377
 Alpha virt. eigenvalues --    1.85873   1.86470   1.87088   1.88018   1.88452
 Alpha virt. eigenvalues --    1.88829   1.89483   1.90550   1.91238   1.91863
 Alpha virt. eigenvalues --    1.92366   1.93171   1.93801   1.94804   1.95442
 Alpha virt. eigenvalues --    1.95810   1.96423   1.97215   1.98191   1.98196
 Alpha virt. eigenvalues --    1.98405   1.98659   1.99211   1.99696   2.00031
 Alpha virt. eigenvalues --    2.00301   2.00415   2.00916   2.01105   2.01737
 Alpha virt. eigenvalues --    2.02456   2.02800   2.03351   2.03937   2.04824
 Alpha virt. eigenvalues --    2.05800   2.06247   2.06689   2.07157   2.07362
 Alpha virt. eigenvalues --    2.08277   2.08749   2.09156   2.09726   2.10421
 Alpha virt. eigenvalues --    2.11382   2.11835   2.12025   2.13437   2.14135
 Alpha virt. eigenvalues --    2.14656   2.15062   2.16557   2.17447   2.18341
 Alpha virt. eigenvalues --    2.18517   2.19899   2.20043   2.20991   2.22179
 Alpha virt. eigenvalues --    2.22877   2.23345   2.24938   2.25856   2.26542
 Alpha virt. eigenvalues --    2.27166   2.27907   2.28363   2.29234   2.29369
 Alpha virt. eigenvalues --    2.29764   2.30029   2.30398   2.31015   2.32052
 Alpha virt. eigenvalues --    2.32193   2.33302   2.33780   2.34030   2.34248
 Alpha virt. eigenvalues --    2.34516   2.35005   2.35548   2.36356   2.36518
 Alpha virt. eigenvalues --    2.36901   2.38509   2.38968   2.39474   2.40300
 Alpha virt. eigenvalues --    2.40609   2.40813   2.40946   2.41802   2.42255
 Alpha virt. eigenvalues --    2.43058   2.43805   2.44269   2.44427   2.44972
 Alpha virt. eigenvalues --    2.45662   2.46040   2.46233   2.46464   2.46872
 Alpha virt. eigenvalues --    2.47669   2.47807   2.48180   2.48322   2.49113
 Alpha virt. eigenvalues --    2.49227   2.51136   2.51555   2.51993   2.52811
 Alpha virt. eigenvalues --    2.53358   2.53727   2.55323   2.56494   2.58365
 Alpha virt. eigenvalues --    2.58603   2.59429   2.60297   2.61587   2.61934
 Alpha virt. eigenvalues --    2.62578   2.63321   2.63960   2.64501   2.64860
 Alpha virt. eigenvalues --    2.66056   2.66128   2.66870   2.67754   2.68160
 Alpha virt. eigenvalues --    2.69472   2.69659   2.69979   2.71821   2.72849
 Alpha virt. eigenvalues --    2.73570   2.73627   2.74847   2.75814   2.76846
 Alpha virt. eigenvalues --    2.77569   2.78667   2.78902   2.79267   2.79564
 Alpha virt. eigenvalues --    2.79744   2.80220   2.81239   2.82389   2.83460
 Alpha virt. eigenvalues --    2.84352   2.84640   2.85782   2.86323   2.87547
 Alpha virt. eigenvalues --    2.87814   2.88177   2.89004   2.89137   2.89553
 Alpha virt. eigenvalues --    2.90174   2.91224   2.92685   2.93511   2.93934
 Alpha virt. eigenvalues --    2.94340   2.94636   2.95332   2.96316   2.97224
 Alpha virt. eigenvalues --    2.97940   2.98628   2.99035   2.99528   2.99887
 Alpha virt. eigenvalues --    3.01061   3.01294   3.01446   3.02412   3.03154
 Alpha virt. eigenvalues --    3.03539   3.04483   3.04700   3.04878   3.05106
 Alpha virt. eigenvalues --    3.05429   3.06112   3.06926   3.07032   3.07911
 Alpha virt. eigenvalues --    3.08734   3.08962   3.09858   3.10099   3.10700
 Alpha virt. eigenvalues --    3.11260   3.12877   3.13314   3.13612   3.13921
 Alpha virt. eigenvalues --    3.14849   3.15251   3.16091   3.17351   3.17549
 Alpha virt. eigenvalues --    3.18692   3.18922   3.19942   3.20929   3.21065
 Alpha virt. eigenvalues --    3.21789   3.22082   3.23343   3.23584   3.24590
 Alpha virt. eigenvalues --    3.24981   3.25788   3.26264   3.26352   3.26641
 Alpha virt. eigenvalues --    3.27419   3.27837   3.28320   3.28900   3.29551
 Alpha virt. eigenvalues --    3.30112   3.30913   3.31102   3.31422   3.32835
 Alpha virt. eigenvalues --    3.33696   3.33759   3.34824   3.35285   3.35672
 Alpha virt. eigenvalues --    3.35875   3.36823   3.37318   3.37815   3.38061
 Alpha virt. eigenvalues --    3.38535   3.39007   3.39270   3.39632   3.39850
 Alpha virt. eigenvalues --    3.40234   3.40462   3.41344   3.41835   3.42496
 Alpha virt. eigenvalues --    3.42697   3.43424   3.43734   3.44057   3.44679
 Alpha virt. eigenvalues --    3.44973   3.45264   3.45801   3.46096   3.46425
 Alpha virt. eigenvalues --    3.46628   3.47217   3.47424   3.47742   3.48159
 Alpha virt. eigenvalues --    3.48832   3.49490   3.49771   3.50308   3.50534
 Alpha virt. eigenvalues --    3.50796   3.51447   3.51711   3.52362   3.52798
 Alpha virt. eigenvalues --    3.53192   3.53727   3.53935   3.54661   3.54921
 Alpha virt. eigenvalues --    3.55445   3.56415   3.56921   3.57124   3.57810
 Alpha virt. eigenvalues --    3.58240   3.58536   3.58965   3.59278   3.59736
 Alpha virt. eigenvalues --    3.60412   3.60506   3.61387   3.61665   3.62058
 Alpha virt. eigenvalues --    3.62203   3.62627   3.63206   3.63322   3.63736
 Alpha virt. eigenvalues --    3.64175   3.64545   3.65271   3.65654   3.65889
 Alpha virt. eigenvalues --    3.66146   3.66500   3.66725   3.67096   3.67506
 Alpha virt. eigenvalues --    3.68154   3.68525   3.68716   3.69052   3.69500
 Alpha virt. eigenvalues --    3.70273   3.70580   3.70713   3.71313   3.71899
 Alpha virt. eigenvalues --    3.72194   3.72995   3.73158   3.73352   3.74228
 Alpha virt. eigenvalues --    3.74853   3.75095   3.75446   3.76046   3.76304
 Alpha virt. eigenvalues --    3.76746   3.77098   3.77436   3.78184   3.78523
 Alpha virt. eigenvalues --    3.79538   3.79840   3.80244   3.80880   3.81513
 Alpha virt. eigenvalues --    3.82007   3.82179   3.83113   3.83616   3.83628
 Alpha virt. eigenvalues --    3.84725   3.85265   3.85493   3.85646   3.86632
 Alpha virt. eigenvalues --    3.87163   3.87550   3.87886   3.88025   3.88148
 Alpha virt. eigenvalues --    3.88580   3.89826   3.90499   3.90654   3.91828
 Alpha virt. eigenvalues --    3.92366   3.92562   3.93033   3.94048   3.94210
 Alpha virt. eigenvalues --    3.95198   3.95560   3.96705   3.97207   3.97709
 Alpha virt. eigenvalues --    3.98433   3.99022   3.99498   3.99985   4.01362
 Alpha virt. eigenvalues --    4.01643   4.02429   4.02932   4.03419   4.05514
 Alpha virt. eigenvalues --    4.06719   4.08161   4.08480   4.08720   4.09231
 Alpha virt. eigenvalues --    4.10097   4.10469   4.12037   4.12666   4.12703
 Alpha virt. eigenvalues --    4.13966   4.14373   4.14966   4.16665   4.17474
 Alpha virt. eigenvalues --    4.19156   4.20231   4.20385   4.21049   4.22283
 Alpha virt. eigenvalues --    4.22543   4.23393   4.23913   4.24751   4.24911
 Alpha virt. eigenvalues --    4.25490   4.27502   4.27643   4.28338   4.28852
 Alpha virt. eigenvalues --    4.29282   4.29877   4.31146   4.31378   4.31894
 Alpha virt. eigenvalues --    4.32724   4.34303   4.34895   4.36657   4.37568
 Alpha virt. eigenvalues --    4.42410   4.44424   4.45752   4.46369   4.47313
 Alpha virt. eigenvalues --    4.49176   4.50336   4.51538   4.54100   4.54959
 Alpha virt. eigenvalues --    4.56902   4.57964   4.62202   4.63598   4.68320
 Alpha virt. eigenvalues --    4.69463   4.72485   4.79464   4.80642   4.82343
 Alpha virt. eigenvalues --    4.83139   4.84357   4.87665   4.92604   4.94335
 Alpha virt. eigenvalues --    5.06016   5.06975   5.10233   5.11975   5.13164
 Alpha virt. eigenvalues --    5.17042   5.23826   5.24554   5.25475   5.28216
 Alpha virt. eigenvalues --    5.29330   5.30800   5.31204   5.43649   5.45237
 Alpha virt. eigenvalues --    5.49220   5.54079   5.55389   5.58423   5.59934
 Alpha virt. eigenvalues --    5.60792   5.61532   5.63589   5.71573   5.74017
 Alpha virt. eigenvalues --    5.85258   5.87633   5.94082   5.96154   5.96634
 Alpha virt. eigenvalues --    6.00657   6.02506   6.02839   6.04952   6.05480
 Alpha virt. eigenvalues --    6.87270   6.88014   6.89849   6.91855   6.98078
 Alpha virt. eigenvalues --    6.99204   6.99362   6.99491   7.03446   7.04744
 Alpha virt. eigenvalues --    7.05258   7.05550   7.07222   7.07333   7.08061
 Alpha virt. eigenvalues --    7.08640   7.09009   7.10377   7.11058   7.11120
 Alpha virt. eigenvalues --    7.12483   7.13150   7.14483   7.15870   7.16589
 Alpha virt. eigenvalues --    7.18815   7.21730   7.22762   7.26857   7.28043
 Alpha virt. eigenvalues --    7.31588   7.32788   7.35143   7.35749   7.37545
 Alpha virt. eigenvalues --    7.37900   7.39472   7.40322   7.41132   7.42959
 Alpha virt. eigenvalues --    7.44621   7.47002   7.49282   7.50730   7.55731
 Alpha virt. eigenvalues --    7.56754   7.58568   7.58823   7.60036   7.62014
 Alpha virt. eigenvalues --   23.77814  23.81925  23.83134  23.88633  24.01047
 Alpha virt. eigenvalues --   24.02725  24.06736  24.07292  24.08327  24.09476
 Alpha virt. eigenvalues --   24.10491  24.11691  24.11941  24.12426  24.12935
 Alpha virt. eigenvalues --   24.14816  24.15699  24.17664  24.18202  24.21053
 Alpha virt. eigenvalues --   24.22501  24.23275  24.24842  24.26235  24.29228
 Alpha virt. eigenvalues --   24.30076  24.31828  24.32941  24.33628  24.34145
 Alpha virt. eigenvalues --   24.36173  24.39229  24.41292  24.52375  50.10323
 Alpha virt. eigenvalues --   50.12286  50.12799  50.13335  50.16958  50.17831
 Alpha virt. eigenvalues --   50.20382  50.22002  50.22574  50.23815
          Condensed to atoms (all electrons):
 Mulliken charges:
               1
     1  C    0.075194
     2  C   -0.149891
     3  C   -0.187397
     4  C    1.228972
     5  C   -0.222714
     6  C   -0.748491
     7  C   -1.243888
     8  C    0.417646
     9  C   -0.301616
    10  O   -0.293068
    11  C    0.356409
    12  C   -0.365977
    13  C    0.449215
    14  C    0.131410
    15  C   -0.283624
    16  C    0.103832
    17  O   -0.368774
    18  O   -0.498757
    19  O   -0.483950
    20  O   -0.448106
    21  C   -0.329186
    22  C    0.004825
    23  C   -0.004356
    24  C    0.391798
    25  C   -0.783961
    26  C    0.585997
    27  O   -0.401387
    28  C   -0.408040
    29  C    0.660228
    30  C   -0.836364
    31  C   -0.588122
    32  C   -0.236132
    33  C    1.123831
    34  C   -0.420388
    35  C   -0.104590
    36  C    0.062818
    37  O   -0.430505
    38  C   -0.270211
    39  O   -0.369312
    40  C   -0.289789
    41  O   -0.102950
    42  C   -0.386542
    43  O   -0.476115
    44  C   -0.276931
    45  H    0.156787
    46  H    0.149103
    47  H    0.161372
    48  H    0.212735
    49  H    0.202878
    50  H    0.144797
    51  H    0.184649
    52  H    0.187201
    53  H    0.198203
    54  H    0.313294
    55  H    0.346714
    56  H    0.352273
    57  H    0.316634
    58  H    0.163375
    59  H    0.188337
    60  H    0.178368
    61  H    0.135097
    62  H    0.203584
    63  H    0.184923
    64  H    0.147262
    65  H    0.150292
    66  H    0.150555
    67  H    0.191376
    68  H    0.184471
    69  H    0.175882
    70  H    0.182911
    71  H    0.194691
    72  H    0.191488
    73  H    0.198541
    74  H    0.196721
    75  H    0.214410
    76  H    0.174703
    77  H    0.184677
    78  H    0.200655
 Sum of Mulliken charges =  -0.00000
 Mulliken charges with hydrogens summed into heavy atoms:
               1
     1  C    0.075194
     2  C    0.006896
     3  C   -0.038294
     4  C    1.228972
     5  C   -0.222714
     6  C   -0.587119
     7  C   -0.828275
     8  C    0.562443
     9  C    0.070234
    10  O   -0.293068
    11  C    0.356409
    12  C   -0.167774
    13  C    0.449215
    14  C    0.131410
    15  C   -0.283624
    16  C    0.103832
    17  O   -0.055479
    18  O   -0.152043
    19  O   -0.131677
    20  O   -0.131472
    21  C   -0.329186
    22  C    0.004825
    23  C   -0.004356
    24  C    0.391798
    25  C   -0.620587
    26  C    0.585997
    27  O   -0.401387
    28  C   -0.041334
    29  C    0.795324
    30  C   -0.447857
    31  C   -0.440860
    32  C   -0.236132
    33  C    1.123831
    34  C   -0.270096
    35  C    0.045965
    36  C    0.062818
    37  O   -0.430505
    38  C    0.281518
    39  O   -0.369312
    40  C    0.279301
    41  O   -0.102950
    42  C    0.223130
    43  O   -0.476115
    44  C    0.283103
 Electronic spatial extent (au):  <R**2>=          30872.9758
 Charge=             -0.0000 electrons
 Dipole moment (field-independent basis, Debye):
    X=              3.8776    Y=              2.7823    Z=             -4.6417  Tot=              6.6575
 Quadrupole moment (field-independent basis, Debye-Ang):
   XX=           -263.5047   YY=           -233.5217   ZZ=           -240.5411
   XY=             -2.6892   XZ=             22.2079   YZ=              4.4706
 Traceless Quadrupole moment (field-independent basis, Debye-Ang):
   XX=            -17.6489   YY=             12.3341   ZZ=              5.3148
   XY=             -2.6892   XZ=             22.2079   YZ=              4.4706
 Octapole moment (field-independent basis, Debye-Ang**2):
  XXX=            -57.0178  YYY=            115.0889  ZZZ=            -44.6020  XYY=             17.5853
  XXY=            137.9686  XXZ=           -235.5828  XZZ=             69.8123  YZZ=            -17.1154
  YYZ=            -36.1461  XYZ=             63.0882
 Hexadecapole moment (field-independent basis, Debye-Ang**3):
 XXXX=         -27476.4051 YYYY=          -7696.9557 ZZZZ=          -2283.6607 XXXY=           -584.6883
 XXXZ=           1906.6102 YYYX=            454.2401 YYYZ=            186.2785 ZZZX=            -21.0257
 ZZZY=              7.3185 XXYY=          -6647.8213 XXZZ=          -5325.8189 YYZZ=          -1749.7150
 XXYZ=             99.9814 YYXZ=           -162.7366 ZZXY=           -120.5554
 N-N= 5.455724146966D+03 E-N=-1.574482198039D+04  KE= 2.059489815241D+03
 Unable to Open any file for archive entry.
 1\1\GINC-C09B01N04\SP\RmPW1PW91\6-311+G(2d,p)\C34H34O10\ROOT\25-Sep-20
 25\0\\# mPW1PW91/6-311+g(2d,p) NMR scrf(SMD,solvent=dmso) geom=connect
 ivity\\58RR\\0,1\C,0,4.427058,-3.48701,0.003455\C,0,4.057166,-3.514886
 ,1.353651\C,0,4.191869,-2.354708,2.110885\C,0,4.686996,-1.161044,1.572
 695\C,0,5.056854,-1.165841,0.217857\C,0,4.941788,-2.322102,-0.56093\C,
 0,4.748185,0.115207,2.384631\C,0,4.819591,1.355202,1.478716\C,0,5.8679
 52,1.067155,0.395518\O,0,5.505962,-0.050714,-0.430246\C,0,3.497434,1.7
 64356,0.856544\C,0,2.425432,0.886992,0.696315\C,0,1.228506,1.244224,0.
 058139\C,0,1.094601,2.560077,-0.415634\C,0,2.147062,3.465632,-0.251844
 \C,0,3.338199,3.071226,0.372397\O,0,4.260885,-4.635009,-0.722597\O,0,4
 .350939,3.975464,0.493131\O,0,-2.725929,-2.738034,-0.675746\O,0,-9.910
 209,0.459946,1.106849\C,0,-1.804476,-1.746289,-0.502274\C,0,-0.473821,
 -2.006039,-0.87214\C,0,0.509409,-1.026879,-0.715178\C,0,0.174245,0.223
 431,-0.156473\C,0,-1.163751,0.457659,0.182155\C,0,-2.172947,-0.497054,
 0.016135\O,0,-5.4184,-0.615976,1.982268\C,0,-4.14865,-1.083799,1.49510
 5\C,0,-3.597402,-0.163613,0.402441\C,0,-4.573642,-0.185954,-0.786771\C
 ,0,-7.647808,-0.083268,1.497045\C,0,-6.337186,-0.253109,1.039094\C,0,-
 5.999738,-0.02956,-0.308253\C,0,-7.027116,0.362274,-1.172176\C,0,-8.34
 1266,0.531045,-0.7415\C,0,-8.647098,0.309064,0.607557\O,0,2.11225,4.75
 7296,-0.738199\C,0,1.187647,5.625788,-0.055375\O,0,-0.05252,2.9907,-1.
 044781\C,0,-0.088029,2.672043,-2.442338\O,0,1.793907,-1.332685,-1.0987
 96\C,0,2.206085,-0.728966,-2.328967\O,0,-0.260275,-3.245008,-1.429087\
 C,0,0.844534,-4.022731,-0.925498\H,0,3.660296,-4.428703,1.783908\H,0,3
 .884581,-2.364421,3.154304\H,0,5.234497,-2.287363,-1.606794\H,0,3.8815
 47,0.174898,3.052337\H,0,5.637572,0.112603,3.028212\H,0,5.202872,2.199
 525,2.061359\H,0,5.98053,1.90682,-0.291911\H,0,6.838823,0.862251,0.866
 883\H,0,2.52018,-0.129441,1.051202\H,0,4.523379,-4.461382,-1.643721\H,
 0,4.025639,4.792808,0.06548\H,0,-2.226205,-3.498423,-1.03564\H,0,-10.5
 00107,0.726162,0.379858\H,0,-1.431317,1.424043,0.595505\H,0,-4.264628,
 -2.106442,1.120647\H,0,-3.49512,-1.098661,2.370156\H,0,-3.592971,0.849
 444,0.82228\H,0,-4.454898,-1.130307,-1.330584\H,0,-4.32207,0.617001,-1
 .489257\H,0,-7.880519,-0.259611,2.542015\H,0,-6.785352,0.54755,-2.2164
 09\H,0,-9.118114,0.839282,-1.436935\H,0,0.158776,5.296984,-0.221382\H,
 0,1.402224,5.64989,1.019682\H,0,1.333737,6.621048,-0.481039\H,0,-1.023
 066,3.083823,-2.829347\H,0,0.759046,3.129473,-2.967432\H,0,-0.074979,1
 .587701,-2.601\H,0,3.206296,-1.112839,-2.535441\H,0,1.527673,-1.007844
 ,-3.144949\H,0,2.246808,0.362345,-2.24523\H,0,0.595904,-5.065897,-1.13
 568\H,0,1.771957,-3.749372,-1.427533\H,0,0.958034,-3.881928,0.154176\\
 Version=ES64L-G16RevC.02\State=1-A\HF=-2068.4173805\RMSD=3.604e-09\Dip
 ole=1.5255803,1.0946592,-1.8261723\Quadrupole=-13.1215089,9.1701218,3.
 951387,-1.9993397,16.5110262,3.3237987\PG=C01 [X(C34H34O10)]\\@
 The archive entry for this job was punched.


 WE SHOULD BE CAREFUL TO GET OUT OF AN EXPERIENCE ONLY THE WISDOM
 THAT IS IN IT -- AND STOP THERE;
 LEST WE BE LIKE THE CAT THAT SITS DOWN ON A HOT STOVE-LID.
 SHE WILL NEVER SIT DOWN ON A HOT STOVE LID AGAIN;
 BUT ALSO SHE WILL NEVER SIT DOWN ON A COLD ONE ANY MORE.

                                                     -- MARK TWAIN
 Job cpu time:       0 days 10 hours 33 minutes  0.7 seconds.
 Elapsed time:       0 days  0 hours 13 minutes 38.0 seconds.
 File lengths (MBytes):  RWF=   1573 Int=      0 D2E=      0 Chk=    151 Scr=      1
 Normal termination of Gaussian 16 at Thu Sep 25 18:10:04 2025.
