 Entering Gaussian System, Link 0=/home/tupf/tupf_yangsy/lustre1/g16/Gaussian16_AVX2/g16/g16
 Input=58RR_11.gjf
 Output=58RR_11.log
 Initial command:
 /home/tupf/tupf_yangsy/lustre1/g16/Gaussian16_AVX2/g16/l1.exe "/home/tupf/tupf_yangsy/lustre1/g16/tmp/Gau-1705288.inp" -scrdir="/home/tupf/tupf_yangsy/lustre1/g16/tmp/"
 Entering Link 1 = /home/tupf/tupf_yangsy/lustre1/g16/Gaussian16_AVX2/g16/l1.exe PID=   1705289.
  
 Copyright (c) 1988-2021, Gaussian, Inc.  All Rights Reserved.
  
 This is part of the Gaussian(R) 16 program.  It is based on
 the Gaussian(R) 09 system (copyright 2009, Gaussian, Inc.),
 the Gaussian(R) 03 system (copyright 2003, Gaussian, Inc.),
 the Gaussian(R) 98 system (copyright 1998, Gaussian, Inc.),
 the Gaussian(R) 94 system (copyright 1995, Gaussian, Inc.),
 the Gaussian 92(TM) system (copyright 1992, Gaussian, Inc.),
 the Gaussian 90(TM) system (copyright 1990, Gaussian, Inc.),
 the Gaussian 88(TM) system (copyright 1988, Gaussian, Inc.),
 the Gaussian 86(TM) system (copyright 1986, Carnegie Mellon
 University), and the Gaussian 82(TM) system (copyright 1983,
 Carnegie Mellon University). Gaussian is a federally registered
 trademark of Gaussian, Inc.
  
 This software contains proprietary and confidential information,
 including trade secrets, belonging to Gaussian, Inc.
  
 This software is provided under written license and may be
 used, copied, transmitted, or stored only in accord with that
 written license.
  
 The following legend is applicable only to US Government
 contracts under FAR:
  
                    RESTRICTED RIGHTS LEGEND
  
 Use, reproduction and disclosure by the US Government is
 subject to restrictions as set forth in subparagraphs (a)
 and (c) of the Commercial Computer Software - Restricted
 Rights clause in FAR 52.227-19.
  
 Gaussian, Inc.
 340 Quinnipiac St., Bldg. 40, Wallingford CT 06492
  
  
 ---------------------------------------------------------------
 Warning -- This program may not be used in any manner that
 competes with the business of Gaussian, Inc. or will provide
 assistance to any competitor of Gaussian, Inc.  The licensee
 of this program is prohibited from giving any competitor of
 Gaussian, Inc. access to this program.  By using this program,
 the user acknowledges that Gaussian, Inc. is engaged in the
 business of creating and licensing software in the field of
 computational chemistry and represents and warrants to the
 licensee that it is not a competitor of Gaussian, Inc. and that
 it will not use this program in any manner prohibited above.
 ---------------------------------------------------------------
  

 Cite this work as:
 Gaussian 16, Revision C.02,
 M. J. Frisch, G. W. Trucks, H. B. Schlegel, G. E. Scuseria, 
 M. A. Robb, J. R. Cheeseman, G. Scalmani, V. Barone, 
 G. A. Petersson, H. Nakatsuji, X. Li, M. Caricato, A. V. Marenich, 
 J. Bloino, B. G. Janesko, R. Gomperts, B. Mennucci, H. P. Hratchian, 
 J. V. Ortiz, A. F. Izmaylov, J. L. Sonnenberg, D. Williams-Young, 
 F. Ding, F. Lipparini, F. Egidi, J. Goings, B. Peng, A. Petrone, 
 T. Henderson, D. Ranasinghe, V. G. Zakrzewski, J. Gao, N. Rega, 
 G. Zheng, W. Liang, M. Hada, M. Ehara, K. Toyota, R. Fukuda, 
 J. Hasegawa, M. Ishida, T. Nakajima, Y. Honda, O. Kitao, H. Nakai, 
 T. Vreven, K. Throssell, J. A. Montgomery, Jr., J. E. Peralta, 
 F. Ogliaro, M. J. Bearpark, J. J. Heyd, E. N. Brothers, K. N. Kudin, 
 V. N. Staroverov, T. A. Keith, R. Kobayashi, J. Normand, 
 K. Raghavachari, A. P. Rendell, J. C. Burant, S. S. Iyengar, 
 J. Tomasi, M. Cossi, J. M. Millam, M. Klene, C. Adamo, R. Cammi, 
 J. W. Ochterski, R. L. Martin, K. Morokuma, O. Farkas, 
 J. B. Foresman, and D. J. Fox, Gaussian, Inc., Wallingford CT, 2019.
 
 ******************************************
 Gaussian 16:  ES64L-G16RevC.02  7-Dec-2021
                25-Sep-2025 
 ******************************************
 %mem=400GB
 %nprocshared=64
 Will use up to   64 processors via shared memory.
 ---------------------------------------------------------------------
 # mPW1PW91/6-311+g(2d,p) NMR scrf(SMD,solvent=dmso) geom=connectivity
 ---------------------------------------------------------------------
 1/38=1,57=2,172=1/1;
 2/12=2,17=6,18=5,40=1/2;
 3/5=4,6=6,7=112,11=2,25=1,30=1,70=32201,72=21,74=-7/1,2,3,8;
 4//1;
 5/5=2,38=5,53=21/2;
 8/6=1,10=90,11=11/1;
 10/13=100,45=16/2;
 6/7=2,8=2,9=2,10=2,28=1/1;
 99/9=1/99;
 ----
 58RR
 ----
 Symbolic Z-matrix:
 Charge =  0 Multiplicity = 1
 C                    -5.5491   -3.19935  -0.35006 
 C                    -4.92269  -3.29497  -1.59924 
 C                    -4.58772  -2.12478  -2.27851 
 C                    -4.85731  -0.85502  -1.75892 
 C                    -5.48461  -0.7901   -0.5016 
 C                    -5.83344  -1.94872   0.19748 
 C                    -4.49889   0.40756  -2.5127 
 C                    -4.5313    1.65031  -1.60887 
 C                    -5.78443   1.55416  -0.73026 
 O                    -5.76968   0.39424   0.11562 
 C                    -3.28025   1.87733  -0.77955 
 C                    -2.29909   0.90682  -0.56428 
 C                    -1.12996   1.15525   0.17126 
 C                    -0.94725   2.43453   0.72238 
 C                    -1.91921   3.42001   0.53217 
 C                    -3.06978   3.1455   -0.21685 
 O                    -5.90385  -4.29922   0.37837 
 O                    -3.98967   4.1358   -0.39806 
 O                     2.88486  -2.78082   0.83096 
 O                     9.90221   0.34032  -1.58477 
 C                     1.93816  -1.81456   0.6547 
 C                     0.63832  -2.06815   1.11313 
 C                    -0.38066  -1.12069   0.9561 
 C                    -0.08673   0.11197   0.34688 
 C                     1.22724   0.34441  -0.0822 
 C                     2.25632  -0.59175   0.04394 
 O                     5.36881  -0.78268  -2.11772 
 C                     4.13781  -1.23286  -1.52671 
 C                     3.64838  -0.26234  -0.44823 
 C                     4.69953  -0.21466   0.67487 
 C                     7.62177  -0.22267  -1.80295 
 C                     6.34369  -0.37021  -1.25453 
 C                     6.09107  -0.07816   0.0982 
 C                     7.16943   0.35878   0.87403 
 C                     8.4529    0.50683   0.3526 
 C                     8.67367   0.21545  -0.99981 
 O                    -1.83536   4.68297   1.08197 
 C                    -0.79254   5.50932   0.5285 
 O                     0.18376   2.75435   1.44043 
 C                     0.11292   2.36372   2.81757 
 O                    -1.63603  -1.34617   1.45817 
 C                    -2.3531   -2.4398    0.86283 
 O                     0.44388  -3.29989   1.7117 
 C                     0.18032  -3.23215   3.12824 
 H                    -4.69784  -4.26895  -2.02719 
 H                    -4.09472  -2.19772  -3.24531 
 H                    -6.31824  -1.86909   1.16482 
 H                    -3.51862   0.29935  -2.98949 
 H                    -5.21999   0.56359  -3.32551 
 H                    -4.67361   2.53525  -2.23957 
 H                    -5.86862   2.40385  -0.0524 
 H                    -6.67889   1.51818  -1.36706 
 H                    -2.42939  -0.07794  -0.99686 
 H                    -5.6519   -5.09571  -0.12121 
 H                    -3.64583   4.90704   0.09571 
 H                     2.42111  -3.52669   1.2628 
 H                     10.53573   0.64449  -0.91135 
 H                     1.45419   1.29824  -0.5474 
 H                     4.28722  -2.23468  -1.10982 
 H                     3.42925  -1.29632  -2.35553 
 H                     3.60377   0.72804  -0.91697 
 H                     4.48624   0.62422   1.34742 
 H                     4.62453  -1.12822   1.27597 
 H                     7.78844  -0.45273  -2.85009 
 H                     6.99354   0.59685   1.92073 
 H                     9.27154   0.85062   0.98014 
 H                    -0.91206   6.49474   0.98418 
 H                     0.19081   5.10126   0.77388 
 H                    -0.90127   5.59115  -0.55949 
 H                     1.05996   2.66217   3.27322 
 H                    -0.71537   2.87264   3.32514 
 H                    -0.01238   1.27887   2.91405 
 H                    -3.33223  -2.44899   1.34083 
 H                    -2.47233  -2.27981  -0.21332 
 H                    -1.84736  -3.39406   1.03625 
 H                     0.12383  -4.26549   3.47608 
 H                     0.99441  -2.71048   3.64428 
 H                    -0.76623  -2.72092   3.32205 
 
 Stoichiometry    C34H34O10
 Framework group  C1[X(C34H34O10)]
 Deg. of freedom   228
 Full point group                 C1      NOp   1
 Largest Abelian subgroup         C1      NOp   1
 Largest concise Abelian subgroup C1      NOp   1
                         Standard orientation:                         
 ---------------------------------------------------------------------
 Center     Atomic      Atomic             Coordinates (Angstroms)
 Number     Number       Type             X           Y           Z
 ---------------------------------------------------------------------
      1          6           0       -5.549097   -3.199347   -0.350064
      2          6           0       -4.922689   -3.294967   -1.599240
      3          6           0       -4.587717   -2.124782   -2.278512
      4          6           0       -4.857306   -0.855021   -1.758916
      5          6           0       -5.484605   -0.790099   -0.501599
      6          6           0       -5.833439   -1.948718    0.197480
      7          6           0       -4.498886    0.407564   -2.512696
      8          6           0       -4.531301    1.650309   -1.608871
      9          6           0       -5.784429    1.554163   -0.730255
     10          8           0       -5.769677    0.394241    0.115622
     11          6           0       -3.280251    1.877328   -0.779554
     12          6           0       -2.299088    0.906816   -0.564282
     13          6           0       -1.129964    1.155251    0.171264
     14          6           0       -0.947252    2.434526    0.722375
     15          6           0       -1.919213    3.420007    0.532173
     16          6           0       -3.069777    3.145505   -0.216847
     17          8           0       -5.903852   -4.299220    0.378371
     18          8           0       -3.989668    4.135799   -0.398063
     19          8           0        2.884864   -2.780816    0.830962
     20          8           0        9.902211    0.340324   -1.584771
     21          6           0        1.938159   -1.814561    0.654695
     22          6           0        0.638315   -2.068152    1.113129
     23          6           0       -0.380664   -1.120688    0.956103
     24          6           0       -0.086726    0.111968    0.346875
     25          6           0        1.227241    0.344409   -0.082204
     26          6           0        2.256318   -0.591752    0.043939
     27          8           0        5.368814   -0.782682   -2.117721
     28          6           0        4.137807   -1.232863   -1.526710
     29          6           0        3.648377   -0.262339   -0.448229
     30          6           0        4.699527   -0.214658    0.674871
     31          6           0        7.621771   -0.222670   -1.802954
     32          6           0        6.343691   -0.370207   -1.254527
     33          6           0        6.091071   -0.078161    0.098204
     34          6           0        7.169431    0.358777    0.874031
     35          6           0        8.452896    0.506825    0.352600
     36          6           0        8.673672    0.215446   -0.999809
     37          8           0       -1.835363    4.682970    1.081973
     38          6           0       -0.792542    5.509320    0.528504
     39          8           0        0.183759    2.754352    1.440432
     40          6           0        0.112922    2.363724    2.817565
     41          8           0       -1.636028   -1.346171    1.458167
     42          6           0       -2.353103   -2.439797    0.862826
     43          8           0        0.443875   -3.299894    1.711699
     44          6           0        0.180317   -3.232146    3.128244
     45          1           0       -4.697842   -4.268954   -2.027186
     46          1           0       -4.094720   -2.197721   -3.245306
     47          1           0       -6.318236   -1.869090    1.164818
     48          1           0       -3.518620    0.299353   -2.989493
     49          1           0       -5.219990    0.563589   -3.325514
     50          1           0       -4.673609    2.535254   -2.239573
     51          1           0       -5.868623    2.403850   -0.052400
     52          1           0       -6.678889    1.518176   -1.367063
     53          1           0       -2.429386   -0.077937   -0.996863
     54          1           0       -5.651897   -5.095707   -0.121209
     55          1           0       -3.645832    4.907037    0.095712
     56          1           0        2.421109   -3.526687    1.262803
     57          1           0       10.535727    0.644488   -0.911346
     58          1           0        1.454193    1.298235   -0.547396
     59          1           0        4.287218   -2.234681   -1.109823
     60          1           0        3.429253   -1.296317   -2.355534
     61          1           0        3.603772    0.728044   -0.916974
     62          1           0        4.486244    0.624216    1.347415
     63          1           0        4.624525   -1.128224    1.275970
     64          1           0        7.788442   -0.452726   -2.850085
     65          1           0        6.993537    0.596845    1.920729
     66          1           0        9.271539    0.850615    0.980140
     67          1           0       -0.912063    6.494737    0.984179
     68          1           0        0.190814    5.101263    0.773881
     69          1           0       -0.901270    5.591145   -0.559494
     70          1           0        1.059959    2.662168    3.273222
     71          1           0       -0.715369    2.872636    3.325137
     72          1           0       -0.012381    1.278865    2.914053
     73          1           0       -3.332231   -2.448988    1.340832
     74          1           0       -2.472328   -2.279809   -0.213315
     75          1           0       -1.847360   -3.394063    1.036245
     76          1           0        0.123825   -4.265486    3.476080
     77          1           0        0.994405   -2.710476    3.644276
     78          1           0       -0.766225   -2.720920    3.322050
 ---------------------------------------------------------------------
 Rotational constants (GHZ):           0.1170287           0.0376426           0.0322944
 Standard basis: 6-311+G(2d,p) (5D, 7F)
 There are  1480 symmetry adapted cartesian basis functions of A   symmetry.
 There are  1392 symmetry adapted basis functions of A   symmetry.
  1392 basis functions,  2120 primitive gaussians,  1480 cartesian basis functions
   159 alpha electrons      159 beta electrons
       nuclear repulsion energy      5363.7275312805 Hartrees.
 NAtoms=   78 NActive=   78 NUniq=   78 SFac= 1.00D+00 NAtFMM=   60 NAOKFM=T Big=T
 Integral buffers will be    131072 words long.
 Raffenetti 2 integral format.
 Two-electron integral symmetry is turned on.
 ------------------------------------------------------------------------------
 Polarizable Continuum Model (PCM)
 =================================
 Model                : PCM.
 Atomic radii         : SMD-Coulomb.
 Polarization charges : Total charges.
 Charge compensation  : None.
 Solution method      : On-the-fly selection.
 Cavity type          : VdW (van der Waals Surface) (Alpha=1.000).
 Cavity algorithm     : GePol (No added spheres)
                        Default sphere list used, NSphG=   78.
                        Lebedev-Laikov grids with approx.  5.0 points / Ang**2.
                        Smoothing algorithm: York/Karplus (Gamma=1.0000).
                        Polarization charges: spherical gaussians, with
                                              point-specific exponents (IZeta= 3).
                        Self-potential: point-specific (ISelfS= 7).
                        Self-field    : sphere-specific E.n sum rule (ISelfD= 2).
 Solvent              : DiMethylSulfoxide, Eps=  46.826000 Eps(inf)=   2.185371
 ------------------------------------------------------------------------------
 ------------------------------------------------------------------------------
 Atomic radii for non-electrostatic terms: SMD-CDS.
 ------------------------------------------------------------------------------
 Nuclear repulsion after PCM non-electrostatic terms =     5363.7225672393 Hartrees.
 One-electron integrals computed using PRISM.
 NBasis=  1392 RedAO= T EigKep=  1.08D-06  NBF=  1392
 NBsUse=  1379 1.00D-06 EigRej=  9.66D-07 NBFU=  1379
 ExpMin= 4.38D-02 ExpMax= 8.59D+03 ExpMxC= 1.30D+03 IAcc=3 IRadAn=         5 AccDes= 0.00D+00
 Harris functional with IExCor=  908 and IRadAn=       5 diagonalized for initial guess.
 HarFok:  IExCor=  908 AccDes= 0.00D+00 IRadAn=         5 IDoV= 1 UseB2=F ITyADJ=14
 ICtDFT=  3500011 ScaDFX=  1.000000  1.000000  1.000000  1.000000
 FoFCou: FMM=F IPFlag=           0 FMFlag=      100000 FMFlg1=        2001
         NFxFlg=           0 DoJE=T BraDBF=F KetDBF=T FulRan=T
         wScrn=  0.000000 ICntrl=       500 IOpCl=  0 I1Cent=   200000004 NGrid=           0
         NMat0=    1 NMatS0=      1 NMatT0=    0 NMatD0=    1 NMtDS0=    0 NMtDT0=    0
 Petite list used in FoFCou.
 Requested convergence on RMS density matrix=1.00D-08 within 128 cycles.
 Requested convergence on MAX density matrix=1.00D-06.
 Requested convergence on             energy=1.00D-06.
 No special actions if energy rises.
 Inv3:  Mode=1 IEnd=    92640747.
 Iteration    1 A*A^-1 deviation from unit magnitude is 3.55D-15 for   3066.
 Iteration    1 A*A^-1 deviation from orthogonality  is 3.77D-15 for   2071   1857.
 Iteration    1 A^-1*A deviation from unit magnitude is 3.55D-15 for   1519.
 Iteration    1 A^-1*A deviation from orthogonality  is 3.16D-15 for   1296   1295.
 Error on total polarization charges =  0.04898
 SCF Done:  E(RmPW1PW91) =  -2068.42162610     A.U. after   14 cycles
            NFock= 14  Conv=0.30D-08     -V/T= 2.0043
 SMD-CDS (non-electrostatic) energy       (kcal/mol) =      -3.11
 (included in total energy above)
 DoSCS=F DFT=T ScalE2(SS,OS)=  1.000000  1.000000
 Range of M.O.s used for correlation:     1  1379
 NBasis=  1392 NAE=   159 NBE=   159 NFC=     0 NFV=     0
 NROrb=   1379 NOA=   159 NOB=   159 NVA=  1220 NVB=  1220

 **** Warning!!: The largest alpha MO coefficient is  0.10676037D+03

 NEqPCM:  Using equilibrium solvation (IEInf=0, Eps=  46.8260, EpsInf=   2.1854)
          Differentiating once with respect to magnetic field using GIAOs.
          Electric field/nuclear overlap derivatives assumed to be zero.
 FoFJK:  IHMeth= 1 ICntrl=    6127 DoSepK=F KAlg= 0 I1Cent=           0 FoldK=F
 IRaf=         1 NMat=       1 IRICut=       1 DoRegI=T DoRafI=F ISym2E= 0 IDoP0=0 IntGTp=1.
          There are     3 degrees of freedom in the 1st order CPHF.  IDoFFX=0 NUNeed=     3.
      3 vectors produced by pass  0 Test12= 6.47D-12 3.33D-08 XBig12= 2.64D+03 4.16D+00.
 AX will form     3 AO Fock derivatives at one time.
      3 vectors produced by pass  1 Test12= 6.47D-12 3.33D-08 XBig12= 8.04D+00 4.91D-01.
      3 vectors produced by pass  2 Test12= 6.47D-12 3.33D-08 XBig12= 4.70D-02 5.05D-02.
      3 vectors produced by pass  3 Test12= 6.47D-12 3.33D-08 XBig12= 1.63D-04 3.12D-03.
      3 vectors produced by pass  4 Test12= 6.47D-12 3.33D-08 XBig12= 5.25D-07 1.47D-04.
      3 vectors produced by pass  5 Test12= 6.47D-12 3.33D-08 XBig12= 2.07D-09 7.58D-06.
      3 vectors produced by pass  6 Test12= 6.47D-12 3.33D-08 XBig12= 8.93D-12 5.09D-07.
      1 vectors produced by pass  7 Test12= 6.47D-12 3.33D-08 XBig12= 3.28D-14 3.95D-08.
 InvSVY:  IOpt=1 It=  1 EMax= 1.42D-14
 Solved reduced A of dimension    22 with     3 vectors.
 Calculating GIAO nuclear magnetic shielding tensors.
 SCF GIAO Magnetic shielding tensor (ppm):
      1  C    Isotropic =    23.9783   Anisotropy =   142.8203
   XX=    94.7947   YX=   -15.7825   ZX=    49.5519
   XY=   -13.7156   YY=   -38.9710   ZY=    32.1045
   XZ=    50.7098   YZ=    35.0818   ZZ=    16.1111
   Eigenvalues:   -63.3735    16.1165   119.1918
      2  C    Isotropic =    76.2202   Anisotropy =   129.3420
   XX=   140.0076   YX=    15.8978   ZX=    43.6458
   XY=    16.7383   YY=     8.1445   ZY=   -27.6118
   XZ=    41.9530   YZ=   -21.3130   ZZ=    80.5084
   Eigenvalues:    -5.3748    71.5871   162.4482
      3  C    Isotropic =    50.3678   Anisotropy =   173.1200
   XX=   120.4784   YX=     5.0390   ZX=    88.3691
   XY=     6.0103   YY=    37.0572   ZY=    -5.1851
   XZ=    87.8987   YZ=     3.3358   ZZ=    -6.4322
   Eigenvalues:   -51.7037    37.0260   165.7811
      4  C    Isotropic =    66.2664   Anisotropy =   169.0981
   XX=   150.0515   YX=   -20.9595   ZX=    56.8495
   XY=   -10.4992   YY=     4.4099   ZY=    26.3794
   XZ=    67.2233   YZ=     7.3360   ZZ=    44.3378
   Eigenvalues:   -12.7322    32.5329   178.9985
      5  C    Isotropic =    22.9625   Anisotropy =   142.0980
   XX=    94.5961   YX=    16.0334   ZX=    46.3146
   XY=    12.6753   YY=   -46.8612   ZY=   -20.7640
   XZ=    48.0638   YZ=   -28.6873   ZZ=    21.1525
   Eigenvalues:   -60.7162    11.9091   117.6945
      6  C    Isotropic =    79.8240   Anisotropy =   118.6862
   XX=   129.8540   YX=    -0.5893   ZX=    59.3034
   XY=     2.3733   YY=    66.9013   ZY=    -2.0905
   XZ=    56.9917   YZ=    -4.0372   ZZ=    42.7168
   Eigenvalues:    13.4418    67.0821   158.9481
      7  C    Isotropic =   157.1131   Anisotropy =    10.0979
   XX=   157.7500   YX=    -0.3587   ZX=     2.6273
   XY=     1.5832   YY=   162.5931   ZY=     8.9974
   XZ=     2.5352   YZ=    -2.0343   ZZ=   150.9961
   Eigenvalues:   149.3771   158.1171   163.8450
      8  C    Isotropic =   151.7342   Anisotropy =    17.2733
   XX=   159.3381   YX=    -4.4734   ZX=     9.1504
   XY=     0.9032   YY=   140.9126   ZY=     0.4888
   XZ=     1.2443   YZ=    -6.6928   ZZ=   154.9519
   Eigenvalues:   140.2314   151.7215   163.2498
      9  C    Isotropic =   116.0074   Anisotropy =    52.2153
   XX=   105.4303   YX=     1.5488   ZX=     3.7427
   XY=    -1.3279   YY=   130.9798   ZY=   -27.6223
   XZ=    -2.0684   YZ=   -28.1468   ZZ=   111.6121
   Eigenvalues:    91.7371   105.4675   150.8176
     10  O    Isotropic =   221.0530   Anisotropy =   115.7290
   XX=   267.4314   YX=   -15.2994   ZX=    72.1337
   XY=    -6.6702   YY=   185.2721   ZY=    44.3926
   XZ=    22.5960   YZ=    69.8923   ZZ=   210.4556
   Eigenvalues:   128.2852   236.6682   298.2057
     11  C    Isotropic =    57.4605   Anisotropy =   155.5750
   XX=    37.6789   YX=     4.7137   ZX=   -74.6746
   XY=    23.0355   YY=    29.2849   ZY=   -30.9531
   XZ=   -73.8821   YZ=   -28.3749   ZZ=   105.4178
   Eigenvalues:   -10.6586    21.8631   161.1772
     12  C    Isotropic =    55.7658   Anisotropy =   163.8868
   XX=    71.7073   YX=     8.8697   ZX=   -51.3641
   XY=     8.3913   YY=   -11.3145   ZY=   -62.6810
   XZ=   -56.4714   YZ=   -64.9468   ZZ=   106.9048
   Eigenvalues:   -41.1173    43.3911   165.0237
     13  C    Isotropic =    57.4402   Anisotropy =   145.9127
   XX=    34.6175   YX=    53.6197   ZX=   -49.5910
   XY=    36.7577   YY=    23.2188   ZY=   -27.2688
   XZ=   -57.9318   YZ=   -18.3153   ZZ=   114.4843
   Eigenvalues:   -19.9715    37.5768   154.7153
     14  C    Isotropic =    31.1879   Anisotropy =   116.4116
   XX=     9.9925   YX=    13.9924   ZX=   -54.1426
   XY=    -2.2334   YY=    21.1398   ZY=   -36.4341
   XZ=   -62.6626   YZ=   -20.9241   ZZ=    62.4313
   Eigenvalues:   -30.2851    15.0532   108.7956
     15  C    Isotropic =    41.6235   Anisotropy =   106.3703
   XX=    38.1597   YX=     9.8457   ZX=   -38.7861
   XY=     8.9827   YY=    11.9228   ZY=   -28.7491
   XZ=   -39.5470   YZ=   -43.8595   ZZ=    74.7881
   Eigenvalues:    -6.7216    19.0551   112.5371
     16  C    Isotropic =    33.1903   Anisotropy =   125.6081
   XX=    18.1825   YX=    34.0709   ZX=   -44.4558
   XY=    44.3301   YY=    -4.1542   ZY=   -17.6400
   XZ=   -41.6150   YZ=   -21.2073   ZZ=    85.5426
   Eigenvalues:   -34.8931    17.5350   116.9291
     17  O    Isotropic =   212.3165   Anisotropy =    63.9568
   XX=   217.3978   YX=    18.6339   ZX=    15.6980
   XY=    21.8571   YY=   227.3754   ZY=   -42.7035
   XZ=    16.7358   YZ=   -35.7566   ZZ=   192.1764
   Eigenvalues:   156.6832   225.3120   254.9544
     18  O    Isotropic =   227.9691   Anisotropy =   115.3416
   XX=   210.8215   YX=    30.4732   ZX=   -40.8383
   XY=   -23.4798   YY=   211.4265   ZY=   -49.9040
   XZ=   -44.2752   YZ=   -41.4688   ZZ=   261.6592
   Eigenvalues:   171.4290   207.6148   304.8635
     19  O    Isotropic =   229.5344   Anisotropy =   109.3395
   XX=   200.7536   YX=    11.7139   ZX=    18.0482
   XY=   -28.4247   YY=   205.8568   ZY=    49.9278
   XZ=    40.4654   YZ=    22.7668   ZZ=   281.9929
   Eigenvalues:   174.8592   211.3166   302.4275
     20  O    Isotropic =   212.7717   Anisotropy =    64.9504
   XX=   244.5612   YX=    -3.6702   ZX=   -32.6284
   XY=    -0.8637   YY=   218.8974   ZY=   -19.8155
   XZ=   -26.7487   YZ=   -17.9940   ZZ=   174.8566
   Eigenvalues:   158.2494   223.9938   256.0720
     21  C    Isotropic =    32.4788   Anisotropy =   125.7248
   XX=    -1.7661   YX=    34.9033   ZX=    16.6502
   XY=    35.5838   YY=     7.5771   ZY=    37.3241
   XZ=     6.8057   YZ=    51.7596   ZZ=    91.6254
   Eigenvalues:   -36.6377    17.7788   116.2953
     22  C    Isotropic =    41.5329   Anisotropy =   104.6590
   XX=    25.8465   YX=    -2.4143   ZX=    25.5717
   XY=     9.4576   YY=    17.5899   ZY=    44.0971
   XZ=    26.6719   YZ=    44.8194   ZZ=    81.1623
   Eigenvalues:    -8.0172    21.3104   111.3056
     23  C    Isotropic =    31.4771   Anisotropy =   120.7817
   XX=   -13.8404   YX=     7.7053   ZX=    30.5336
   XY=    -2.9157   YY=    24.4507   ZY=    40.5201
   XZ=    47.7391   YZ=    32.8376   ZZ=    83.8209
   Eigenvalues:   -29.7942    12.2272   111.9982
     24  C    Isotropic =    58.8098   Anisotropy =   141.2984
   XX=    15.1968   YX=    45.7138   ZX=    16.8948
   XY=    27.4988   YY=    32.9563   ZY=    44.4869
   XZ=    18.1581   YZ=    45.8572   ZZ=   128.2763
   Eigenvalues:   -15.3208    38.7415   153.0087
     25  C    Isotropic =    52.0025   Anisotropy =   144.9685
   XX=    50.5631   YX=   -10.0594   ZX=    30.0002
   XY=    -5.2830   YY=    -4.4284   ZY=    68.0831
   XZ=    29.9199   YZ=    71.0200   ZZ=   109.8729
   Eigenvalues:   -41.6671    49.0265   148.6482
     26  C    Isotropic =    60.4560   Anisotropy =   154.4723
   XX=     9.7959   YX=    -4.7494   ZX=    43.6429
   XY=    14.0086   YY=    40.8310   ZY=    46.5663
   XZ=    37.0291   YZ=    55.0677   ZZ=   130.7411
   Eigenvalues:    -5.9573    23.8877   163.4375
     27  O    Isotropic =   208.4521   Anisotropy =    98.9818
   XX=   161.3910   YX=   -27.9844   ZX=    39.4472
   XY=   -21.3797   YY=   256.2279   ZY=   -40.9447
   XZ=    58.8638   YZ=    14.1902   ZZ=   207.7373
   Eigenvalues:   128.6873   222.2290   274.4399
     28  C    Isotropic =   116.6267   Anisotropy =    62.5159
   XX=   142.6934   YX=    19.7444   ZX=   -25.4997
   XY=    10.3173   YY=   104.1410   ZY=    -4.6905
   XZ=   -22.7251   YZ=    -2.3538   ZZ=   103.0457
   Eigenvalues:    90.6019   100.9743   158.3039
     29  C    Isotropic =   143.5022   Anisotropy =    32.2125
   XX=   148.7199   YX=     3.9279   ZX=    -9.1116
   XY=    14.1278   YY=   148.1188   ZY=   -11.4293
   XZ=   -16.3630   YZ=    -6.2147   ZZ=   133.6679
   Eigenvalues:   125.8140   139.7153   164.9772
     30  C    Isotropic =   155.6540   Anisotropy =    21.7321
   XX=   169.5718   YX=     0.1354   ZX=     4.7007
   XY=     4.1282   YY=   147.7818   ZY=     1.9221
   XZ=     0.3287   YZ=     2.5974   ZZ=   149.6084
   Eigenvalues:   146.2516   150.5683   170.1421
     31  C    Isotropic =    81.6304   Anisotropy =   113.6442
   XX=    73.1651   YX=   -15.8503   ZX=    14.2008
   XY=   -13.3033   YY=   146.1436   ZY=   -32.2239
   XZ=    12.4326   YZ=   -30.4552   ZZ=    25.5827
   Eigenvalues:    16.2816    71.2165   157.3932
     32  C    Isotropic =    23.9031   Anisotropy =   139.4910
   XX=   -22.8811   YX=   -38.0317   ZX=   -23.5702
   XY=   -41.5499   YY=    98.2696   ZY=   -34.4185
   XZ=   -29.2100   YZ=   -38.7048   ZZ=    -3.6794
   Eigenvalues:   -59.6149    14.4270   116.8971
     33  C    Isotropic =    66.8101   Anisotropy =   159.4300
   XX=     4.7873   YX=   -28.9395   ZX=    28.7998
   XY=   -20.0016   YY=   162.8631   ZY=   -19.8633
   XZ=    16.0897   YZ=   -34.1660   ZZ=    32.7797
   Eigenvalues:    -8.1337    35.4672   173.0968
     34  C    Isotropic =    50.8703   Anisotropy =   169.5103
   XX=    43.3841   YX=   -23.0444   ZX=    19.5846
   XY=   -25.0762   YY=   145.1870   ZY=   -49.0315
   XZ=    27.2870   YZ=   -45.7552   ZZ=   -35.9602
   Eigenvalues:   -50.8211    39.5548   163.8772
     35  C    Isotropic =    77.1709   Anisotropy =   124.9800
   XX=    33.0077   YX=   -36.5756   ZX=   -31.1442
   XY=   -36.2042   YY=   143.1612   ZY=   -35.9735
   XZ=   -25.8047   YZ=   -32.6583   ZZ=    55.3439
   Eigenvalues:    -3.1762    74.1981   160.4909
     36  C    Isotropic =    24.1527   Anisotropy =   139.3977
   XX=   -44.4696   YX=   -27.6305   ZX=    31.7103
   XY=   -26.8565   YY=   106.5279   ZY=   -18.6453
   XZ=    35.3102   YZ=   -18.8236   ZZ=    10.3997
   Eigenvalues:   -62.0726    17.4462   117.0844
     37  O    Isotropic =   281.6413   Anisotropy =    97.3463
   XX=   241.5736   YX=   -11.4655   ZX=   -39.8632
   XY=     6.2773   YY=   283.5435   ZY=     5.8185
   XZ=   -65.5015   YZ=     0.1304   ZZ=   319.8067
   Eigenvalues:   215.0595   283.3255   346.5388
     38  C    Isotropic =   124.7183   Anisotropy =    93.9926
   XX=   135.6304   YX=    44.2521   ZX=   -24.3281
   XY=    38.6406   YY=   133.3493   ZY=   -18.6932
   XZ=   -24.5349   YZ=   -18.9188   ZZ=   105.1751
   Eigenvalues:    90.0335    96.7413   187.3800
     39  O    Isotropic =   275.8206   Anisotropy =    86.8725
   XX=   293.2251   YX=    32.5914   ZX=   -34.7492
   XY=    32.1058   YY=   232.5828   ZY=   -16.1122
   XZ=   -12.2411   YZ=   -20.9321   ZZ=   301.6539
   Eigenvalues:   217.7804   275.9458   333.7356
     40  C    Isotropic =   125.8903   Anisotropy =    89.0651
   XX=    97.3979   YX=     1.3260   ZX=     1.8047
   XY=    -1.8866   YY=    99.2935   ZY=   -20.2917
   XZ=     6.7792   YZ=   -17.1288   ZZ=   180.9795
   Eigenvalues:    95.0229    97.3810   185.2670
     41  O    Isotropic =   258.3435   Anisotropy =   108.0577
   XX=   263.8910   YX=    -1.4829   ZX=   -10.1701
   XY=   -26.0092   YY=   197.2427   ZY=    23.9630
   XZ=   -24.4739   YZ=    47.8680   ZZ=   313.8968
   Eigenvalues:   186.1040   258.5445   330.3819
     42  C    Isotropic =   128.8535   Anisotropy =    93.2787
   XX=   129.2409   YX=    37.4769   ZX=    22.4827
   XY=    41.4876   YY=   144.7715   ZY=    26.3111
   XZ=    21.4344   YZ=    22.7674   ZZ=   112.5480
   Eigenvalues:    96.1509    99.3703   191.0393
     43  O    Isotropic =   280.6804   Anisotropy =    97.3526
   XX=   227.7777   YX=    13.3900   ZX=    45.7186
   XY=    12.2306   YY=   312.6033   ZY=    22.2745
   XZ=    16.8519   YZ=    37.9999   ZZ=   301.6602
   Eigenvalues:   216.2779   280.1812   345.5821
     44  C    Isotropic =   126.8261   Anisotropy =    91.2370
   XX=    95.1655   YX=     6.6430   ZX=   -15.8101
   XY=     2.6696   YY=    99.7865   ZY=    -1.0133
   XZ=   -11.5507   YZ=    -3.5571   ZZ=   185.5263
   Eigenvalues:    91.0338   101.7938   187.6508
     45  H    Isotropic =    25.0620   Anisotropy =     3.1111
   XX=    23.1234   YX=     1.2008   ZX=    -1.2987
   XY=     1.6156   YY=    26.0718   ZY=    -0.5037
   XZ=    -1.2382   YZ=     0.0912   ZZ=    25.9910
   Eigenvalues:    22.2281    25.8219    27.1361
     46  H    Isotropic =    24.2163   Anisotropy =     6.0657
   XX=    21.4641   YX=     0.2788   ZX=     0.0636
   XY=     0.3284   YY=    28.1832   ZY=     1.2044
   XZ=     0.6413   YZ=    -0.0844   ZZ=    23.0015
   Eigenvalues:    21.3824    23.0064    28.2601
     47  H    Isotropic =    25.0161   Anisotropy =     5.9805
   XX=    23.8980   YX=     0.9594   ZX=    -1.5391
   XY=     0.7850   YY=    28.5917   ZY=    -0.7626
   XZ=    -1.6427   YZ=    -1.1924   ZZ=    22.5586
   Eigenvalues:    21.4856    24.5596    29.0031
     48  H    Isotropic =    28.5829   Anisotropy =     5.4103
   XX=    29.5685   YX=    -0.2685   ZX=    -4.0022
   XY=    -0.5927   YY=    27.1248   ZY=     0.7477
   XZ=    -0.8230   YZ=     2.7323   ZZ=    29.0553
   Eigenvalues:    25.8115    27.7474    32.1897
     49  H    Isotropic =    28.2981   Anisotropy =    10.1776
   XX=    25.0296   YX=    -1.9926   ZX=     5.0581
   XY=    -0.0619   YY=    27.4206   ZY=    -0.8121
   XZ=     4.7417   YZ=    -0.9403   ZZ=    32.4442
   Eigenvalues:    22.5336    27.2776    35.0832
     50  H    Isotropic =    28.0275   Anisotropy =     8.5387
   XX=    23.6353   YX=    -0.6845   ZX=     2.4505
   XY=     0.2507   YY=    32.1761   ZY=    -2.0236
   XZ=     3.7197   YZ=    -3.1103   ZZ=    28.2711
   Eigenvalues:    21.9982    28.3643    33.7200
     51  H    Isotropic =    26.9643   Anisotropy =     6.5029
   XX=    26.8327   YX=    -0.4592   ZX=    -1.6427
   XY=     0.2699   YY=    30.9761   ZY=     2.0121
   XZ=    -4.1369   YZ=     0.7222   ZZ=    23.0842
   Eigenvalues:    21.3737    28.2197    31.2996
     52  H    Isotropic =    27.2435   Anisotropy =     9.0470
   XX=    31.2287   YX=    -2.8852   ZX=     1.5481
   XY=    -2.6031   YY=    26.1146   ZY=    -2.8971
   XZ=     1.8824   YZ=    -2.6856   ZZ=    24.3872
   Eigenvalues:    22.3204    26.1353    33.2749
     53  H    Isotropic =    24.6058   Anisotropy =    13.8578
   XX=    30.8460   YX=     0.4386   ZX=     4.0335
   XY=    -1.3117   YY=    21.9801   ZY=    -1.6975
   XZ=     8.1699   YZ=    -1.0612   ZZ=    20.9912
   Eigenvalues:    17.8045    22.1684    33.8443
     54  H    Isotropic =    27.1022   Anisotropy =    13.3765
   XX=    21.3536   YX=    -0.0386   ZX=    -3.0509
   XY=    -1.0005   YY=    35.0603   ZY=     4.2432
   XZ=    -2.8446   YZ=     1.8457   ZZ=    24.8927
   Eigenvalues:    19.6080    25.6787    36.0199
     55  H    Isotropic =    25.3493   Anisotropy =    15.1161
   XX=    26.4223   YX=     0.8056   ZX=     6.7640
   XY=     2.3930   YY=    29.9649   ZY=     6.9082
   XZ=     6.4205   YZ=     5.8024   ZZ=    19.6607
   Eigenvalues:    14.1749    26.4463    35.4267
     56  H    Isotropic =    25.4332   Anisotropy =    16.0905
   XX=    29.6138   YX=     2.0768   ZX=    -4.9921
   XY=     3.6424   YY=    28.3085   ZY=    -6.7702
   XZ=    -6.5633   YZ=    -6.4847   ZZ=    18.3773
   Eigenvalues:    13.9913    26.1480    36.1602
     57  H    Isotropic =    27.0504   Anisotropy =    13.6432
   XX=    32.7909   YX=     4.1474   ZX=     4.7575
   XY=     3.5796   YY=    20.4833   ZY=     3.3564
   XZ=     2.3191   YZ=     2.7600   ZZ=    27.8772
   Eigenvalues:    18.8784    26.1270    36.1459
     58  H    Isotropic =    24.3342   Anisotropy =    12.4183
   XX=    30.6288   YX=    -3.7026   ZX=    -1.4798
   XY=    -3.3812   YY=    22.2113   ZY=     0.6258
   XZ=    -3.9461   YZ=     1.6329   ZZ=    20.1625
   Eigenvalues:    19.4591    20.9304    32.6131
     59  H    Isotropic =    26.9012   Anisotropy =     8.4788
   XX=    26.6139   YX=     2.9965   ZX=    -4.9960
   XY=     1.7125   YY=    29.4632   ZY=    -0.2720
   XZ=    -5.5672   YZ=    -0.8209   ZZ=    24.6264
   Eigenvalues:    20.1145    28.0353    32.5537
     60  H    Isotropic =    27.4791   Anisotropy =     4.4374
   XX=    30.0535   YX=     1.3095   ZX=     1.1475
   XY=     1.1788   YY=    22.7365   ZY=     1.6102
   XZ=    -2.2485   YZ=     1.8661   ZZ=    29.6474
   Eigenvalues:    22.0988    29.9012    30.4374
     61  H    Isotropic =    28.5104   Anisotropy =     7.2900
   XX=    30.4877   YX=    -1.7554   ZX=    -0.5746
   XY=    -4.0542   YY=    29.8145   ZY=    -2.9305
   XZ=    -0.3681   YZ=    -2.5231   ZZ=    25.2290
   Eigenvalues:    23.5172    28.6436    33.3704
     62  H    Isotropic =    28.8221   Anisotropy =     6.5747
   XX=    30.8452   YX=    -0.0906   ZX=    -0.4660
   XY=    -0.0082   YY=    27.9080   ZY=     5.6678
   XZ=     1.7241   YZ=     4.9792   ZZ=    27.7132
   Eigenvalues:    22.4583    30.8028    33.2053
     63  H    Isotropic =    28.0142   Anisotropy =     8.1353
   XX=    29.9133   YX=     2.5228   ZX=    -0.2565
   XY=     5.1597   YY=    27.3331   ZY=    -4.4754
   XZ=     1.6856   YZ=    -4.1423   ZZ=    26.7962
   Eigenvalues:    21.4883    29.1166    33.4378
     64  H    Isotropic =    24.9683   Anisotropy =     6.8669
   XX=    29.2587   YX=     1.5295   ZX=    -0.3813
   XY=     1.3588   YY=    21.6863   ZY=     0.8292
   XZ=    -0.5945   YZ=     0.6792   ZZ=    23.9598
   Eigenvalues:    21.1718    24.1868    29.5462
     65  H    Isotropic =    24.2194   Anisotropy =     8.3548
   XX=    29.0097   YX=     2.0592   ZX=     1.3740
   XY=     2.2713   YY=    21.1773   ZY=     1.2463
   XZ=     0.7328   YZ=     0.7275   ZZ=    22.4711
   Eigenvalues:    20.3698    22.4992    29.7892
     66  H    Isotropic =    24.9791   Anisotropy =     4.5399
   XX=    26.9289   YX=     0.6449   ZX=    -1.8041
   XY=     0.7549   YY=    21.7608   ZY=     0.7493
   XZ=    -0.9477   YZ=     1.0447   ZZ=    26.2475
   Eigenvalues:    21.4161    25.5155    28.0057
     67  H    Isotropic =    27.6377   Anisotropy =    10.0747
   XX=    26.2351   YX=     4.3482   ZX=     0.7268
   XY=     1.3876   YY=    33.3131   ZY=     1.8574
   XZ=    -0.5339   YZ=    -0.8151   ZZ=    23.3650
   Eigenvalues:    23.3364    25.2226    34.3542
     68  H    Isotropic =    26.9949   Anisotropy =     7.4832
   XX=    30.5835   YX=     1.0645   ZX=     1.6497
   XY=     2.6900   YY=    29.1583   ZY=    -1.1973
   XZ=    -1.4723   YZ=    -2.6803   ZZ=    21.2428
   Eigenvalues:    20.7658    28.2351    31.9837
     69  H    Isotropic =    28.1168   Anisotropy =     9.3713
   XX=    27.4585   YX=     3.3133   ZX=    -2.7983
   XY=     2.0425   YY=    28.7848   ZY=    -4.4074
   XZ=    -0.7251   YZ=    -4.4975   ZZ=    28.1071
   Eigenvalues:    23.8683    26.1177    34.3643
     70  H    Isotropic =    28.1981   Anisotropy =     9.4861
   XX=    27.1365   YX=     0.7947   ZX=     2.5199
   XY=    -0.8848   YY=    25.7991   ZY=     0.4511
   XZ=     6.1413   YZ=     2.9654   ZZ=    31.6586
   Eigenvalues:    23.9837    26.0884    34.5221
     71  H    Isotropic =    28.2862   Anisotropy =     8.9562
   XX=    24.8255   YX=    -1.7835   ZX=    -1.3718
   XY=    -1.8939   YY=    26.4330   ZY=    -0.5564
   XZ=    -2.0320   YZ=     3.1244   ZZ=    33.6003
   Eigenvalues:    23.5650    27.0366    34.2571
     72  H    Isotropic =    28.6952   Anisotropy =     5.3323
   XX=    23.1131   YX=     0.6232   ZX=     0.5536
   XY=    -1.7826   YY=    30.8306   ZY=     0.5263
   XZ=     0.6229   YZ=    -1.0753   ZZ=    32.1419
   Eigenvalues:    23.0345    30.8010    32.2501
     73  H    Isotropic =    28.5623   Anisotropy =    12.3469
   XX=    34.8338   YX=     1.7428   ZX=     4.2284
   XY=     4.1817   YY=    25.8217   ZY=    -1.3844
   XZ=     3.8374   YZ=    -1.3222   ZZ=    25.0315
   Eigenvalues:    22.0571    26.8362    36.7936
     74  H    Isotropic =    29.4779   Anisotropy =    14.8552
   XX=    33.5972   YX=     1.1397   ZX=     7.4029
   XY=     1.9816   YY=    27.0089   ZY=     2.7635
   XZ=     8.3560   YZ=    -0.7543   ZZ=    27.8274
   Eigenvalues:    22.3202    26.7320    39.3813
     75  H    Isotropic =    27.5811   Anisotropy =     7.3673
   XX=    30.0974   YX=     1.7403   ZX=     3.6923
   XY=     0.1062   YY=    30.8483   ZY=    -0.8731
   XZ=     5.3218   YZ=     0.7769   ZZ=    21.7976
   Eigenvalues:    19.8052    30.4454    32.4926
     76  H    Isotropic =    27.7537   Anisotropy =     9.8454
   XX=    25.0164   YX=     0.5597   ZX=    -0.6220
   XY=    -0.0688   YY=    28.0414   ZY=    -2.9760
   XZ=    -1.0794   YZ=    -7.0399   ZZ=    30.2032
   Eigenvalues:    23.8882    25.0555    34.3172
     77  H    Isotropic =    28.3281   Anisotropy =     9.2910
   XX=    27.0877   YX=    -0.1888   ZX=     1.0352
   XY=     0.8029   YY=    24.0234   ZY=     0.2304
   XZ=     3.3572   YZ=    -0.4846   ZZ=    33.8732
   Eigenvalues:    23.9789    26.4833    34.5221
     78  H    Isotropic =    27.3315   Anisotropy =     6.9301
   XX=    27.3216   YX=    -2.3998   ZX=     0.1144
   XY=    -2.3646   YY=    23.6744   ZY=    -1.4991
   XZ=    -3.8903   YZ=    -2.7177   ZZ=    30.9984
   Eigenvalues:    21.6919    28.3510    31.9516
 End of Minotr F.D. properties file   721 does not exist.
 End of Minotr F.D. properties file   722 does not exist.
 End of Minotr F.D. properties file   788 does not exist.

 **********************************************************************

            Population analysis using the SCF Density.

 **********************************************************************

 Orbital symmetries:
       Occupied  (A) (A) (A) (A) (A) (A) (A) (A) (A) (A) (A) (A)
                 (A) (A) (A) (A) (A) (A) (A) (A) (A) (A) (A) (A)
                 (A) (A) (A) (A) (A) (A) (A) (A) (A) (A) (A) (A)
                 (A) (A) (A) (A) (A) (A) (A) (A) (A) (A) (A) (A)
                 (A) (A) (A) (A) (A) (A) (A) (A) (A) (A) (A) (A)
                 (A) (A) (A) (A) (A) (A) (A) (A) (A) (A) (A) (A)
                 (A) (A) (A) (A) (A) (A) (A) (A) (A) (A) (A) (A)
                 (A) (A) (A) (A) (A) (A) (A) (A) (A) (A) (A) (A)
                 (A) (A) (A) (A) (A) (A) (A) (A) (A) (A) (A) (A)
                 (A) (A) (A) (A) (A) (A) (A) (A) (A) (A) (A) (A)
                 (A) (A) (A) (A) (A) (A) (A) (A) (A) (A) (A) (A)
                 (A) (A) (A) (A) (A) (A) (A) (A) (A) (A) (A) (A)
                 (A) (A) (A) (A) (A) (A) (A) (A) (A) (A) (A) (A)
                 (A) (A) (A)
       Virtual   (A) (A) (A) (A) (A) (A) (A) (A) (A) (A) (A) (A)
                 (A) (A) (A) (A) (A) (A) (A) (A) (A) (A) (A) (A)
                 (A) (A) (A) (A) (A) (A) (A) (A) (A) (A) (A) (A)
                 (A) (A) (A) (A) (A) (A) (A) (A) (A) (A) (A) (A)
                 (A) (A) (A) (A) (A) (A) (A) (A) (A) (A) (A) (A)
                 (A) (A) (A) (A) (A) (A) (A) (A) (A) (A) (A) (A)
                 (A) (A) (A) (A) (A) (A) (A) (A) (A) (A) (A) (A)
                 (A) (A) (A) (A) (A) (A) (A) (A) (A) (A) (A) (A)
                 (A) (A) (A) (A) (A) (A) (A) (A) (A) (A) (A) (A)
                 (A) (A) (A) (A) (A) (A) (A) (A) (A) (A) (A) (A)
                 (A) (A) (A) (A) (A) (A) (A) (A) (A) (A) (A) (A)
                 (A) (A) (A) (A) (A) (A) (A) (A) (A) (A) (A) (A)
                 (A) (A) (A) (A) (A) (A) (A) (A) (A) (A) (A) (A)
                 (A) (A) (A) (A) (A) (A) (A) (A) (A) (A) (A) (A)
                 (A) (A) (A) (A) (A) (A) (A) (A) (A) (A) (A) (A)
                 (A) (A) (A) (A) (A) (A) (A) (A) (A) (A) (A) (A)
                 (A) (A) (A) (A) (A) (A) (A) (A) (A) (A) (A) (A)
                 (A) (A) (A) (A) (A) (A) (A) (A) (A) (A) (A) (A)
                 (A) (A) (A) (A) (A) (A) (A) (A) (A) (A) (A) (A)
                 (A) (A) (A) (A) (A) (A) (A) (A) (A) (A) (A) (A)
                 (A) (A) (A) (A) (A) (A) (A) (A) (A) (A) (A) (A)
                 (A) (A) (A) (A) (A) (A) (A) (A) (A) (A) (A) (A)
                 (A) (A) (A) (A) (A) (A) (A) (A) (A) (A) (A) (A)
                 (A) (A) (A) (A) (A) (A) (A) (A) (A) (A) (A) (A)
                 (A) (A) (A) (A) (A) (A) (A) (A) (A) (A) (A) (A)
                 (A) (A) (A) (A) (A) (A) (A) (A) (A) (A) (A) (A)
                 (A) (A) (A) (A) (A) (A) (A) (A) (A) (A) (A) (A)
                 (A) (A) (A) (A) (A) (A) (A) (A) (A) (A) (A) (A)
                 (A) (A) (A) (A) (A) (A) (A) (A) (A) (A) (A) (A)
                 (A) (A) (A) (A) (A) (A) (A) (A) (A) (A) (A) (A)
                 (A) (A) (A) (A) (A) (A) (A) (A) (A) (A) (A) (A)
                 (A) (A) (A) (A) (A) (A) (A) (A) (A) (A) (A) (A)
                 (A) (A) (A) (A) (A) (A) (A) (A) (A) (A) (A) (A)
                 (A) (A) (A) (A) (A) (A) (A) (A) (A) (A) (A) (A)
                 (A) (A) (A) (A) (A) (A) (A) (A) (A) (A) (A) (A)
                 (A) (A) (A) (A) (A) (A) (A) (A) (A) (A) (A) (A)
                 (A) (A) (A) (A) (A) (A) (A) (A) (A) (A) (A) (A)
                 (A) (A) (A) (A) (A) (A) (A) (A) (A) (A) (A) (A)
                 (A) (A) (A) (A) (A) (A) (A) (A) (A) (A) (A) (A)
                 (A) (A) (A) (A) (A) (A) (A) (A) (A) (A) (A) (A)
                 (A) (A) (A) (A) (A) (A) (A) (A) (A) (A) (A) (A)
                 (A) (A) (A) (A) (A) (A) (A) (A) (A) (A) (A) (A)
                 (A) (A) (A) (A) (A) (A) (A) (A) (A) (A) (A) (A)
                 (A) (A) (A) (A) (A) (A) (A) (A) (A) (A) (A) (A)
                 (A) (A) (A) (A) (A) (A) (A) (A) (A) (A) (A) (A)
                 (A) (A) (A) (A) (A) (A) (A) (A) (A) (A) (A) (A)
                 (A) (A) (A) (A) (A) (A) (A) (A) (A) (A) (A) (A)
                 (A) (A) (A) (A) (A) (A) (A) (A) (A) (A) (A) (A)
                 (A) (A) (A) (A) (A) (A) (A) (A) (A) (A) (A) (A)
                 (A) (A) (A) (A) (A) (A) (A) (A) (A) (A) (A) (A)
                 (A) (A) (A) (A) (A) (A) (A) (A) (A) (A) (A) (A)
                 (A) (A) (A) (A) (A) (A) (A) (A) (A) (A) (A) (A)
                 (A) (A) (A) (A) (A) (A) (A) (A) (A) (A) (A) (A)
                 (A) (A) (A) (A) (A) (A) (A) (A) (A) (A) (A) (A)
                 (A) (A) (A) (A) (A) (A) (A) (A) (A) (A) (A) (A)
                 (A) (A) (A) (A) (A) (A) (A) (A) (A) (A) (A) (A)
                 (A) (A) (A) (A) (A) (A) (A) (A) (A) (A) (A) (A)
                 (A) (A) (A) (A) (A) (A) (A) (A) (A) (A) (A) (A)
                 (A) (A) (A) (A) (A) (A) (A) (A) (A) (A) (A) (A)
                 (A) (A) (A) (A) (A) (A) (A) (A) (A) (A) (A) (A)
                 (A) (A) (A) (A) (A) (A) (A) (A) (A) (A) (A) (A)
                 (A) (A) (A) (A) (A) (A) (A) (A) (A) (A) (A) (A)
                 (A) (A) (A) (A) (A) (A) (A) (A) (A) (A) (A) (A)
                 (A) (A) (A) (A) (A) (A) (A) (A) (A) (A) (A) (A)
                 (A) (A) (A) (A) (A) (A) (A) (A) (A) (A) (A) (A)
                 (A) (A) (A) (A) (A) (A) (A) (A) (A) (A) (A) (A)
                 (A) (A) (A) (A) (A) (A) (A) (A) (A) (A) (A) (A)
                 (A) (A) (A) (A) (A) (A) (A) (A) (A) (A) (A) (A)
                 (A) (A) (A) (A) (A) (A) (A) (A) (A) (A) (A) (A)
                 (A) (A) (A) (A) (A) (A) (A) (A) (A) (A) (A) (A)
                 (A) (A) (A) (A) (A) (A) (A) (A) (A) (A) (A) (A)
                 (A) (A) (A) (A) (A) (A) (A) (A) (A) (A) (A) (A)
                 (A) (A) (A) (A) (A) (A) (A) (A) (A) (A) (A) (A)
                 (A) (A) (A) (A) (A) (A) (A) (A) (A) (A) (A) (A)
                 (A) (A) (A) (A) (A) (A) (A) (A) (A) (A) (A) (A)
                 (A) (A) (A) (A) (A) (A) (A) (A) (A) (A) (A) (A)
                 (A) (A) (A) (A) (A) (A) (A) (A) (A) (A) (A) (A)
                 (A) (A) (A) (A) (A) (A) (A) (A) (A) (A) (A) (A)
                 (A) (A) (A) (A) (A) (A) (A) (A) (A) (A) (A) (A)
                 (A) (A) (A) (A) (A) (A) (A) (A) (A) (A) (A) (A)
                 (A) (A) (A) (A) (A) (A) (A) (A) (A) (A) (A) (A)
                 (A) (A) (A) (A) (A) (A) (A) (A) (A) (A) (A) (A)
                 (A) (A) (A) (A) (A) (A) (A) (A) (A) (A) (A) (A)
                 (A) (A) (A) (A) (A) (A) (A) (A) (A) (A) (A) (A)
                 (A) (A) (A) (A) (A) (A) (A) (A) (A) (A) (A) (A)
                 (A) (A) (A) (A) (A) (A) (A) (A) (A) (A) (A) (A)
                 (A) (A) (A) (A) (A) (A) (A) (A) (A) (A) (A) (A)
                 (A) (A) (A) (A) (A) (A) (A) (A) (A) (A) (A) (A)
                 (A) (A) (A) (A) (A) (A) (A) (A) (A) (A) (A) (A)
                 (A) (A) (A) (A) (A) (A) (A) (A) (A) (A) (A) (A)
                 (A) (A) (A) (A) (A) (A) (A) (A) (A) (A) (A) (A)
                 (A) (A) (A) (A) (A) (A) (A) (A) (A) (A) (A) (A)
                 (A) (A) (A) (A) (A) (A) (A) (A) (A) (A) (A) (A)
                 (A) (A) (A) (A) (A) (A) (A) (A) (A) (A) (A) (A)
                 (A) (A) (A) (A) (A) (A) (A) (A) (A) (A) (A) (A)
                 (A) (A) (A) (A) (A) (A) (A) (A) (A) (A) (A) (A)
                 (A) (A) (A) (A) (A) (A) (A) (A) (A) (A) (A) (A)
                 (A) (A) (A) (A) (A) (A) (A) (A) (A) (A) (A) (A)
                 (A) (A) (A) (A) (A) (A) (A) (A) (A) (A) (A) (A)
                 (A) (A) (A) (A) (A) (A) (A) (A) (A) (A) (A) (A)
                 (A) (A) (A) (A) (A) (A) (A) (A) (A) (A) (A) (A)
                 (A) (A) (A) (A) (A) (A) (A) (A)
 The electronic state is 1-A.
 Alpha  occ. eigenvalues --  -19.25161 -19.25080 -19.25055 -19.24943 -19.24927
 Alpha  occ. eigenvalues --  -19.24898 -19.24554 -19.24490 -19.23909 -19.23581
 Alpha  occ. eigenvalues --  -10.30252 -10.30096 -10.30057 -10.29915 -10.29860
 Alpha  occ. eigenvalues --  -10.29849 -10.29748 -10.29464 -10.29277 -10.29126
 Alpha  occ. eigenvalues --  -10.28027 -10.27890 -10.27395 -10.27187 -10.26999
 Alpha  occ. eigenvalues --  -10.26637 -10.24763 -10.24724 -10.24709 -10.24656
 Alpha  occ. eigenvalues --  -10.24588 -10.24576 -10.23945 -10.23941 -10.23885
 Alpha  occ. eigenvalues --  -10.23871 -10.23832 -10.23721 -10.23431 -10.23191
 Alpha  occ. eigenvalues --  -10.23070 -10.23060 -10.22920 -10.22887  -1.11189
 Alpha  occ. eigenvalues --   -1.10965  -1.09451  -1.09425  -1.09167  -1.09161
 Alpha  occ. eigenvalues --   -1.08878  -1.08687  -1.07284  -1.07147  -0.89568
 Alpha  occ. eigenvalues --   -0.88208  -0.87941  -0.87815  -0.84352  -0.83543
 Alpha  occ. eigenvalues --   -0.79839  -0.78537  -0.78251  -0.77664  -0.77642
 Alpha  occ. eigenvalues --   -0.75973  -0.75498  -0.75153  -0.72378  -0.71549
 Alpha  occ. eigenvalues --   -0.69965  -0.69746  -0.68614  -0.68595  -0.66443
 Alpha  occ. eigenvalues --   -0.66061  -0.65216  -0.63248  -0.63166  -0.62483
 Alpha  occ. eigenvalues --   -0.61582  -0.60839  -0.59419  -0.58395  -0.57943
 Alpha  occ. eigenvalues --   -0.57054  -0.55858  -0.55315  -0.53732  -0.53464
 Alpha  occ. eigenvalues --   -0.52719  -0.52078  -0.51705  -0.51455  -0.50442
 Alpha  occ. eigenvalues --   -0.50091  -0.49656  -0.49314  -0.49193  -0.48918
 Alpha  occ. eigenvalues --   -0.48541  -0.48420  -0.47279  -0.46995  -0.46893
 Alpha  occ. eigenvalues --   -0.46493  -0.45853  -0.45361  -0.45276  -0.44928
 Alpha  occ. eigenvalues --   -0.44869  -0.44676  -0.44336  -0.44030  -0.43639
 Alpha  occ. eigenvalues --   -0.43389  -0.43110  -0.42720  -0.42281  -0.41760
 Alpha  occ. eigenvalues --   -0.41620  -0.41419  -0.41375  -0.40958  -0.40895
 Alpha  occ. eigenvalues --   -0.40355  -0.40140  -0.39901  -0.39498  -0.39342
 Alpha  occ. eigenvalues --   -0.38953  -0.37296  -0.37183  -0.36859  -0.36688
 Alpha  occ. eigenvalues --   -0.36599  -0.36357  -0.35772  -0.34846  -0.34424
 Alpha  occ. eigenvalues --   -0.34212  -0.33972  -0.33820  -0.32747  -0.32581
 Alpha  occ. eigenvalues --   -0.32132  -0.31919  -0.31641  -0.31179  -0.28809
 Alpha  occ. eigenvalues --   -0.28710  -0.25011  -0.24946  -0.24723  -0.24640
 Alpha  occ. eigenvalues --   -0.24415  -0.22599  -0.22500  -0.21846
 Alpha virt. eigenvalues --   -0.01800  -0.01110  -0.01026  -0.00822  -0.00418
 Alpha virt. eigenvalues --    0.00281   0.00525   0.00839   0.00976   0.01206
 Alpha virt. eigenvalues --    0.01420   0.01700   0.01960   0.02107   0.02372
 Alpha virt. eigenvalues --    0.02733   0.02939   0.03150   0.03373   0.03687
 Alpha virt. eigenvalues --    0.04048   0.04162   0.04332   0.04605   0.04909
 Alpha virt. eigenvalues --    0.05139   0.05289   0.05305   0.05695   0.05868
 Alpha virt. eigenvalues --    0.06121   0.06390   0.06560   0.06796   0.07061
 Alpha virt. eigenvalues --    0.07448   0.07521   0.07903   0.08218   0.08505
 Alpha virt. eigenvalues --    0.08553   0.09017   0.09340   0.09453   0.09605
 Alpha virt. eigenvalues --    0.09917   0.10186   0.10256   0.10334   0.10794
 Alpha virt. eigenvalues --    0.11009   0.11502   0.11672   0.11758   0.11926
 Alpha virt. eigenvalues --    0.12344   0.12483   0.12631   0.12687   0.12744
 Alpha virt. eigenvalues --    0.13066   0.13354   0.13554   0.13630   0.13831
 Alpha virt. eigenvalues --    0.13918   0.14325   0.14377   0.14726   0.15034
 Alpha virt. eigenvalues --    0.15087   0.15290   0.15421   0.15659   0.15707
 Alpha virt. eigenvalues --    0.15888   0.16050   0.16141   0.16350   0.16428
 Alpha virt. eigenvalues --    0.16712   0.16831   0.17030   0.17158   0.17347
 Alpha virt. eigenvalues --    0.17454   0.17488   0.17890   0.17984   0.18155
 Alpha virt. eigenvalues --    0.18221   0.18433   0.18684   0.18811   0.19026
 Alpha virt. eigenvalues --    0.19094   0.19215   0.19290   0.19516   0.19679
 Alpha virt. eigenvalues --    0.19997   0.20056   0.20274   0.20341   0.20470
 Alpha virt. eigenvalues --    0.20648   0.20817   0.20904   0.21196   0.21241
 Alpha virt. eigenvalues --    0.21658   0.21757   0.21823   0.21845   0.22053
 Alpha virt. eigenvalues --    0.22292   0.22450   0.22600   0.22736   0.22791
 Alpha virt. eigenvalues --    0.22993   0.23240   0.23264   0.23560   0.23720
 Alpha virt. eigenvalues --    0.23925   0.23998   0.24143   0.24332   0.24364
 Alpha virt. eigenvalues --    0.24565   0.24714   0.24998   0.25142   0.25319
 Alpha virt. eigenvalues --    0.25402   0.25479   0.25909   0.26024   0.26194
 Alpha virt. eigenvalues --    0.26288   0.26476   0.26816   0.26828   0.27073
 Alpha virt. eigenvalues --    0.27257   0.27501   0.27544   0.27616   0.27755
 Alpha virt. eigenvalues --    0.27870   0.28020   0.28162   0.28605   0.28725
 Alpha virt. eigenvalues --    0.28782   0.28907   0.29012   0.29180   0.29322
 Alpha virt. eigenvalues --    0.29399   0.29558   0.29698   0.29850   0.30026
 Alpha virt. eigenvalues --    0.30370   0.30672   0.30738   0.31007   0.31078
 Alpha virt. eigenvalues --    0.31175   0.31522   0.31647   0.31805   0.31928
 Alpha virt. eigenvalues --    0.32159   0.32180   0.32454   0.32483   0.32990
 Alpha virt. eigenvalues --    0.33083   0.33367   0.33457   0.33532   0.33775
 Alpha virt. eigenvalues --    0.33954   0.34150   0.34330   0.34596   0.34670
 Alpha virt. eigenvalues --    0.34789   0.35098   0.35207   0.35423   0.35756
 Alpha virt. eigenvalues --    0.35988   0.36088   0.36357   0.36430   0.36670
 Alpha virt. eigenvalues --    0.37052   0.37345   0.37509   0.37825   0.38008
 Alpha virt. eigenvalues --    0.38207   0.38438   0.38593   0.38700   0.39046
 Alpha virt. eigenvalues --    0.39298   0.39452   0.39634   0.39742   0.40027
 Alpha virt. eigenvalues --    0.40212   0.40500   0.40814   0.41129   0.41277
 Alpha virt. eigenvalues --    0.41482   0.41621   0.41880   0.42107   0.42164
 Alpha virt. eigenvalues --    0.42718   0.42863   0.42936   0.43472   0.43762
 Alpha virt. eigenvalues --    0.43931   0.44157   0.44391   0.44699   0.45125
 Alpha virt. eigenvalues --    0.45500   0.45956   0.46247   0.46516   0.46756
 Alpha virt. eigenvalues --    0.47168   0.47362   0.47914   0.48124   0.48253
 Alpha virt. eigenvalues --    0.48641   0.48860   0.49318   0.49767   0.49873
 Alpha virt. eigenvalues --    0.50180   0.50546   0.51118   0.51427   0.52090
 Alpha virt. eigenvalues --    0.52476   0.52499   0.53097   0.53169   0.53727
 Alpha virt. eigenvalues --    0.53883   0.54037   0.54256   0.54840   0.54978
 Alpha virt. eigenvalues --    0.55543   0.55665   0.56044   0.56142   0.56375
 Alpha virt. eigenvalues --    0.56688   0.56761   0.56988   0.57232   0.57542
 Alpha virt. eigenvalues --    0.57789   0.58261   0.58443   0.58779   0.58858
 Alpha virt. eigenvalues --    0.59024   0.59435   0.59574   0.60001   0.60335
 Alpha virt. eigenvalues --    0.60734   0.60965   0.61486   0.61596   0.61897
 Alpha virt. eigenvalues --    0.62023   0.62372   0.62893   0.63068   0.63162
 Alpha virt. eigenvalues --    0.63443   0.63638   0.63683   0.63931   0.64274
 Alpha virt. eigenvalues --    0.64478   0.64860   0.65046   0.65365   0.65441
 Alpha virt. eigenvalues --    0.65801   0.66382   0.66628   0.66820   0.66899
 Alpha virt. eigenvalues --    0.67028   0.67100   0.67244   0.67687   0.68135
 Alpha virt. eigenvalues --    0.68344   0.68414   0.68706   0.68871   0.69169
 Alpha virt. eigenvalues --    0.69351   0.69581   0.69646   0.69882   0.70054
 Alpha virt. eigenvalues --    0.70258   0.70457   0.70761   0.71004   0.71202
 Alpha virt. eigenvalues --    0.71649   0.71876   0.71933   0.72263   0.72476
 Alpha virt. eigenvalues --    0.72670   0.72988   0.73291   0.73529   0.73766
 Alpha virt. eigenvalues --    0.73818   0.74208   0.74468   0.74648   0.74889
 Alpha virt. eigenvalues --    0.75014   0.75429   0.75518   0.75849   0.76028
 Alpha virt. eigenvalues --    0.76131   0.76504   0.76751   0.77004   0.77030
 Alpha virt. eigenvalues --    0.77372   0.77683   0.77870   0.78101   0.78204
 Alpha virt. eigenvalues --    0.78714   0.78866   0.79158   0.79351   0.79617
 Alpha virt. eigenvalues --    0.79722   0.80306   0.80496   0.80702   0.80934
 Alpha virt. eigenvalues --    0.81037   0.81511   0.81613   0.81674   0.82404
 Alpha virt. eigenvalues --    0.82529   0.82860   0.83096   0.83246   0.83522
 Alpha virt. eigenvalues --    0.83671   0.84010   0.84420   0.84545   0.84677
 Alpha virt. eigenvalues --    0.85077   0.85227   0.85428   0.85597   0.85793
 Alpha virt. eigenvalues --    0.86206   0.86588   0.86655   0.86998   0.87117
 Alpha virt. eigenvalues --    0.87293   0.87624   0.87831   0.88171   0.88434
 Alpha virt. eigenvalues --    0.88927   0.89353   0.89641   0.90038   0.90219
 Alpha virt. eigenvalues --    0.90760   0.91260   0.91452   0.91805   0.92212
 Alpha virt. eigenvalues --    0.92374   0.92796   0.92932   0.93114   0.93699
 Alpha virt. eigenvalues --    0.94056   0.94400   0.94614   0.94864   0.95327
 Alpha virt. eigenvalues --    0.96286   0.96555   0.97480   0.97521   0.97622
 Alpha virt. eigenvalues --    0.98097   0.98479   0.98828   0.99237   0.99727
 Alpha virt. eigenvalues --    1.00047   1.00656   1.01205   1.01447   1.01467
 Alpha virt. eigenvalues --    1.01907   1.02752   1.03243   1.03560   1.03810
 Alpha virt. eigenvalues --    1.04221   1.04433   1.05017   1.05311   1.05410
 Alpha virt. eigenvalues --    1.05716   1.06149   1.06408   1.07156   1.07499
 Alpha virt. eigenvalues --    1.07733   1.07908   1.08451   1.08512   1.08973
 Alpha virt. eigenvalues --    1.09625   1.09812   1.10298   1.10558   1.10944
 Alpha virt. eigenvalues --    1.11077   1.11397   1.11605   1.12214   1.12671
 Alpha virt. eigenvalues --    1.13152   1.13185   1.13614   1.14212   1.14590
 Alpha virt. eigenvalues --    1.14826   1.15176   1.15602   1.15635   1.15771
 Alpha virt. eigenvalues --    1.16106   1.16568   1.16723   1.16962   1.17719
 Alpha virt. eigenvalues --    1.17870   1.18341   1.18818   1.19256   1.19517
 Alpha virt. eigenvalues --    1.19841   1.20196   1.20588   1.20692   1.21154
 Alpha virt. eigenvalues --    1.21407   1.21656   1.21884   1.22092   1.22209
 Alpha virt. eigenvalues --    1.22555   1.23002   1.23267   1.23748   1.24170
 Alpha virt. eigenvalues --    1.24316   1.24787   1.25177   1.25633   1.25766
 Alpha virt. eigenvalues --    1.26669   1.26900   1.27043   1.27140   1.27757
 Alpha virt. eigenvalues --    1.28196   1.28708   1.28747   1.29013   1.29476
 Alpha virt. eigenvalues --    1.29895   1.30422   1.30986   1.31161   1.31700
 Alpha virt. eigenvalues --    1.31933   1.32113   1.32738   1.32916   1.33179
 Alpha virt. eigenvalues --    1.33579   1.33851   1.34219   1.34637   1.34777
 Alpha virt. eigenvalues --    1.35105   1.35450   1.35795   1.36042   1.36612
 Alpha virt. eigenvalues --    1.37142   1.37464   1.37912   1.38189   1.38272
 Alpha virt. eigenvalues --    1.38688   1.38867   1.39372   1.39668   1.39758
 Alpha virt. eigenvalues --    1.39836   1.40043   1.40710   1.41251   1.41595
 Alpha virt. eigenvalues --    1.41955   1.42910   1.43095   1.43798   1.43956
 Alpha virt. eigenvalues --    1.44036   1.44357   1.44866   1.45006   1.45518
 Alpha virt. eigenvalues --    1.46086   1.46481   1.46967   1.47151   1.47663
 Alpha virt. eigenvalues --    1.48418   1.49145   1.49341   1.49699   1.50076
 Alpha virt. eigenvalues --    1.50177   1.50727   1.51082   1.51657   1.52389
 Alpha virt. eigenvalues --    1.52952   1.53093   1.53799   1.54243   1.54711
 Alpha virt. eigenvalues --    1.54840   1.55415   1.55939   1.56573   1.56867
 Alpha virt. eigenvalues --    1.56900   1.57450   1.58187   1.58734   1.58976
 Alpha virt. eigenvalues --    1.59424   1.59733   1.60626   1.60745   1.61084
 Alpha virt. eigenvalues --    1.62041   1.62677   1.62883   1.63448   1.64072
 Alpha virt. eigenvalues --    1.65098   1.65158   1.65837   1.66733   1.66945
 Alpha virt. eigenvalues --    1.67569   1.68228   1.68633   1.69422   1.70017
 Alpha virt. eigenvalues --    1.71032   1.71349   1.71879   1.72332   1.72694
 Alpha virt. eigenvalues --    1.72911   1.73462   1.73796   1.74085   1.75228
 Alpha virt. eigenvalues --    1.75561   1.76529   1.76826   1.77289   1.77437
 Alpha virt. eigenvalues --    1.77633   1.77849   1.78701   1.78801   1.79665
 Alpha virt. eigenvalues --    1.79906   1.79996   1.80219   1.81016   1.81983
 Alpha virt. eigenvalues --    1.82194   1.82429   1.82698   1.83709   1.84902
 Alpha virt. eigenvalues --    1.85144   1.85448   1.86279   1.86521   1.86894
 Alpha virt. eigenvalues --    1.87450   1.88439   1.88721   1.89210   1.90230
 Alpha virt. eigenvalues --    1.90877   1.91402   1.91819   1.93505   1.94203
 Alpha virt. eigenvalues --    1.95265   1.95403   1.95491   1.96580   1.97451
 Alpha virt. eigenvalues --    1.97551   1.98015   1.98481   1.98758   1.98947
 Alpha virt. eigenvalues --    1.99228   1.99833   2.00066   2.00301   2.00834
 Alpha virt. eigenvalues --    2.00957   2.01594   2.02188   2.03084   2.03334
 Alpha virt. eigenvalues --    2.04729   2.05329   2.05763   2.06102   2.06519
 Alpha virt. eigenvalues --    2.07073   2.07651   2.08209   2.08670   2.09113
 Alpha virt. eigenvalues --    2.09608   2.10962   2.11438   2.11533   2.13215
 Alpha virt. eigenvalues --    2.13448   2.13999   2.14850   2.16523   2.16694
 Alpha virt. eigenvalues --    2.18181   2.18759   2.19505   2.19583   2.20748
 Alpha virt. eigenvalues --    2.21203   2.22467   2.23152   2.24707   2.25941
 Alpha virt. eigenvalues --    2.26244   2.26758   2.27634   2.27938   2.28564
 Alpha virt. eigenvalues --    2.29088   2.29343   2.29986   2.30123   2.30240
 Alpha virt. eigenvalues --    2.30925   2.31098   2.31915   2.32703   2.33208
 Alpha virt. eigenvalues --    2.34275   2.34539   2.34860   2.35408   2.36010
 Alpha virt. eigenvalues --    2.36426   2.37222   2.37665   2.38119   2.39272
 Alpha virt. eigenvalues --    2.39583   2.39995   2.40386   2.40836   2.41229
 Alpha virt. eigenvalues --    2.41697   2.42108   2.42656   2.43820   2.44124
 Alpha virt. eigenvalues --    2.44713   2.44953   2.45877   2.46267   2.46481
 Alpha virt. eigenvalues --    2.46563   2.46949   2.47657   2.47860   2.48193
 Alpha virt. eigenvalues --    2.49116   2.49238   2.49939   2.50451   2.51200
 Alpha virt. eigenvalues --    2.52429   2.53216   2.54347   2.54958   2.56504
 Alpha virt. eigenvalues --    2.58013   2.58745   2.59286   2.59894   2.60881
 Alpha virt. eigenvalues --    2.61088   2.62437   2.62616   2.63318   2.63918
 Alpha virt. eigenvalues --    2.64522   2.65123   2.66103   2.66868   2.67696
 Alpha virt. eigenvalues --    2.68459   2.69003   2.69528   2.70425   2.71661
 Alpha virt. eigenvalues --    2.72729   2.73485   2.73920   2.74556   2.75600
 Alpha virt. eigenvalues --    2.76140   2.76789   2.77379   2.77463   2.78017
 Alpha virt. eigenvalues --    2.79227   2.79464   2.79634   2.80011   2.82070
 Alpha virt. eigenvalues --    2.82475   2.82994   2.83602   2.84046   2.85708
 Alpha virt. eigenvalues --    2.85765   2.87297   2.87949   2.88535   2.88899
 Alpha virt. eigenvalues --    2.89698   2.90236   2.91032   2.91705   2.92614
 Alpha virt. eigenvalues --    2.93568   2.94334   2.94413   2.95113   2.95457
 Alpha virt. eigenvalues --    2.95924   2.96586   2.97600   2.98430   2.99208
 Alpha virt. eigenvalues --    2.99731   3.00315   3.00725   3.01224   3.01358
 Alpha virt. eigenvalues --    3.02469   3.02905   3.03706   3.04210   3.04326
 Alpha virt. eigenvalues --    3.04920   3.05157   3.05826   3.05898   3.06300
 Alpha virt. eigenvalues --    3.07275   3.07990   3.08749   3.09042   3.09394
 Alpha virt. eigenvalues --    3.10048   3.10681   3.11579   3.12810   3.13566
 Alpha virt. eigenvalues --    3.13976   3.14549   3.14959   3.16063   3.16480
 Alpha virt. eigenvalues --    3.17154   3.18383   3.19361   3.19602   3.20788
 Alpha virt. eigenvalues --    3.21114   3.21365   3.22117   3.22311   3.23075
 Alpha virt. eigenvalues --    3.23616   3.23667   3.24673   3.25273   3.25743
 Alpha virt. eigenvalues --    3.26637   3.26912   3.27242   3.27423   3.28426
 Alpha virt. eigenvalues --    3.28518   3.29691   3.30319   3.30829   3.31804
 Alpha virt. eigenvalues --    3.32019   3.32769   3.33214   3.34153   3.34233
 Alpha virt. eigenvalues --    3.34896   3.35147   3.36007   3.36551   3.36924
 Alpha virt. eigenvalues --    3.37514   3.37761   3.38312   3.38622   3.38879
 Alpha virt. eigenvalues --    3.39335   3.39751   3.40417   3.40540   3.40739
 Alpha virt. eigenvalues --    3.41416   3.41825   3.42565   3.42878   3.43065
 Alpha virt. eigenvalues --    3.43897   3.44336   3.44852   3.45086   3.45623
 Alpha virt. eigenvalues --    3.45741   3.46157   3.46464   3.46814   3.47343
 Alpha virt. eigenvalues --    3.47635   3.47688   3.48712   3.49330   3.49640
 Alpha virt. eigenvalues --    3.49767   3.50631   3.50913   3.51323   3.51770
 Alpha virt. eigenvalues --    3.51976   3.52320   3.53265   3.53626   3.54114
 Alpha virt. eigenvalues --    3.54449   3.54958   3.55451   3.55604   3.56733
 Alpha virt. eigenvalues --    3.57019   3.57674   3.58069   3.58394   3.59064
 Alpha virt. eigenvalues --    3.59223   3.59480   3.59790   3.60432   3.61610
 Alpha virt. eigenvalues --    3.61854   3.61944   3.62125   3.62383   3.62843
 Alpha virt. eigenvalues --    3.63284   3.63484   3.63859   3.64771   3.64787
 Alpha virt. eigenvalues --    3.65055   3.65424   3.65498   3.65894   3.67114
 Alpha virt. eigenvalues --    3.67261   3.67704   3.67960   3.68482   3.68599
 Alpha virt. eigenvalues --    3.68953   3.69246   3.69420   3.69948   3.70754
 Alpha virt. eigenvalues --    3.71101   3.71430   3.72307   3.72688   3.73008
 Alpha virt. eigenvalues --    3.73321   3.73929   3.74254   3.74431   3.74829
 Alpha virt. eigenvalues --    3.75185   3.75916   3.76574   3.76923   3.77515
 Alpha virt. eigenvalues --    3.78128   3.78611   3.79718   3.79937   3.80184
 Alpha virt. eigenvalues --    3.80374   3.80987   3.81359   3.82724   3.83033
 Alpha virt. eigenvalues --    3.83348   3.83719   3.84308   3.84481   3.85036
 Alpha virt. eigenvalues --    3.85542   3.86136   3.86672   3.86850   3.87545
 Alpha virt. eigenvalues --    3.87980   3.88719   3.88862   3.89728   3.90133
 Alpha virt. eigenvalues --    3.90675   3.91483   3.91937   3.92465   3.93483
 Alpha virt. eigenvalues --    3.93875   3.94748   3.95030   3.95462   3.96274
 Alpha virt. eigenvalues --    3.96726   3.97281   3.98494   3.98894   3.99360
 Alpha virt. eigenvalues --    4.00101   4.01092   4.01983   4.02192   4.03794
 Alpha virt. eigenvalues --    4.05627   4.06477   4.06989   4.07116   4.08234
 Alpha virt. eigenvalues --    4.08778   4.09623   4.10293   4.11105   4.12042
 Alpha virt. eigenvalues --    4.12582   4.12792   4.13521   4.14614   4.15997
 Alpha virt. eigenvalues --    4.16199   4.18944   4.19863   4.20261   4.20721
 Alpha virt. eigenvalues --    4.21697   4.22252   4.22716   4.23613   4.23824
 Alpha virt. eigenvalues --    4.24321   4.25725   4.27338   4.27722   4.28065
 Alpha virt. eigenvalues --    4.28519   4.29624   4.30204   4.30813   4.31623
 Alpha virt. eigenvalues --    4.32645   4.32671   4.34620   4.35188   4.36406
 Alpha virt. eigenvalues --    4.37305   4.42413   4.44413   4.44830   4.46264
 Alpha virt. eigenvalues --    4.47252   4.48442   4.50310   4.51636   4.53049
 Alpha virt. eigenvalues --    4.54896   4.56452   4.57487   4.61740   4.63751
 Alpha virt. eigenvalues --    4.68319   4.68969   4.71712   4.78219   4.80947
 Alpha virt. eigenvalues --    4.82133   4.82842   4.83835   4.87135   4.92447
 Alpha virt. eigenvalues --    4.94001   5.05201   5.06048   5.09472   5.10178
 Alpha virt. eigenvalues --    5.11899   5.17055   5.22820   5.25005   5.25185
 Alpha virt. eigenvalues --    5.28259   5.29787   5.31217   5.34900   5.42069
 Alpha virt. eigenvalues --    5.43073   5.48308   5.49515   5.55025   5.56394
 Alpha virt. eigenvalues --    5.59624   5.60476   5.60802   5.62760   5.71439
 Alpha virt. eigenvalues --    5.74003   5.84862   5.85886   5.93994   5.94780
 Alpha virt. eigenvalues --    5.96680   5.98305   6.02485   6.03337   6.04805
 Alpha virt. eigenvalues --    6.05180   6.87266   6.87435   6.90185   6.91695
 Alpha virt. eigenvalues --    6.98078   6.98901   6.99289   6.99356   7.03474
 Alpha virt. eigenvalues --    7.05051   7.05155   7.05749   7.07334   7.07433
 Alpha virt. eigenvalues --    7.08050   7.08179   7.09016   7.10303   7.10731
 Alpha virt. eigenvalues --    7.11414   7.11731   7.12892   7.14508   7.14880
 Alpha virt. eigenvalues --    7.16524   7.18148   7.20986   7.22144   7.26388
 Alpha virt. eigenvalues --    7.27987   7.31584   7.32140   7.34169   7.35226
 Alpha virt. eigenvalues --    7.37839   7.37932   7.38312   7.39543   7.40606
 Alpha virt. eigenvalues --    7.42964   7.44472   7.48181   7.49217   7.49728
 Alpha virt. eigenvalues --    7.55989   7.56314   7.58366   7.58881   7.59214
 Alpha virt. eigenvalues --    7.59597  23.77819  23.80368  23.82695  23.87427
 Alpha virt. eigenvalues --   24.00611  24.02770  24.06685  24.07275  24.07554
 Alpha virt. eigenvalues --   24.08226  24.09230  24.11710  24.11970  24.12478
 Alpha virt. eigenvalues --   24.13082  24.13371  24.14206  24.17472  24.17759
 Alpha virt. eigenvalues --   24.21193  24.21952  24.23221  24.24733  24.25479
 Alpha virt. eigenvalues --   24.29107  24.29868  24.30166  24.32142  24.33057
 Alpha virt. eigenvalues --   24.33975  24.35500  24.39265  24.41505  24.52345
 Alpha virt. eigenvalues --   50.10314  50.12099  50.12497  50.12785  50.16615
 Alpha virt. eigenvalues --   50.17742  50.20291  50.21012  50.22453  50.23049
          Condensed to atoms (all electrons):
 Mulliken charges:
               1
     1  C   -0.076971
     2  C   -0.088592
     3  C   -0.161830
     4  C    1.514631
     5  C   -0.525787
     6  C   -0.617740
     7  C   -1.117144
     8  C    0.225229
     9  C   -0.277219
    10  O   -0.290441
    11  C    0.615068
    12  C   -0.290768
    13  C    0.107875
    14  C    0.498392
    15  C   -0.327674
    16  C   -0.192506
    17  O   -0.385306
    18  O   -0.489605
    19  O   -0.488690
    20  O   -0.447537
    21  C   -0.214305
    22  C    0.018691
    23  C   -0.119425
    24  C    0.335731
    25  C   -0.949076
    26  C    0.710046
    27  O   -0.398539
    28  C   -0.430766
    29  C    0.861646
    30  C   -0.895365
    31  C   -0.606485
    32  C   -0.236138
    33  C    1.163221
    34  C   -0.407813
    35  C   -0.124698
    36  C    0.068896
    37  O   -0.440627
    38  C   -0.264986
    39  O   -0.323858
    40  C   -0.301027
    41  O   -0.343507
    42  C   -0.291703
    43  O   -0.433592
    44  C   -0.249725
    45  H    0.153377
    46  H    0.151137
    47  H    0.149957
    48  H    0.213310
    49  H    0.205112
    50  H    0.149145
    51  H    0.188788
    52  H    0.188403
    53  H    0.172392
    54  H    0.316728
    55  H    0.346772
    56  H    0.356725
    57  H    0.316664
    58  H    0.164118
    59  H    0.189442
    60  H    0.179294
    61  H    0.136026
    62  H    0.188065
    63  H    0.207020
    64  H    0.147227
    65  H    0.150347
    66  H    0.150639
    67  H    0.175768
    68  H    0.192445
    69  H    0.184263
    70  H    0.183131
    71  H    0.192143
    72  H    0.187764
    73  H    0.189665
    74  H    0.199787
    75  H    0.198427
    76  H    0.183904
    77  H    0.189235
    78  H    0.192798
 Sum of Mulliken charges =  -0.00000
 Mulliken charges with hydrogens summed into heavy atoms:
               1
     1  C   -0.076971
     2  C    0.064785
     3  C   -0.010693
     4  C    1.514631
     5  C   -0.525787
     6  C   -0.467782
     7  C   -0.698721
     8  C    0.374374
     9  C    0.099972
    10  O   -0.290441
    11  C    0.615068
    12  C   -0.118377
    13  C    0.107875
    14  C    0.498392
    15  C   -0.327674
    16  C   -0.192506
    17  O   -0.068578
    18  O   -0.142833
    19  O   -0.131965
    20  O   -0.130872
    21  C   -0.214305
    22  C    0.018691
    23  C   -0.119425
    24  C    0.335731
    25  C   -0.784958
    26  C    0.710046
    27  O   -0.398539
    28  C   -0.062030
    29  C    0.997672
    30  C   -0.500280
    31  C   -0.459259
    32  C   -0.236138
    33  C    1.163221
    34  C   -0.257465
    35  C    0.025941
    36  C    0.068896
    37  O   -0.440627
    38  C    0.287489
    39  O   -0.323858
    40  C    0.262012
    41  O   -0.343507
    42  C    0.296176
    43  O   -0.433592
    44  C    0.316211
 Electronic spatial extent (au):  <R**2>=          32353.7610
 Charge=              0.0000 electrons
 Dipole moment (field-independent basis, Debye):
    X=             -0.8582    Y=              0.0588    Z=              2.2078  Tot=              2.3695
 Quadrupole moment (field-independent basis, Debye-Ang):
   XX=           -276.8484   YY=           -214.5649   ZZ=           -241.2122
   XY=             11.7131   XZ=             43.2082   YZ=             -1.3203
 Traceless Quadrupole moment (field-independent basis, Debye-Ang):
   XX=            -32.6399   YY=             29.6436   ZZ=              2.9963
   XY=             11.7131   XZ=             43.2082   YZ=             -1.3203
 Octapole moment (field-independent basis, Debye-Ang**2):
  XXX=            233.7518  YYY=             -2.5298  ZZZ=             62.8329  XYY=            -94.2208
  XXY=            130.3171  XXZ=            144.4766  XZZ=            -49.2236  YZZ=            -26.3116
  YYZ=             16.2887  XYZ=            -10.9062
 Hexadecapole moment (field-independent basis, Debye-Ang**3):
 XXXX=         -29685.2526 YYYY=          -6647.6507 ZZZZ=          -2834.8862 XXXY=            676.5791
 XXXZ=           2043.9088 YYYX=            246.1820 YYYZ=             42.2796 ZZZX=            126.4596
 ZZZY=            -73.2082 XXYY=          -6485.9419 XXZZ=          -6013.8621 YYZZ=          -1768.6007
 XXYZ=            138.6353 YYXZ=            169.2328 ZZXY=            -24.6910
 N-N= 5.363722567239D+03 E-N=-1.556112973656D+04  KE= 2.059472988165D+03
 Unable to Open any file for archive entry.
 1\1\GINC-C08B01N05\SP\RmPW1PW91\6-311+G(2d,p)\C34H34O10\ROOT\25-Sep-20
 25\0\\# mPW1PW91/6-311+g(2d,p) NMR scrf(SMD,solvent=dmso) geom=connect
 ivity\\58RR\\0,1\C,0,-5.549097,-3.199347,-0.350064\C,0,-4.922689,-3.29
 4967,-1.59924\C,0,-4.587717,-2.124782,-2.278512\C,0,-4.857306,-0.85502
 1,-1.758916\C,0,-5.484605,-0.790099,-0.501599\C,0,-5.833439,-1.948718,
 0.19748\C,0,-4.498886,0.407564,-2.512696\C,0,-4.531301,1.650309,-1.608
 871\C,0,-5.784429,1.554163,-0.730255\O,0,-5.769677,0.394241,0.115622\C
 ,0,-3.280251,1.877328,-0.779554\C,0,-2.299088,0.906816,-0.564282\C,0,-
 1.129964,1.155251,0.171264\C,0,-0.947252,2.434526,0.722375\C,0,-1.9192
 13,3.420007,0.532173\C,0,-3.069777,3.145505,-0.216847\O,0,-5.903852,-4
 .29922,0.378371\O,0,-3.989668,4.135799,-0.398063\O,0,2.884864,-2.78081
 6,0.830962\O,0,9.902211,0.340324,-1.584771\C,0,1.938159,-1.814561,0.65
 4695\C,0,0.638315,-2.068152,1.113129\C,0,-0.380664,-1.120688,0.956103\
 C,0,-0.086726,0.111968,0.346875\C,0,1.227241,0.344409,-0.082204\C,0,2.
 256318,-0.591752,0.043939\O,0,5.368814,-0.782682,-2.117721\C,0,4.13780
 7,-1.232863,-1.52671\C,0,3.648377,-0.262339,-0.448229\C,0,4.699527,-0.
 214658,0.674871\C,0,7.621771,-0.22267,-1.802954\C,0,6.343691,-0.370207
 ,-1.254527\C,0,6.091071,-0.078161,0.098204\C,0,7.169431,0.358777,0.874
 031\C,0,8.452896,0.506825,0.3526\C,0,8.673672,0.215446,-0.999809\O,0,-
 1.835363,4.68297,1.081973\C,0,-0.792542,5.50932,0.528504\O,0,0.183759,
 2.754352,1.440432\C,0,0.112922,2.363724,2.817565\O,0,-1.636028,-1.3461
 71,1.458167\C,0,-2.353103,-2.439797,0.862826\O,0,0.443875,-3.299894,1.
 711699\C,0,0.180317,-3.232146,3.128244\H,0,-4.697842,-4.268954,-2.0271
 86\H,0,-4.09472,-2.197721,-3.245306\H,0,-6.318236,-1.86909,1.164818\H,
 0,-3.51862,0.299353,-2.989493\H,0,-5.21999,0.563589,-3.325514\H,0,-4.6
 73609,2.535254,-2.239573\H,0,-5.868623,2.40385,-0.0524\H,0,-6.678889,1
 .518176,-1.367063\H,0,-2.429386,-0.077937,-0.996863\H,0,-5.651897,-5.0
 95707,-0.121209\H,0,-3.645832,4.907037,0.095712\H,0,2.421109,-3.526687
 ,1.262803\H,0,10.535727,0.644488,-0.911346\H,0,1.454193,1.298235,-0.54
 7396\H,0,4.287218,-2.234681,-1.109823\H,0,3.429253,-1.296317,-2.355534
 \H,0,3.603772,0.728044,-0.916974\H,0,4.486244,0.624216,1.347415\H,0,4.
 624525,-1.128224,1.27597\H,0,7.788442,-0.452726,-2.850085\H,0,6.993537
 ,0.596845,1.920729\H,0,9.271539,0.850615,0.98014\H,0,-0.912063,6.49473
 7,0.984179\H,0,0.190814,5.101263,0.773881\H,0,-0.90127,5.591145,-0.559
 494\H,0,1.059959,2.662168,3.273222\H,0,-0.715369,2.872636,3.325137\H,0
 ,-0.012381,1.278865,2.914053\H,0,-3.332231,-2.448988,1.340832\H,0,-2.4
 72328,-2.279809,-0.213315\H,0,-1.84736,-3.394063,1.036245\H,0,0.123825
 ,-4.265486,3.47608\H,0,0.994405,-2.710476,3.644276\H,0,-0.766225,-2.72
 092,3.32205\\Version=ES64L-G16RevC.02\State=1-A\HF=-2068.4216261\RMSD=
 2.976e-09\Dipole=-0.3376381,0.0231262,0.8686308\Quadrupole=-24.2669594
 ,22.0392941,2.2276653,8.7084382,32.1242514,-0.9816247\PG=C01 [X(C34H34
 O10)]\\@
 The archive entry for this job was punched.


 SCIENCE IS LONG AND LIFE IS SHORT.

                     DON MOSER IN THE FEBRUARY 1979 SMITHSONIAN
 Job cpu time:       0 days  9 hours 57 minutes 28.4 seconds.
 Elapsed time:       0 days  0 hours 13 minutes  1.2 seconds.
 File lengths (MBytes):  RWF=   1607 Int=      0 D2E=      0 Chk=    151 Scr=      1
 Normal termination of Gaussian 16 at Thu Sep 25 18:09:49 2025.
