 Entering Gaussian System, Link 0=/home/tupf/tupf_yangsy/lustre1/g16/Gaussian16_AVX2/g16/g16
 Input=58RR_9.gjf
 Output=58RR_9.log
 Initial command:
 /home/tupf/tupf_yangsy/lustre1/g16/Gaussian16_AVX2/g16/l1.exe "/home/tupf/tupf_yangsy/lustre1/g16/tmp/Gau-1758570.inp" -scrdir="/home/tupf/tupf_yangsy/lustre1/g16/tmp/"
 Entering Link 1 = /home/tupf/tupf_yangsy/lustre1/g16/Gaussian16_AVX2/g16/l1.exe PID=   1758571.
  
 Copyright (c) 1988-2021, Gaussian, Inc.  All Rights Reserved.
  
 This is part of the Gaussian(R) 16 program.  It is based on
 the Gaussian(R) 09 system (copyright 2009, Gaussian, Inc.),
 the Gaussian(R) 03 system (copyright 2003, Gaussian, Inc.),
 the Gaussian(R) 98 system (copyright 1998, Gaussian, Inc.),
 the Gaussian(R) 94 system (copyright 1995, Gaussian, Inc.),
 the Gaussian 92(TM) system (copyright 1992, Gaussian, Inc.),
 the Gaussian 90(TM) system (copyright 1990, Gaussian, Inc.),
 the Gaussian 88(TM) system (copyright 1988, Gaussian, Inc.),
 the Gaussian 86(TM) system (copyright 1986, Carnegie Mellon
 University), and the Gaussian 82(TM) system (copyright 1983,
 Carnegie Mellon University). Gaussian is a federally registered
 trademark of Gaussian, Inc.
  
 This software contains proprietary and confidential information,
 including trade secrets, belonging to Gaussian, Inc.
  
 This software is provided under written license and may be
 used, copied, transmitted, or stored only in accord with that
 written license.
  
 The following legend is applicable only to US Government
 contracts under FAR:
  
                    RESTRICTED RIGHTS LEGEND
  
 Use, reproduction and disclosure by the US Government is
 subject to restrictions as set forth in subparagraphs (a)
 and (c) of the Commercial Computer Software - Restricted
 Rights clause in FAR 52.227-19.
  
 Gaussian, Inc.
 340 Quinnipiac St., Bldg. 40, Wallingford CT 06492
  
  
 ---------------------------------------------------------------
 Warning -- This program may not be used in any manner that
 competes with the business of Gaussian, Inc. or will provide
 assistance to any competitor of Gaussian, Inc.  The licensee
 of this program is prohibited from giving any competitor of
 Gaussian, Inc. access to this program.  By using this program,
 the user acknowledges that Gaussian, Inc. is engaged in the
 business of creating and licensing software in the field of
 computational chemistry and represents and warrants to the
 licensee that it is not a competitor of Gaussian, Inc. and that
 it will not use this program in any manner prohibited above.
 ---------------------------------------------------------------
  

 Cite this work as:
 Gaussian 16, Revision C.02,
 M. J. Frisch, G. W. Trucks, H. B. Schlegel, G. E. Scuseria, 
 M. A. Robb, J. R. Cheeseman, G. Scalmani, V. Barone, 
 G. A. Petersson, H. Nakatsuji, X. Li, M. Caricato, A. V. Marenich, 
 J. Bloino, B. G. Janesko, R. Gomperts, B. Mennucci, H. P. Hratchian, 
 J. V. Ortiz, A. F. Izmaylov, J. L. Sonnenberg, D. Williams-Young, 
 F. Ding, F. Lipparini, F. Egidi, J. Goings, B. Peng, A. Petrone, 
 T. Henderson, D. Ranasinghe, V. G. Zakrzewski, J. Gao, N. Rega, 
 G. Zheng, W. Liang, M. Hada, M. Ehara, K. Toyota, R. Fukuda, 
 J. Hasegawa, M. Ishida, T. Nakajima, Y. Honda, O. Kitao, H. Nakai, 
 T. Vreven, K. Throssell, J. A. Montgomery, Jr., J. E. Peralta, 
 F. Ogliaro, M. J. Bearpark, J. J. Heyd, E. N. Brothers, K. N. Kudin, 
 V. N. Staroverov, T. A. Keith, R. Kobayashi, J. Normand, 
 K. Raghavachari, A. P. Rendell, J. C. Burant, S. S. Iyengar, 
 J. Tomasi, M. Cossi, J. M. Millam, M. Klene, C. Adamo, R. Cammi, 
 J. W. Ochterski, R. L. Martin, K. Morokuma, O. Farkas, 
 J. B. Foresman, and D. J. Fox, Gaussian, Inc., Wallingford CT, 2019.
 
 ******************************************
 Gaussian 16:  ES64L-G16RevC.02  7-Dec-2021
                25-Sep-2025 
 ******************************************
 %mem=400GB
 %nprocshared=64
 Will use up to   64 processors via shared memory.
 ---------------------------------------------------------------------
 # mPW1PW91/6-311+g(2d,p) NMR scrf(SMD,solvent=dmso) geom=connectivity
 ---------------------------------------------------------------------
 1/38=1,57=2,172=1/1;
 2/12=2,17=6,18=5,40=1/2;
 3/5=4,6=6,7=112,11=2,25=1,30=1,70=32201,72=21,74=-7/1,2,3,8;
 4//1;
 5/5=2,38=5,53=21/2;
 8/6=1,10=90,11=11/1;
 10/13=100,45=16/2;
 6/7=2,8=2,9=2,10=2,28=1/1;
 99/9=1/99;
 ----
 58RR
 ----
 Symbolic Z-matrix:
 Charge =  0 Multiplicity = 1
 C                     2.52852  -2.63847   0.38856 
 C                     2.64114  -2.1446   -0.91864 
 C                     1.58414  -2.34086  -1.80823 
 C                     0.42083  -3.03026  -1.45203 
 C                     0.34394  -3.53036  -0.13852 
 C                     1.38226  -3.33279   0.77525 
 C                    -0.75445  -3.18381  -2.39652 
 C                    -2.05064  -3.4379   -1.60958 
 C                    -1.74233  -4.57551  -0.62623 
 O                    -0.74724  -4.19635   0.33789 
 C                    -2.58837  -2.22067  -0.87289 
 C                    -1.91603  -0.99857  -0.83171 
 C                    -2.34703   0.10277  -0.07586 
 C                    -3.51751  -0.03584   0.688 
 C                    -4.25364  -1.22316   0.60379 
 C                    -3.79811  -2.30161  -0.16744 
 O                     3.50911  -2.48733   1.32458 
 O                    -4.55149  -3.43733  -0.21383 
 O                     1.00953   4.65049  -0.22464 
 O                     8.11227  -0.52179   0.23637 
 C                     0.20965   3.55097  -0.15004 
 C                    -1.17353   3.71064  -0.32312 
 C                    -2.04044   2.6124   -0.28649 
 C                    -1.50963   1.3267   -0.05749 
 C                    -0.12174   1.1991    0.09714 
 C                     0.76111   2.28139   0.06181 
 O                     4.12921   1.38514  -1.36617 
 C                     2.70417   1.52676  -1.25698 
 C                     2.26127   2.08446   0.10084 
 C                     2.74781   1.13579   1.20626 
 C                     6.09168   0.42452  -0.52559 
 C                     4.77592   0.84054  -0.2964 
 C                     4.18174   0.71926   0.97292 
 C                     4.96237   0.17299   1.9987 
 C                     6.2719   -0.25813   1.79219 
 C                     6.83668  -0.12581   0.51614 
 O                    -5.42073  -1.44483   1.30931 
 C                    -6.51355  -0.57389   0.95664 
 O                    -3.93314   0.97803   1.51656 
 C                    -3.82313   0.67507   2.91474 
 O                    -3.37122   2.7444   -0.56829 
 C                    -4.11897   3.65853   0.24739 
 O                    -1.60504   5.00225  -0.57175 
 C                    -1.99203   5.22368  -1.94324 
 H                     3.53662  -1.61375  -1.22796 
 H                     1.66025  -1.93444  -2.81431 
 H                     1.28895  -3.71427   1.78665 
 H                    -0.84284  -2.30003  -3.0372 
 H                    -0.59693  -4.03697  -3.06873 
 H                    -2.82081  -3.81466  -2.29335 
 H                    -2.61535  -4.85751  -0.03944 
 H                    -1.38655  -5.45408  -1.18084 
 H                    -0.99831  -0.88348  -1.39341 
 H                     4.15779  -1.82915   1.01623 
 H                    -5.3202   -3.26681   0.36667 
 H                     0.40417   5.40785  -0.35336 
 H                     8.50824  -0.88885   1.04642 
 H                     0.27788   0.20302   0.25779 
 H                     2.23561   0.55014  -1.42757 
 H                     2.42095   2.19859  -2.07014 
 H                     2.74537   3.05659   0.23342 
 H                     2.11555   0.23994   1.234 
 H                     2.64701   1.61667   2.18587 
 H                     6.5239    0.52763  -1.51527 
 H                     4.52244   0.07251   2.98784 
 H                     6.85108  -0.68332   2.60789 
 H                    -7.38002  -0.93436   1.51484 
 H                    -6.29174   0.4589    1.2365 
 H                    -6.71623  -0.63039  -0.11903 
 H                    -4.14263   1.57404   3.44655 
 H                    -4.4659   -0.16528   3.19539 
 H                    -2.78312   0.44564   3.17703 
 H                    -5.16356   3.35148   0.16402 
 H                    -3.80619   3.58906   1.2924 
 H                    -4.01079   4.68932  -0.10211 
 H                    -2.25875   6.27974  -2.01934 
 H                    -1.15762   5.00248  -2.61878 
 H                    -2.85212   4.60243  -2.20905 
 
 Stoichiometry    C34H34O10
 Framework group  C1[X(C34H34O10)]
 Deg. of freedom   228
 Full point group                 C1      NOp   1
 Largest Abelian subgroup         C1      NOp   1
 Largest concise Abelian subgroup C1      NOp   1
                         Standard orientation:                         
 ---------------------------------------------------------------------
 Center     Atomic      Atomic             Coordinates (Angstroms)
 Number     Number       Type             X           Y           Z
 ---------------------------------------------------------------------
      1          6           0        2.528523   -2.638471    0.388555
      2          6           0        2.641141   -2.144595   -0.918637
      3          6           0        1.584139   -2.340858   -1.808233
      4          6           0        0.420827   -3.030260   -1.452031
      5          6           0        0.343936   -3.530363   -0.138520
      6          6           0        1.382256   -3.332787    0.775253
      7          6           0       -0.754452   -3.183813   -2.396524
      8          6           0       -2.050644   -3.437895   -1.609576
      9          6           0       -1.742328   -4.575510   -0.626232
     10          8           0       -0.747242   -4.196353    0.337892
     11          6           0       -2.588367   -2.220675   -0.872888
     12          6           0       -1.916026   -0.998566   -0.831712
     13          6           0       -2.347025    0.102773   -0.075858
     14          6           0       -3.517513   -0.035837    0.687997
     15          6           0       -4.253642   -1.223157    0.603790
     16          6           0       -3.798107   -2.301609   -0.167440
     17          8           0        3.509109   -2.487330    1.324581
     18          8           0       -4.551490   -3.437333   -0.213828
     19          8           0        1.009525    4.650485   -0.224636
     20          8           0        8.112272   -0.521791    0.236372
     21          6           0        0.209652    3.550965   -0.150035
     22          6           0       -1.173535    3.710644   -0.323120
     23          6           0       -2.040442    2.612403   -0.286489
     24          6           0       -1.509628    1.326702   -0.057492
     25          6           0       -0.121744    1.199098    0.097137
     26          6           0        0.761106    2.281390    0.061806
     27          8           0        4.129209    1.385141   -1.366171
     28          6           0        2.704165    1.526759   -1.256984
     29          6           0        2.261265    2.084457    0.100839
     30          6           0        2.747813    1.135794    1.206263
     31          6           0        6.091681    0.424516   -0.525593
     32          6           0        4.775924    0.840539   -0.296398
     33          6           0        4.181736    0.719261    0.972924
     34          6           0        4.962366    0.172985    1.998700
     35          6           0        6.271904   -0.258130    1.792193
     36          6           0        6.836680   -0.125809    0.516135
     37          8           0       -5.420733   -1.444831    1.309307
     38          6           0       -6.513545   -0.573889    0.956636
     39          8           0       -3.933141    0.978026    1.516561
     40          6           0       -3.823134    0.675069    2.914737
     41          8           0       -3.371221    2.744396   -0.568290
     42          6           0       -4.118975    3.658527    0.247385
     43          8           0       -1.605041    5.002246   -0.571754
     44          6           0       -1.992026    5.223684   -1.943237
     45          1           0        3.536616   -1.613754   -1.227955
     46          1           0        1.660250   -1.934443   -2.814306
     47          1           0        1.288950   -3.714271    1.786650
     48          1           0       -0.842838   -2.300029   -3.037201
     49          1           0       -0.596932   -4.036972   -3.068734
     50          1           0       -2.820812   -3.814660   -2.293352
     51          1           0       -2.615352   -4.857511   -0.039435
     52          1           0       -1.386552   -5.454082   -1.180841
     53          1           0       -0.998312   -0.883479   -1.393411
     54          1           0        4.157791   -1.829149    1.016227
     55          1           0       -5.320200   -3.266810    0.366674
     56          1           0        0.404170    5.407851   -0.353361
     57          1           0        8.508241   -0.888854    1.046417
     58          1           0        0.277881    0.203019    0.257790
     59          1           0        2.235612    0.550144   -1.427568
     60          1           0        2.420946    2.198591   -2.070137
     61          1           0        2.745368    3.056593    0.233424
     62          1           0        2.115548    0.239944    1.234000
     63          1           0        2.647009    1.616670    2.185869
     64          1           0        6.523902    0.527631   -1.515270
     65          1           0        4.522438    0.072509    2.987841
     66          1           0        6.851084   -0.683322    2.607893
     67          1           0       -7.380025   -0.934357    1.514836
     68          1           0       -6.291737    0.458897    1.236495
     69          1           0       -6.716226   -0.630387   -0.119031
     70          1           0       -4.142632    1.574035    3.446549
     71          1           0       -4.465898   -0.165282    3.195391
     72          1           0       -2.783122    0.445644    3.177028
     73          1           0       -5.163557    3.351481    0.164021
     74          1           0       -3.806188    3.589061    1.292401
     75          1           0       -4.010789    4.689321   -0.102110
     76          1           0       -2.258746    6.279743   -2.019339
     77          1           0       -1.157623    5.002477   -2.618776
     78          1           0       -2.852121    4.602428   -2.209050
 ---------------------------------------------------------------------
 Rotational constants (GHZ):           0.1012715           0.0578779           0.0415841
 Standard basis: 6-311+G(2d,p) (5D, 7F)
 There are  1480 symmetry adapted cartesian basis functions of A   symmetry.
 There are  1392 symmetry adapted basis functions of A   symmetry.
  1392 basis functions,  2120 primitive gaussians,  1480 cartesian basis functions
   159 alpha electrons      159 beta electrons
       nuclear repulsion energy      5617.5130660076 Hartrees.
 NAtoms=   78 NActive=   78 NUniq=   78 SFac= 1.00D+00 NAtFMM=   60 NAOKFM=T Big=T
 Integral buffers will be    131072 words long.
 Raffenetti 2 integral format.
 Two-electron integral symmetry is turned on.
 ------------------------------------------------------------------------------
 Polarizable Continuum Model (PCM)
 =================================
 Model                : PCM.
 Atomic radii         : SMD-Coulomb.
 Polarization charges : Total charges.
 Charge compensation  : None.
 Solution method      : On-the-fly selection.
 Cavity type          : VdW (van der Waals Surface) (Alpha=1.000).
 Cavity algorithm     : GePol (No added spheres)
                        Default sphere list used, NSphG=   78.
                        Lebedev-Laikov grids with approx.  5.0 points / Ang**2.
                        Smoothing algorithm: York/Karplus (Gamma=1.0000).
                        Polarization charges: spherical gaussians, with
                                              point-specific exponents (IZeta= 3).
                        Self-potential: point-specific (ISelfS= 7).
                        Self-field    : sphere-specific E.n sum rule (ISelfD= 2).
 Solvent              : DiMethylSulfoxide, Eps=  46.826000 Eps(inf)=   2.185371
 ------------------------------------------------------------------------------
 ------------------------------------------------------------------------------
 Atomic radii for non-electrostatic terms: SMD-CDS.
 ------------------------------------------------------------------------------
 Nuclear repulsion after PCM non-electrostatic terms =     5617.5083854321 Hartrees.
 One-electron integrals computed using PRISM.
 NBasis=  1392 RedAO= T EigKep=  1.10D-06  NBF=  1392
 NBsUse=  1378 1.00D-06 EigRej=  8.71D-07 NBFU=  1378
 ExpMin= 4.38D-02 ExpMax= 8.59D+03 ExpMxC= 1.30D+03 IAcc=3 IRadAn=         5 AccDes= 0.00D+00
 Harris functional with IExCor=  908 and IRadAn=       5 diagonalized for initial guess.
 HarFok:  IExCor=  908 AccDes= 0.00D+00 IRadAn=         5 IDoV= 1 UseB2=F ITyADJ=14
 ICtDFT=  3500011 ScaDFX=  1.000000  1.000000  1.000000  1.000000
 FoFCou: FMM=F IPFlag=           0 FMFlag=      100000 FMFlg1=        2001
         NFxFlg=           0 DoJE=T BraDBF=F KetDBF=T FulRan=T
         wScrn=  0.000000 ICntrl=       500 IOpCl=  0 I1Cent=   200000004 NGrid=           0
         NMat0=    1 NMatS0=      1 NMatT0=    0 NMatD0=    1 NMtDS0=    0 NMtDT0=    0
 Petite list used in FoFCou.
 Requested convergence on RMS density matrix=1.00D-08 within 128 cycles.
 Requested convergence on MAX density matrix=1.00D-06.
 Requested convergence on             energy=1.00D-06.
 No special actions if energy rises.
 Inv3:  Mode=1 IEnd=    85835403.
 Iteration    1 A*A^-1 deviation from unit magnitude is 3.66D-15 for    178.
 Iteration    1 A*A^-1 deviation from orthogonality  is 3.21D-15 for   2153    460.
 Iteration    1 A^-1*A deviation from unit magnitude is 3.55D-15 for   4818.
 Iteration    1 A^-1*A deviation from orthogonality  is 4.00D-15 for   1551   1529.
 Error on total polarization charges =  0.04793
 SCF Done:  E(RmPW1PW91) =  -2068.41993836     A.U. after   14 cycles
            NFock= 14  Conv=0.35D-08     -V/T= 2.0043
 SMD-CDS (non-electrostatic) energy       (kcal/mol) =      -2.94
 (included in total energy above)
 DoSCS=F DFT=T ScalE2(SS,OS)=  1.000000  1.000000
 Range of M.O.s used for correlation:     1  1378
 NBasis=  1392 NAE=   159 NBE=   159 NFC=     0 NFV=     0
 NROrb=   1378 NOA=   159 NOB=   159 NVA=  1219 NVB=  1219

 **** Warning!!: The largest alpha MO coefficient is  0.10974431D+03

 NEqPCM:  Using equilibrium solvation (IEInf=0, Eps=  46.8260, EpsInf=   2.1854)
          Differentiating once with respect to magnetic field using GIAOs.
          Electric field/nuclear overlap derivatives assumed to be zero.
 FoFJK:  IHMeth= 1 ICntrl=    6127 DoSepK=F KAlg= 0 I1Cent=           0 FoldK=F
 IRaf=         1 NMat=       1 IRICut=       1 DoRegI=T DoRafI=F ISym2E= 0 IDoP0=0 IntGTp=1.
          There are     3 degrees of freedom in the 1st order CPHF.  IDoFFX=0 NUNeed=     3.
      3 vectors produced by pass  0 Test12= 6.46D-12 3.33D-08 XBig12= 3.38D+03 6.64D+00.
 AX will form     3 AO Fock derivatives at one time.
      3 vectors produced by pass  1 Test12= 6.46D-12 3.33D-08 XBig12= 8.61D+00 6.70D-01.
      3 vectors produced by pass  2 Test12= 6.46D-12 3.33D-08 XBig12= 4.29D-02 5.81D-02.
      3 vectors produced by pass  3 Test12= 6.46D-12 3.33D-08 XBig12= 2.06D-04 2.37D-03.
      3 vectors produced by pass  4 Test12= 6.46D-12 3.33D-08 XBig12= 7.33D-07 1.07D-04.
      3 vectors produced by pass  5 Test12= 6.46D-12 3.33D-08 XBig12= 2.93D-09 6.26D-06.
      3 vectors produced by pass  6 Test12= 6.46D-12 3.33D-08 XBig12= 1.37D-11 3.80D-07.
 InvSVY:  IOpt=1 It=  1 EMax= 3.55D-14
 Solved reduced A of dimension    21 with     3 vectors.
 Calculating GIAO nuclear magnetic shielding tensors.
 SCF GIAO Magnetic shielding tensor (ppm):
      1  C    Isotropic =    24.1506   Anisotropy =   143.2223
   XX=    -7.3904   YX=   -45.7883   ZX=   -49.7991
   XY=   -45.4828   YY=    91.8526   ZY=    17.4539
   XZ=   -51.0077   YZ=    17.6296   ZZ=   -12.0103
   Eigenvalues:   -62.7855    15.6052   119.6322
      2  C    Isotropic =    75.0138   Anisotropy =   133.0064
   XX=    33.5392   YX=   -63.6289   ZX=     9.4860
   XY=   -62.0046   YY=   122.3397   ZY=    36.2716
   XZ=     1.1404   YZ=    33.3480   ZZ=    69.1623
   Eigenvalues:    -5.1834    66.5400   163.6847
      3  C    Isotropic =    50.1561   Anisotropy =   171.6052
   XX=    61.7164   YX=   -46.7728   ZX=   -11.0022
   XY=   -48.2329   YY=   116.6142   ZY=    67.2344
   XZ=   -15.6059   YZ=    61.3155   ZZ=   -27.8622
   Eigenvalues:   -52.5128    38.4216   164.5596
      4  C    Isotropic =    67.0313   Anisotropy =   164.4499
   XX=    29.9944   YX=   -52.5539   ZX=   -43.9717
   XY=   -42.0984   YY=   146.8302   ZY=    24.8199
   XZ=   -33.6300   YZ=    41.1332   ZZ=    24.2692
   Eigenvalues:   -12.3258    36.7551   176.6645
      5  C    Isotropic =    23.9939   Anisotropy =   141.4250
   XX=   -19.6137   YX=   -67.9209   ZX=    -0.0464
   XY=   -65.5764   YY=    74.3836   ZY=    34.6125
   XZ=     9.0953   YZ=    38.1462   ZZ=    17.2120
   Eigenvalues:   -60.2377    13.9423   118.2773
      6  C    Isotropic =    81.6237   Anisotropy =   113.2188
   XX=    86.5868   YX=   -33.5557   ZX=    -6.6204
   XY=   -28.4841   YY=   131.1038   ZY=    36.0633
   XZ=    -3.8183   YZ=    39.3501   ZZ=    27.1805
   Eigenvalues:    14.6107    73.1575   157.1029
      7  C    Isotropic =   156.5201   Anisotropy =     8.6271
   XX=   161.9742   YX=    -0.4303   ZX=    -5.2908
   XY=     2.7303   YY=   157.8025   ZY=    -2.3162
   XZ=     4.4804   YZ=     4.4348   ZZ=   149.7837
   Eigenvalues:   149.6214   157.6675   162.2715
      8  C    Isotropic =   151.6006   Anisotropy =    21.6365
   XX=   140.5289   YX=    -7.6706   ZX=    -4.3281
   XY=    -0.9436   YY=   161.0565   ZY=    11.2044
   XZ=     5.5356   YZ=     3.7317   ZZ=   153.2165
   Eigenvalues:   139.2949   149.4820   166.0250
      9  C    Isotropic =   116.6335   Anisotropy =    51.6152
   XX=   121.5022   YX=     7.3307   ZX=    27.0422
   XY=     5.6376   YY=   108.3454   ZY=    10.6045
   XZ=    27.8569   YZ=     7.4380   ZZ=   120.0530
   Eigenvalues:    93.0326   105.8243   151.0436
     10  O    Isotropic =   216.2986   Anisotropy =   114.2602
   XX=   211.7617   YX=   -19.0456   ZX=   -63.2861
   XY=   -38.4694   YY=   256.7313   ZY=    41.3954
   XZ=   -74.8095   YZ=   -17.0830   ZZ=   180.4029
   Eigenvalues:   124.7095   231.7143   292.4721
     11  C    Isotropic =    59.1946   Anisotropy =   154.2539
   XX=    54.6770   YX=   -21.9686   ZX=    57.0381
   XY=    -5.3977   YY=    20.4642   ZY=   -53.9286
   XZ=    61.9475   YZ=   -52.9193   ZZ=   102.4428
   Eigenvalues:   -10.7908    26.3441   162.0306
     12  C    Isotropic =    55.0456   Anisotropy =   160.8611
   XX=    19.1272   YX=   -32.5988   ZX=    86.2478
   XY=   -24.0226   YY=    63.7464   ZY=   -26.2444
   XZ=    82.3694   YZ=   -46.6717   ZZ=    82.2632
   Eigenvalues:   -39.3976    42.2481   162.2864
     13  C    Isotropic =    58.3268   Anisotropy =   144.1929
   XX=    57.1523   YX=   -45.8195   ZX=    46.4209
   XY=   -53.4951   YY=    19.9070   ZY=   -27.3457
   XZ=    42.7146   YZ=   -52.7779   ZZ=    97.9212
   Eigenvalues:   -15.2156    35.7407   154.4554
     14  C    Isotropic =    31.5596   Anisotropy =   117.4222
   XX=    38.6606   YX=    -6.7395   ZX=    52.1492
   XY=   -20.2345   YY=    10.8225   ZY=   -44.1330
   XZ=    41.7639   YZ=   -52.0518   ZZ=    45.1958
   Eigenvalues:   -28.4833    13.3211   109.8411
     15  C    Isotropic =    41.9125   Anisotropy =   103.6886
   XX=    29.3901   YX=   -17.4827   ZX=    42.4938
   XY=   -17.2707   YY=    31.6931   ZY=   -27.2969
   XZ=    55.3074   YZ=   -23.8136   ZZ=    64.6543
   Eigenvalues:    -4.9681    19.6674   111.0383
     16  C    Isotropic =    32.9439   Anisotropy =   125.3750
   XX=    25.8133   YX=   -40.4581   ZX=    37.6380
   XY=   -39.9081   YY=   -10.1712   ZY=   -33.3105
   XZ=    38.9979   YZ=   -19.1792   ZZ=    83.1897
   Eigenvalues:   -36.2211    18.5257   116.5273
     17  O    Isotropic =   203.8071   Anisotropy =    57.6504
   XX=   206.1341   YX=   -16.6600   ZX=    33.0830
   XY=    -1.0676   YY=   213.0242   ZY=    24.0491
   XZ=    33.6416   YZ=    37.8439   ZZ=   192.2629
   Eigenvalues:   150.6306   218.5500   242.2407
     18  O    Isotropic =   228.0778   Anisotropy =   119.1268
   XX=   226.9131   YX=    15.5804   ZX=    64.8856
   XY=   -33.0930   YY=   207.6743   ZY=   -20.3538
   XZ=    54.8704   YZ=   -39.3124   ZZ=   249.6460
   Eigenvalues:   172.1491   204.5885   307.4957
     19  O    Isotropic =   231.3486   Anisotropy =   109.5695
   XX=   188.5435   YX=     1.5688   ZX=    -8.3679
   XY=    39.8227   YY=   205.7342   ZY=    18.0382
   XZ=   -14.0610   YZ=    22.6444   ZZ=   299.7683
   Eigenvalues:   171.3556   218.2954   304.3950
     20  O    Isotropic =   211.2236   Anisotropy =    64.2460
   XX=   250.7948   YX=    -6.0425   ZX=   -10.6201
   XY=    -7.8192   YY=   221.9197   ZY=    20.3111
   XZ=    -4.7953   YZ=    19.0885   ZZ=   160.9562
   Eigenvalues:   154.8335   224.7830   254.0542
     21  C    Isotropic =    32.4074   Anisotropy =   128.5470
   XX=    -0.7005   YX=   -24.9025   ZX=    -9.3292
   XY=   -30.8201   YY=   -14.7374   ZY=    13.1801
   XZ=     6.3295   YZ=    38.4767   ZZ=   112.6600
   Eigenvalues:   -39.0270    18.1438   118.1053
     22  C    Isotropic =    42.3984   Anisotropy =   100.8701
   XX=    17.4792   YX=    10.1227   ZX=   -15.1865
   XY=     2.8482   YY=     7.7865   ZY=    18.4734
   XZ=   -21.9137   YZ=    24.3263   ZZ=   101.9295
   Eigenvalues:    -2.8000    20.3501   109.6451
     23  C    Isotropic =    30.9701   Anisotropy =   120.8642
   XX=   -19.6700   YX=    -0.5114   ZX=   -19.6497
   XY=    12.0089   YY=     9.3680   ZY=    17.2930
   XZ=   -40.4991   YZ=     9.5801   ZZ=   103.2123
   Eigenvalues:   -28.6488    10.0128   111.5463
     24  C    Isotropic =    58.2713   Anisotropy =   143.4940
   XX=    19.7025   YX=   -36.7774   ZX=   -12.9663
   XY=   -15.7908   YY=     5.6742   ZY=    11.8568
   XZ=   -20.6720   YZ=    18.5391   ZZ=   149.4373
   Eigenvalues:   -14.5367    35.4167   153.9340
     25  C    Isotropic =    55.9332   Anisotropy =   161.1123
   XX=    29.2130   YX=    28.8833   ZX=   -19.9052
   XY=    32.8249   YY=   -18.9922   ZY=    31.4349
   XZ=   -23.3251   YZ=    18.4795   ZZ=   157.5789
   Eigenvalues:   -39.2375    43.6957   163.3414
     26  C    Isotropic =    60.9013   Anisotropy =   152.0145
   XX=    -4.0229   YX=    10.8917   ZX=   -12.9074
   XY=    -5.9669   YY=    27.2209   ZY=    13.8718
   XZ=   -19.2153   YZ=    11.9186   ZZ=   159.5059
   Eigenvalues:    -6.0095    26.4691   162.2443
     27  O    Isotropic =   201.1771   Anisotropy =   111.4649
   XX=   139.3540   YX=    30.9109   ZX=    -2.6180
   XY=    35.9003   YY=   267.2886   ZY=   -24.7787
   XZ=    37.0474   YZ=    16.9145   ZZ=   196.8889
   Eigenvalues:   126.7143   201.3300   275.4871
     28  C    Isotropic =   113.9887   Anisotropy =    66.3079
   XX=   155.6569   YX=    -1.9302   ZX=    -6.0986
   XY=    -9.6977   YY=    95.5540   ZY=     4.2679
   XZ=   -15.3324   YZ=    12.7693   ZZ=    90.7552
   Eigenvalues:    83.9145    99.8577   158.1940
     29  C    Isotropic =   154.2613   Anisotropy =    14.3731
   XX=   162.0740   YX=    -0.1663   ZX=    -0.5534
   XY=    11.7762   YY=   144.5759   ZY=     2.7480
   XZ=    -0.3243   YZ=     2.7407   ZZ=   156.1342
   Eigenvalues:   142.2776   156.6630   163.8434
     30  C    Isotropic =   155.8800   Anisotropy =    19.6055
   XX=   163.8207   YX=    -8.4956   ZX=     7.8345
   XY=    -1.9247   YY=   154.1106   ZY=    -0.7765
   XZ=     6.2413   YZ=    -4.0596   ZZ=   149.7085
   Eigenvalues:   146.7882   151.9014   168.9503
     31  C    Isotropic =    80.6394   Anisotropy =   115.5479
   XX=    70.9500   YX=    25.4050   ZX=    27.2259
   XY=    28.0077   YY=   141.4697   ZY=    21.5646
   XZ=    27.3262   YZ=    23.4108   ZZ=    29.4986
   Eigenvalues:    15.3417    68.9052   157.6714
     32  C    Isotropic =    23.2687   Anisotropy =   143.9953
   XX=     0.9774   YX=    47.9548   ZX=   -18.0501
   XY=    46.1285   YY=    91.2971   ZY=    43.7722
   XZ=   -26.2321   YZ=    45.2289   ZZ=   -22.4685
   Eigenvalues:   -61.8811    12.4217   119.2655
     33  C    Isotropic =    66.3859   Anisotropy =   164.1208
   XX=    15.2633   YX=    48.2964   ZX=    28.7524
   XY=    63.5145   YY=   143.5682   ZY=    38.1063
   XZ=    16.1110   YZ=    28.4665   ZZ=    40.3263
   Eigenvalues:    -7.8889    31.2468   175.7998
     34  C    Isotropic =    50.2367   Anisotropy =   173.0515
   XX=    34.3357   YX=    37.6752   ZX=    39.4488
   XY=    33.0126   YY=   144.6488   ZY=    33.9499
   XZ=    46.8819   YZ=    33.4802   ZZ=   -28.2743
   Eigenvalues:   -51.4028    36.5086   165.6044
     35  C    Isotropic =    77.0199   Anisotropy =   126.2932
   XX=    60.4218   YX=    45.7555   ZX=   -27.0292
   XY=    43.0675   YY=   134.5697   ZY=    38.4735
   XZ=   -20.0399   YZ=    40.4654   ZZ=    36.0681
   Eigenvalues:    -2.4904    72.3347   161.2153
     36  C    Isotropic =    23.4485   Anisotropy =   140.9859
   XX=   -41.3943   YX=    54.7664   ZX=    19.6295
   XY=    52.9821   YY=    92.2371   ZY=    19.2529
   XZ=    22.2842   YZ=    17.8881   ZZ=    19.5028
   Eigenvalues:   -62.7492    15.6556   117.4391
     37  O    Isotropic =   277.1964   Anisotropy =    95.1503
   XX=   277.4738   YX=    -4.2050   ZX=    14.1818
   XY=    28.2127   YY=   237.1434   ZY=   -40.8473
   XZ=    14.0433   YZ=   -55.6251   ZZ=   316.9719
   Eigenvalues:   210.1904   280.7688   340.6299
     38  C    Isotropic =   126.4345   Anisotropy =    92.4877
   XX=   155.8438   YX=   -39.1039   ZX=    15.9603
   XY=   -44.4472   YY=   120.4249   ZY=   -13.9293
   XZ=    12.2041   YZ=   -14.9891   ZZ=   103.0347
   Eigenvalues:    90.5522   100.6584   188.0930
     39  O    Isotropic =   260.3301   Anisotropy =    95.8579
   XX=   242.7412   YX=   -51.5853   ZX=    56.3645
   XY=   -35.1699   YY=   287.3290   ZY=     5.7409
   XZ=    29.6735   YZ=   -12.8315   ZZ=   250.9202
   Eigenvalues:   193.0882   263.6668   324.2354
     40  C    Isotropic =   127.7792   Anisotropy =    89.6091
   XX=    98.1145   YX=    -3.6622   ZX=     5.0849
   XY=    -4.0290   YY=    99.6478   ZY=   -13.3793
   XZ=     6.3421   YZ=    -9.6593   ZZ=   185.5753
   Eigenvalues:    94.8424   100.9766   187.5186
     41  O    Isotropic =   251.2366   Anisotropy =   114.6752
   XX=   255.8936   YX=    18.0798   ZX=    17.2109
   XY=    33.7666   YY=   180.2821   ZY=   -13.1989
   XZ=    32.6156   YZ=    24.0564   ZZ=   317.5342
   Eigenvalues:   172.2133   253.8098   327.6867
     42  C    Isotropic =   125.8089   Anisotropy =    86.4560
   XX=   126.0680   YX=   -28.3892   ZX=   -29.1390
   XY=   -33.5370   YY=   124.9605   ZY=    30.5657
   XZ=   -22.5448   YZ=    28.6547   ZZ=   126.3983
   Eigenvalues:    93.4821   100.4983   183.4462
     43  O    Isotropic =   281.6818   Anisotropy =    88.5679
   XX=   228.1266   YX=   -11.8269   ZX=   -29.8884
   XY=   -19.3535   YY=   297.7982   ZY=    14.7377
   XZ=    -8.8083   YZ=    34.5069   ZZ=   319.1206
   Eigenvalues:   222.6009   281.7174   340.7271
     44  C    Isotropic =   126.8304   Anisotropy =    91.0484
   XX=    99.8713   YX=   -13.7257   ZX=    22.3208
   XY=    -8.4936   YY=   104.1332   ZY=   -17.0182
   XZ=    20.4113   YZ=   -21.3100   ZZ=   176.4867
   Eigenvalues:    90.3347   102.6272   187.5293
     45  H    Isotropic =    25.4918   Anisotropy =     6.2734
   XX=    25.5563   YX=     1.4890   ZX=     2.3862
   XY=     3.0732   YY=    25.2702   ZY=     3.1170
   XZ=     1.7103   YZ=     0.7588   ZZ=    25.6489
   Eigenvalues:    23.1275    23.6738    29.6741
     46  H    Isotropic =    24.2129   Anisotropy =     7.7022
   XX=    27.3550   YX=     2.9536   ZX=     0.5161
   XY=     3.3801   YY=    22.8560   ZY=     1.2474
   XZ=     1.1582   YZ=     2.2830   ZZ=    22.4278
   Eigenvalues:    20.4121    22.8790    29.3477
     47  H    Isotropic =    25.3091   Anisotropy =     7.0568
   XX=    28.6241   YX=     2.3721   ZX=     1.7867
   XY=     2.3646   YY=    23.9449   ZY=    -1.3081
   XZ=     2.6723   YZ=    -1.2904   ZZ=    23.3582
   Eigenvalues:    20.9577    24.9560    30.0136
     48  H    Isotropic =    28.5105   Anisotropy =     5.5538
   XX=    27.1694   YX=     1.1619   ZX=     0.5801
   XY=     0.9078   YY=    28.7980   ZY=    -3.9419
   XZ=    -1.9412   YZ=    -1.5024   ZZ=    29.5641
   Eigenvalues:    26.2616    27.0568    32.2130
     49  H    Isotropic =    28.3549   Anisotropy =    10.2513
   XX=    26.4273   YX=     0.2743   ZX=    -1.1814
   XY=     1.9705   YY=    27.7467   ZY=     5.8724
   XZ=    -1.0833   YZ=     5.4277   ZZ=    30.8906
   Eigenvalues:    22.7715    27.1041    35.1891
     50  H    Isotropic =    28.1477   Anisotropy =     9.2253
   XX=    30.5965   YX=     2.1699   ZX=     1.8855
   XY=     3.1361   YY=    25.0240   ZY=     3.3886
   XZ=     2.6062   YZ=     4.4047   ZZ=    28.8227
   Eigenvalues:    22.4265    27.7188    34.2979
     51  H    Isotropic =    26.6583   Anisotropy =     6.6489
   XX=    30.4176   YX=     0.5891   ZX=    -1.5585
   XY=     1.8024   YY=    26.8186   ZY=    -1.7565
   XZ=     0.0052   YZ=    -3.4904   ZZ=    22.7388
   Eigenvalues:    21.4520    27.4320    31.0909
     52  H    Isotropic =    27.3857   Anisotropy =     9.2166
   XX=    24.4496   YX=     0.9121   ZX=     1.9339
   XY=     1.4260   YY=    32.6517   ZY=     2.1372
   XZ=     1.5305   YZ=     2.2863   ZZ=    25.0559
   Eigenvalues:    22.9594    25.6676    33.5301
     53  H    Isotropic =    24.7559   Anisotropy =    12.3338
   XX=    23.7009   YX=    -0.0881   ZX=     0.6610
   XY=    -1.9588   YY=    31.2007   ZY=     1.5696
   XZ=    -1.2488   YZ=     7.8833   ZZ=    19.3662
   Eigenvalues:    17.7096    23.5797    32.9784
     54  H    Isotropic =    28.5610   Anisotropy =    23.2498
   XX=    30.8752   YX=    10.3458   ZX=     0.0234
   XY=    12.7256   YY=    33.9484   ZY=    -4.3137
   XZ=     3.6279   YZ=    -0.2433   ZZ=    20.8594
   Eigenvalues:    17.9370    23.6852    44.0609
     55  H    Isotropic =    25.2592   Anisotropy =    15.3043
   XX=    28.6682   YX=    -1.2532   ZX=    -9.3353
   XY=     0.4532   YY=    26.1668   ZY=     4.9369
   XZ=    -8.1389   YZ=     5.0692   ZZ=    20.9426
   Eigenvalues:    13.9134    26.4021    35.4621
     56  H    Isotropic =    25.3245   Anisotropy =    15.3568
   XX=    30.9410   YX=    -3.3847   ZX=     2.0949
   XY=    -5.4613   YY=    30.5228   ZY=    -2.0502
   XZ=     3.0419   YZ=    -0.9908   ZZ=    14.5098
   Eigenvalues:    14.0719    26.3393    35.5624
     57  H    Isotropic =    26.9133   Anisotropy =    13.6702
   XX=    29.7162   YX=    -4.6845   ZX=     4.8045
   XY=    -4.2375   YY=    21.3747   ZY=    -4.8283
   XZ=     2.5543   YZ=    -3.9221   ZZ=    29.6490
   Eigenvalues:    18.7100    26.0031    36.0267
     58  H    Isotropic =    25.3506   Anisotropy =    11.3857
   XX=    31.7696   YX=     3.1414   ZX=    -0.2347
   XY=     1.6740   YY=    26.0016   ZY=     1.6891
   XZ=     3.1636   YZ=     2.3996   ZZ=    18.2807
   Eigenvalues:    17.7193    25.3915    32.9411
     59  H    Isotropic =    27.6715   Anisotropy =     7.5862
   XX=    29.7947   YX=     1.9998   ZX=     0.9387
   XY=     2.6703   YY=    29.9472   ZY=     1.7762
   XZ=    -0.6513   YZ=     3.9033   ZZ=    23.2725
   Eigenvalues:    22.1640    28.1214    32.7289
     60  H    Isotropic =    27.6723   Anisotropy =     3.9129
   XX=    28.7966   YX=    -3.1439   ZX=     0.3871
   XY=    -1.7699   YY=    25.5136   ZY=    -3.1369
   XZ=    -3.4095   YZ=    -1.5493   ZZ=    28.7068
   Eigenvalues:    22.8747    29.8614    30.2809
     61  H    Isotropic =    28.0019   Anisotropy =    10.3979
   XX=    27.0823   YX=    -0.1828   ZX=     0.8617
   XY=    -1.6091   YY=    34.8284   ZY=    -0.6333
   XZ=     1.2163   YZ=     0.4736   ZZ=    22.0948
   Eigenvalues:    21.8863    27.1855    34.9338
     62  H    Isotropic =    28.9558   Anisotropy =     7.8716
   XX=    31.7610   YX=     0.8292   ZX=    -0.4522
   XY=     4.1595   YY=    31.6540   ZY=    -0.5700
   XZ=     2.6961   YZ=    -1.4182   ZZ=    23.4523
   Eigenvalues:    23.0863    29.5775    34.2035
     63  H    Isotropic =    28.9380   Anisotropy =     7.9360
   XX=    26.8114   YX=    -1.9825   ZX=     0.5830
   XY=    -2.7242   YY=    26.6330   ZY=     3.2683
   XZ=     2.7160   YZ=     1.4509   ZZ=    33.3695
   Eigenvalues:    23.5412    29.0441    34.2287
     64  H    Isotropic =    24.7446   Anisotropy =     6.4875
   XX=    28.3453   YX=    -1.9479   ZX=     0.5942
   XY=    -2.0611   YY=    22.1397   ZY=    -1.2862
   XZ=     0.3830   YZ=    -1.2642   ZZ=    23.7488
   Eigenvalues:    21.0907    24.0735    29.0696
     65  H    Isotropic =    24.2021   Anisotropy =     7.1289
   XX=    26.7585   YX=    -1.9954   ZX=     3.0190
   XY=    -1.3430   YY=    21.9169   ZY=    -0.1636
   XZ=     2.8497   YZ=    -0.4215   ZZ=    23.9309
   Eigenvalues:    21.1495    22.5020    28.9547
     66  H    Isotropic =    24.8827   Anisotropy =     4.2967
   XX=    27.4152   YX=    -0.8162   ZX=    -1.2532
   XY=    -1.0978   YY=    21.6784   ZY=    -0.6023
   XZ=    -0.1850   YZ=    -0.6442   ZZ=    25.5546
   Eigenvalues:    21.3928    25.5082    27.7472
     67  H    Isotropic =    27.5644   Anisotropy =    10.1562
   XX=    33.8347   YX=     0.3870   ZX=    -3.2910
   XY=    -2.2321   YY=    25.2783   ZY=     0.5996
   XZ=    -0.8913   YZ=    -0.6052   ZZ=    23.5800
   Eigenvalues:    23.1541    25.2038    34.3352
     68  H    Isotropic =    26.8026   Anisotropy =     7.3310
   XX=    30.2632   YX=    -2.8138   ZX=    -0.8200
   XY=    -0.6520   YY=    29.5732   ZY=     1.7859
   XZ=     1.4469   YZ=    -0.2961   ZZ=    20.5716
   Eigenvalues:    20.4885    28.2295    31.6899
     69  H    Isotropic =    28.1070   Anisotropy =     9.5253
   XX=    31.0892   YX=    -1.7155   ZX=     4.5321
   XY=    -2.6832   YY=    26.3961   ZY=    -1.7184
   XZ=     4.1812   YZ=     0.1541   ZZ=    26.8358
   Eigenvalues:    23.9810    25.8829    34.4572
     70  H    Isotropic =    27.9015   Anisotropy =     9.7163
   XX=    24.5544   YX=     0.1156   ZX=    -1.0228
   XY=    -0.3663   YY=    26.3158   ZY=     1.2113
   XZ=    -3.5667   YZ=     4.4335   ZZ=    32.8343
   Eigenvalues:    23.7662    25.5593    34.3791
     71  H    Isotropic =    27.3930   Anisotropy =     8.3935
   XX=    24.7318   YX=     3.1996   ZX=     0.6604
   XY=     3.1044   YY=    25.4165   ZY=    -0.9210
   XZ=    -3.9410   YZ=    -1.8393   ZZ=    32.0308
   Eigenvalues:    21.8941    27.2963    32.9887
     72  H    Isotropic =    28.6207   Anisotropy =     8.2910
   XX=    28.6445   YX=     1.0368   ZX=     1.6867
   XY=    -0.8454   YY=    24.0464   ZY=    -1.1841
   XZ=     2.5624   YZ=    -1.4050   ZZ=    33.1713
   Eigenvalues:    23.8318    27.8824    34.1481
     73  H    Isotropic =    27.7235   Anisotropy =     9.0501
   XX=    32.2873   YX=    -1.5071   ZX=    -1.4395
   XY=    -3.4129   YY=    27.8732   ZY=     0.1482
   XZ=    -3.2213   YZ=    -0.8915   ZZ=    23.0101
   Eigenvalues:    22.2877    27.1259    33.7570
     74  H    Isotropic =    28.0292   Anisotropy =     7.0897
   XX=    25.5896   YX=    -1.5415   ZX=    -4.2886
   XY=    -0.8068   YY=    29.3682   ZY=     2.3289
   XZ=    -4.1528   YZ=     0.1048   ZZ=    29.1299
   Eigenvalues:    22.7682    28.5638    32.7557
     75  H    Isotropic =    27.0566   Anisotropy =     8.2481
   XX=    27.9673   YX=    -3.2514   ZX=    -2.1989
   XY=    -1.3221   YY=    31.1768   ZY=    -1.0289
   XZ=    -3.8265   YZ=     0.8841   ZZ=    22.0258
   Eigenvalues:    20.6754    27.9391    32.5554
     76  H    Isotropic =    27.7389   Anisotropy =    10.4339
   XX=    25.3843   YX=    -2.6120   ZX=     1.3313
   XY=    -1.6059   YY=    30.4296   ZY=    -2.7911
   XZ=     2.4043   YZ=    -6.5999   ZZ=    27.4027
   Eigenvalues:    23.8819    24.6399    34.6948
     77  H    Isotropic =    28.2785   Anisotropy =     9.1761
   XX=    26.6021   YX=    -0.0575   ZX=     0.1998
   XY=    -0.1401   YY=    24.9633   ZY=    -2.3082
   XZ=    -2.3995   YZ=    -3.7710   ZZ=    33.2701
   Eigenvalues:    23.8970    26.5425    34.3959
     78  H    Isotropic =    27.4612   Anisotropy =     7.7540
   XX=    26.9938   YX=     1.7013   ZX=     1.7882
   XY=     1.0430   YY=    25.7975   ZY=    -2.7132
   XZ=     5.4357   YZ=    -3.3829   ZZ=    29.5922
   Eigenvalues:    22.0583    27.6947    32.6305
 End of Minotr F.D. properties file   721 does not exist.
 End of Minotr F.D. properties file   722 does not exist.
 End of Minotr F.D. properties file   788 does not exist.

 **********************************************************************

            Population analysis using the SCF Density.

 **********************************************************************

 Orbital symmetries:
       Occupied  (A) (A) (A) (A) (A) (A) (A) (A) (A) (A) (A) (A)
                 (A) (A) (A) (A) (A) (A) (A) (A) (A) (A) (A) (A)
                 (A) (A) (A) (A) (A) (A) (A) (A) (A) (A) (A) (A)
                 (A) (A) (A) (A) (A) (A) (A) (A) (A) (A) (A) (A)
                 (A) (A) (A) (A) (A) (A) (A) (A) (A) (A) (A) (A)
                 (A) (A) (A) (A) (A) (A) (A) (A) (A) (A) (A) (A)
                 (A) (A) (A) (A) (A) (A) (A) (A) (A) (A) (A) (A)
                 (A) (A) (A) (A) (A) (A) (A) (A) (A) (A) (A) (A)
                 (A) (A) (A) (A) (A) (A) (A) (A) (A) (A) (A) (A)
                 (A) (A) (A) (A) (A) (A) (A) (A) (A) (A) (A) (A)
                 (A) (A) (A) (A) (A) (A) (A) (A) (A) (A) (A) (A)
                 (A) (A) (A) (A) (A) (A) (A) (A) (A) (A) (A) (A)
                 (A) (A) (A) (A) (A) (A) (A) (A) (A) (A) (A) (A)
                 (A) (A) (A)
       Virtual   (A) (A) (A) (A) (A) (A) (A) (A) (A) (A) (A) (A)
                 (A) (A) (A) (A) (A) (A) (A) (A) (A) (A) (A) (A)
                 (A) (A) (A) (A) (A) (A) (A) (A) (A) (A) (A) (A)
                 (A) (A) (A) (A) (A) (A) (A) (A) (A) (A) (A) (A)
                 (A) (A) (A) (A) (A) (A) (A) (A) (A) (A) (A) (A)
                 (A) (A) (A) (A) (A) (A) (A) (A) (A) (A) (A) (A)
                 (A) (A) (A) (A) (A) (A) (A) (A) (A) (A) (A) (A)
                 (A) (A) (A) (A) (A) (A) (A) (A) (A) (A) (A) (A)
                 (A) (A) (A) (A) (A) (A) (A) (A) (A) (A) (A) (A)
                 (A) (A) (A) (A) (A) (A) (A) (A) (A) (A) (A) (A)
                 (A) (A) (A) (A) (A) (A) (A) (A) (A) (A) (A) (A)
                 (A) (A) (A) (A) (A) (A) (A) (A) (A) (A) (A) (A)
                 (A) (A) (A) (A) (A) (A) (A) (A) (A) (A) (A) (A)
                 (A) (A) (A) (A) (A) (A) (A) (A) (A) (A) (A) (A)
                 (A) (A) (A) (A) (A) (A) (A) (A) (A) (A) (A) (A)
                 (A) (A) (A) (A) (A) (A) (A) (A) (A) (A) (A) (A)
                 (A) (A) (A) (A) (A) (A) (A) (A) (A) (A) (A) (A)
                 (A) (A) (A) (A) (A) (A) (A) (A) (A) (A) (A) (A)
                 (A) (A) (A) (A) (A) (A) (A) (A) (A) (A) (A) (A)
                 (A) (A) (A) (A) (A) (A) (A) (A) (A) (A) (A) (A)
                 (A) (A) (A) (A) (A) (A) (A) (A) (A) (A) (A) (A)
                 (A) (A) (A) (A) (A) (A) (A) (A) (A) (A) (A) (A)
                 (A) (A) (A) (A) (A) (A) (A) (A) (A) (A) (A) (A)
                 (A) (A) (A) (A) (A) (A) (A) (A) (A) (A) (A) (A)
                 (A) (A) (A) (A) (A) (A) (A) (A) (A) (A) (A) (A)
                 (A) (A) (A) (A) (A) (A) (A) (A) (A) (A) (A) (A)
                 (A) (A) (A) (A) (A) (A) (A) (A) (A) (A) (A) (A)
                 (A) (A) (A) (A) (A) (A) (A) (A) (A) (A) (A) (A)
                 (A) (A) (A) (A) (A) (A) (A) (A) (A) (A) (A) (A)
                 (A) (A) (A) (A) (A) (A) (A) (A) (A) (A) (A) (A)
                 (A) (A) (A) (A) (A) (A) (A) (A) (A) (A) (A) (A)
                 (A) (A) (A) (A) (A) (A) (A) (A) (A) (A) (A) (A)
                 (A) (A) (A) (A) (A) (A) (A) (A) (A) (A) (A) (A)
                 (A) (A) (A) (A) (A) (A) (A) (A) (A) (A) (A) (A)
                 (A) (A) (A) (A) (A) (A) (A) (A) (A) (A) (A) (A)
                 (A) (A) (A) (A) (A) (A) (A) (A) (A) (A) (A) (A)
                 (A) (A) (A) (A) (A) (A) (A) (A) (A) (A) (A) (A)
                 (A) (A) (A) (A) (A) (A) (A) (A) (A) (A) (A) (A)
                 (A) (A) (A) (A) (A) (A) (A) (A) (A) (A) (A) (A)
                 (A) (A) (A) (A) (A) (A) (A) (A) (A) (A) (A) (A)
                 (A) (A) (A) (A) (A) (A) (A) (A) (A) (A) (A) (A)
                 (A) (A) (A) (A) (A) (A) (A) (A) (A) (A) (A) (A)
                 (A) (A) (A) (A) (A) (A) (A) (A) (A) (A) (A) (A)
                 (A) (A) (A) (A) (A) (A) (A) (A) (A) (A) (A) (A)
                 (A) (A) (A) (A) (A) (A) (A) (A) (A) (A) (A) (A)
                 (A) (A) (A) (A) (A) (A) (A) (A) (A) (A) (A) (A)
                 (A) (A) (A) (A) (A) (A) (A) (A) (A) (A) (A) (A)
                 (A) (A) (A) (A) (A) (A) (A) (A) (A) (A) (A) (A)
                 (A) (A) (A) (A) (A) (A) (A) (A) (A) (A) (A) (A)
                 (A) (A) (A) (A) (A) (A) (A) (A) (A) (A) (A) (A)
                 (A) (A) (A) (A) (A) (A) (A) (A) (A) (A) (A) (A)
                 (A) (A) (A) (A) (A) (A) (A) (A) (A) (A) (A) (A)
                 (A) (A) (A) (A) (A) (A) (A) (A) (A) (A) (A) (A)
                 (A) (A) (A) (A) (A) (A) (A) (A) (A) (A) (A) (A)
                 (A) (A) (A) (A) (A) (A) (A) (A) (A) (A) (A) (A)
                 (A) (A) (A) (A) (A) (A) (A) (A) (A) (A) (A) (A)
                 (A) (A) (A) (A) (A) (A) (A) (A) (A) (A) (A) (A)
                 (A) (A) (A) (A) (A) (A) (A) (A) (A) (A) (A) (A)
                 (A) (A) (A) (A) (A) (A) (A) (A) (A) (A) (A) (A)
                 (A) (A) (A) (A) (A) (A) (A) (A) (A) (A) (A) (A)
                 (A) (A) (A) (A) (A) (A) (A) (A) (A) (A) (A) (A)
                 (A) (A) (A) (A) (A) (A) (A) (A) (A) (A) (A) (A)
                 (A) (A) (A) (A) (A) (A) (A) (A) (A) (A) (A) (A)
                 (A) (A) (A) (A) (A) (A) (A) (A) (A) (A) (A) (A)
                 (A) (A) (A) (A) (A) (A) (A) (A) (A) (A) (A) (A)
                 (A) (A) (A) (A) (A) (A) (A) (A) (A) (A) (A) (A)
                 (A) (A) (A) (A) (A) (A) (A) (A) (A) (A) (A) (A)
                 (A) (A) (A) (A) (A) (A) (A) (A) (A) (A) (A) (A)
                 (A) (A) (A) (A) (A) (A) (A) (A) (A) (A) (A) (A)
                 (A) (A) (A) (A) (A) (A) (A) (A) (A) (A) (A) (A)
                 (A) (A) (A) (A) (A) (A) (A) (A) (A) (A) (A) (A)
                 (A) (A) (A) (A) (A) (A) (A) (A) (A) (A) (A) (A)
                 (A) (A) (A) (A) (A) (A) (A) (A) (A) (A) (A) (A)
                 (A) (A) (A) (A) (A) (A) (A) (A) (A) (A) (A) (A)
                 (A) (A) (A) (A) (A) (A) (A) (A) (A) (A) (A) (A)
                 (A) (A) (A) (A) (A) (A) (A) (A) (A) (A) (A) (A)
                 (A) (A) (A) (A) (A) (A) (A) (A) (A) (A) (A) (A)
                 (A) (A) (A) (A) (A) (A) (A) (A) (A) (A) (A) (A)
                 (A) (A) (A) (A) (A) (A) (A) (A) (A) (A) (A) (A)
                 (A) (A) (A) (A) (A) (A) (A) (A) (A) (A) (A) (A)
                 (A) (A) (A) (A) (A) (A) (A) (A) (A) (A) (A) (A)
                 (A) (A) (A) (A) (A) (A) (A) (A) (A) (A) (A) (A)
                 (A) (A) (A) (A) (A) (A) (A) (A) (A) (A) (A) (A)
                 (A) (A) (A) (A) (A) (A) (A) (A) (A) (A) (A) (A)
                 (A) (A) (A) (A) (A) (A) (A) (A) (A) (A) (A) (A)
                 (A) (A) (A) (A) (A) (A) (A) (A) (A) (A) (A) (A)
                 (A) (A) (A) (A) (A) (A) (A) (A) (A) (A) (A) (A)
                 (A) (A) (A) (A) (A) (A) (A) (A) (A) (A) (A) (A)
                 (A) (A) (A) (A) (A) (A) (A) (A) (A) (A) (A) (A)
                 (A) (A) (A) (A) (A) (A) (A) (A) (A) (A) (A) (A)
                 (A) (A) (A) (A) (A) (A) (A) (A) (A) (A) (A) (A)
                 (A) (A) (A) (A) (A) (A) (A) (A) (A) (A) (A) (A)
                 (A) (A) (A) (A) (A) (A) (A) (A) (A) (A) (A) (A)
                 (A) (A) (A) (A) (A) (A) (A) (A) (A) (A) (A) (A)
                 (A) (A) (A) (A) (A) (A) (A) (A) (A) (A) (A) (A)
                 (A) (A) (A) (A) (A) (A) (A) (A) (A) (A) (A) (A)
                 (A) (A) (A) (A) (A) (A) (A) (A) (A) (A) (A) (A)
                 (A) (A) (A) (A) (A) (A) (A) (A) (A) (A) (A) (A)
                 (A) (A) (A) (A) (A) (A) (A) (A) (A) (A) (A) (A)
                 (A) (A) (A) (A) (A) (A) (A) (A) (A) (A) (A) (A)
                 (A) (A) (A) (A) (A) (A) (A) (A) (A) (A) (A) (A)
                 (A) (A) (A) (A) (A) (A) (A)
 The electronic state is 1-A.
 Alpha  occ. eigenvalues --  -19.25115 -19.25108 -19.25065 -19.25021 -19.24989
 Alpha  occ. eigenvalues --  -19.24784 -19.24490 -19.24256 -19.23820 -19.23621
 Alpha  occ. eigenvalues --  -10.30384 -10.30156 -10.30146 -10.29950 -10.29898
 Alpha  occ. eigenvalues --  -10.29871 -10.29696 -10.29590 -10.29174 -10.29148
 Alpha  occ. eigenvalues --  -10.28038 -10.27889 -10.27412 -10.27290 -10.26919
 Alpha  occ. eigenvalues --  -10.26649 -10.24776 -10.24753 -10.24668 -10.24557
 Alpha  occ. eigenvalues --  -10.24556 -10.24528 -10.24288 -10.24218 -10.23861
 Alpha  occ. eigenvalues --  -10.23800 -10.23776 -10.23536 -10.23426 -10.23420
 Alpha  occ. eigenvalues --  -10.23388 -10.23157 -10.22881 -10.22726  -1.11117
 Alpha  occ. eigenvalues --   -1.11053  -1.09699  -1.09414  -1.09398  -1.09005
 Alpha  occ. eigenvalues --   -1.08645  -1.08590  -1.07311  -1.07045  -0.89686
 Alpha  occ. eigenvalues --   -0.88349  -0.88081  -0.87705  -0.84437  -0.83574
 Alpha  occ. eigenvalues --   -0.79936  -0.78664  -0.78127  -0.77865  -0.77603
 Alpha  occ. eigenvalues --   -0.75768  -0.75688  -0.75119  -0.72590  -0.71320
 Alpha  occ. eigenvalues --   -0.69825  -0.69779  -0.68871  -0.68490  -0.66431
 Alpha  occ. eigenvalues --   -0.66213  -0.65478  -0.63477  -0.63029  -0.62120
 Alpha  occ. eigenvalues --   -0.61911  -0.60784  -0.59222  -0.58405  -0.58200
 Alpha  occ. eigenvalues --   -0.56799  -0.55760  -0.55401  -0.54072  -0.53581
 Alpha  occ. eigenvalues --   -0.52609  -0.51976  -0.51739  -0.51021  -0.50800
 Alpha  occ. eigenvalues --   -0.50396  -0.50143  -0.49457  -0.49172  -0.48892
 Alpha  occ. eigenvalues --   -0.48752  -0.47892  -0.47414  -0.47096  -0.46966
 Alpha  occ. eigenvalues --   -0.46618  -0.46256  -0.45288  -0.45079  -0.44900
 Alpha  occ. eigenvalues --   -0.44560  -0.44530  -0.44273  -0.43792  -0.43724
 Alpha  occ. eigenvalues --   -0.43395  -0.43241  -0.42417  -0.42220  -0.41958
 Alpha  occ. eigenvalues --   -0.41702  -0.41459  -0.41221  -0.40885  -0.40735
 Alpha  occ. eigenvalues --   -0.40473  -0.40282  -0.39669  -0.39360  -0.39160
 Alpha  occ. eigenvalues --   -0.38773  -0.37440  -0.37130  -0.36853  -0.36638
 Alpha  occ. eigenvalues --   -0.36479  -0.36431  -0.35475  -0.34950  -0.34857
 Alpha  occ. eigenvalues --   -0.34383  -0.34072  -0.33842  -0.33089  -0.32693
 Alpha  occ. eigenvalues --   -0.32463  -0.32051  -0.31596  -0.31090  -0.28958
 Alpha  occ. eigenvalues --   -0.28671  -0.25188  -0.25003  -0.24676  -0.24512
 Alpha  occ. eigenvalues --   -0.24356  -0.22878  -0.22229  -0.21471
 Alpha virt. eigenvalues --   -0.01970  -0.01538  -0.00877  -0.00690  -0.00425
 Alpha virt. eigenvalues --    0.00298   0.00575   0.00675   0.00946   0.01160
 Alpha virt. eigenvalues --    0.01498   0.01856   0.02206   0.02453   0.02668
 Alpha virt. eigenvalues --    0.02896   0.03045   0.03263   0.03751   0.03845
 Alpha virt. eigenvalues --    0.04037   0.04220   0.04536   0.04804   0.04893
 Alpha virt. eigenvalues --    0.05259   0.05571   0.05724   0.06108   0.06241
 Alpha virt. eigenvalues --    0.06535   0.06720   0.06793   0.06898   0.07552
 Alpha virt. eigenvalues --    0.07691   0.08175   0.08382   0.08473   0.08764
 Alpha virt. eigenvalues --    0.09176   0.09376   0.09567   0.09665   0.10148
 Alpha virt. eigenvalues --    0.10335   0.10597   0.10972   0.11181   0.11312
 Alpha virt. eigenvalues --    0.11565   0.11710   0.12057   0.12273   0.12424
 Alpha virt. eigenvalues --    0.12588   0.12694   0.12999   0.13046   0.13333
 Alpha virt. eigenvalues --    0.13539   0.13716   0.13728   0.14023   0.14176
 Alpha virt. eigenvalues --    0.14489   0.14516   0.14541   0.14993   0.15117
 Alpha virt. eigenvalues --    0.15260   0.15494   0.15710   0.15806   0.15920
 Alpha virt. eigenvalues --    0.16256   0.16436   0.16574   0.16700   0.16794
 Alpha virt. eigenvalues --    0.17133   0.17311   0.17427   0.17463   0.17634
 Alpha virt. eigenvalues --    0.17796   0.17952   0.18161   0.18420   0.18634
 Alpha virt. eigenvalues --    0.18813   0.18904   0.19015   0.19180   0.19326
 Alpha virt. eigenvalues --    0.19625   0.19730   0.19903   0.20098   0.20287
 Alpha virt. eigenvalues --    0.20440   0.20650   0.20826   0.21057   0.21165
 Alpha virt. eigenvalues --    0.21380   0.21437   0.21554   0.21751   0.21920
 Alpha virt. eigenvalues --    0.22029   0.22170   0.22376   0.22492   0.22533
 Alpha virt. eigenvalues --    0.22752   0.22979   0.23106   0.23181   0.23292
 Alpha virt. eigenvalues --    0.23564   0.23725   0.23903   0.24038   0.24239
 Alpha virt. eigenvalues --    0.24395   0.24573   0.24701   0.24867   0.25070
 Alpha virt. eigenvalues --    0.25131   0.25354   0.25585   0.25809   0.26204
 Alpha virt. eigenvalues --    0.26232   0.26392   0.26552   0.26733   0.26920
 Alpha virt. eigenvalues --    0.27034   0.27277   0.27335   0.27564   0.27682
 Alpha virt. eigenvalues --    0.27852   0.28006   0.28228   0.28395   0.28577
 Alpha virt. eigenvalues --    0.28772   0.28993   0.29139   0.29184   0.29282
 Alpha virt. eigenvalues --    0.29575   0.29623   0.29812   0.30012   0.30123
 Alpha virt. eigenvalues --    0.30213   0.30398   0.30540   0.30784   0.30860
 Alpha virt. eigenvalues --    0.30981   0.31317   0.31597   0.31717   0.31738
 Alpha virt. eigenvalues --    0.32010   0.32246   0.32391   0.32435   0.32610
 Alpha virt. eigenvalues --    0.32807   0.33147   0.33376   0.33596   0.33686
 Alpha virt. eigenvalues --    0.33853   0.33979   0.34426   0.34584   0.34667
 Alpha virt. eigenvalues --    0.34791   0.35208   0.35396   0.35545   0.35670
 Alpha virt. eigenvalues --    0.35908   0.36045   0.36119   0.36362   0.36632
 Alpha virt. eigenvalues --    0.36770   0.36883   0.37118   0.37465   0.37587
 Alpha virt. eigenvalues --    0.37844   0.37979   0.38135   0.38584   0.38852
 Alpha virt. eigenvalues --    0.39102   0.39330   0.39667   0.39752   0.39899
 Alpha virt. eigenvalues --    0.40030   0.40229   0.40362   0.40560   0.40590
 Alpha virt. eigenvalues --    0.41000   0.41190   0.41272   0.41596   0.41712
 Alpha virt. eigenvalues --    0.42213   0.42422   0.42503   0.42550   0.42711
 Alpha virt. eigenvalues --    0.42779   0.43145   0.43272   0.43588   0.44073
 Alpha virt. eigenvalues --    0.44138   0.44788   0.44911   0.44964   0.45388
 Alpha virt. eigenvalues --    0.45605   0.45927   0.46208   0.46686   0.47252
 Alpha virt. eigenvalues --    0.47470   0.47806   0.47953   0.48312   0.48777
 Alpha virt. eigenvalues --    0.49405   0.49529   0.50133   0.50519   0.51294
 Alpha virt. eigenvalues --    0.51580   0.51829   0.51957   0.52246   0.52780
 Alpha virt. eigenvalues --    0.53048   0.53551   0.54098   0.54334   0.54649
 Alpha virt. eigenvalues --    0.54747   0.54867   0.55277   0.55525   0.55762
 Alpha virt. eigenvalues --    0.55910   0.56111   0.56494   0.56915   0.57178
 Alpha virt. eigenvalues --    0.57860   0.58144   0.58221   0.58441   0.58689
 Alpha virt. eigenvalues --    0.58940   0.59434   0.59512   0.59608   0.59932
 Alpha virt. eigenvalues --    0.60213   0.60850   0.60978   0.61240   0.61603
 Alpha virt. eigenvalues --    0.62038   0.62127   0.62422   0.62712   0.62994
 Alpha virt. eigenvalues --    0.63245   0.63606   0.63765   0.64085   0.64187
 Alpha virt. eigenvalues --    0.64370   0.64599   0.64900   0.65295   0.65331
 Alpha virt. eigenvalues --    0.65643   0.65964   0.66294   0.66618   0.66773
 Alpha virt. eigenvalues --    0.66908   0.67285   0.67349   0.67682   0.67751
 Alpha virt. eigenvalues --    0.67890   0.68288   0.68373   0.68547   0.68863
 Alpha virt. eigenvalues --    0.69188   0.69306   0.69374   0.69560   0.69906
 Alpha virt. eigenvalues --    0.70213   0.70374   0.70713   0.70830   0.70944
 Alpha virt. eigenvalues --    0.71334   0.71425   0.71566   0.71759   0.71903
 Alpha virt. eigenvalues --    0.72359   0.72495   0.72734   0.72939   0.73034
 Alpha virt. eigenvalues --    0.73561   0.73855   0.73984   0.74093   0.74374
 Alpha virt. eigenvalues --    0.74439   0.74814   0.75325   0.75561   0.75703
 Alpha virt. eigenvalues --    0.75814   0.76000   0.76322   0.76673   0.77005
 Alpha virt. eigenvalues --    0.77376   0.77501   0.77698   0.78009   0.78397
 Alpha virt. eigenvalues --    0.78711   0.78814   0.79098   0.79499   0.79603
 Alpha virt. eigenvalues --    0.79731   0.80170   0.80272   0.80441   0.80609
 Alpha virt. eigenvalues --    0.80700   0.81367   0.81501   0.81948   0.82029
 Alpha virt. eigenvalues --    0.82411   0.82820   0.82999   0.83224   0.83330
 Alpha virt. eigenvalues --    0.83581   0.83921   0.84237   0.84472   0.84677
 Alpha virt. eigenvalues --    0.84931   0.85323   0.85491   0.86070   0.86226
 Alpha virt. eigenvalues --    0.86793   0.86928   0.86959   0.87322   0.87573
 Alpha virt. eigenvalues --    0.87736   0.88068   0.88424   0.88505   0.88811
 Alpha virt. eigenvalues --    0.88830   0.89448   0.89769   0.90201   0.90453
 Alpha virt. eigenvalues --    0.90735   0.90799   0.91220   0.91538   0.91644
 Alpha virt. eigenvalues --    0.91914   0.92615   0.92758   0.92979   0.93520
 Alpha virt. eigenvalues --    0.93671   0.93947   0.94670   0.95055   0.95212
 Alpha virt. eigenvalues --    0.95666   0.96159   0.96819   0.97054   0.97489
 Alpha virt. eigenvalues --    0.97840   0.98035   0.98833   0.98928   0.99267
 Alpha virt. eigenvalues --    0.99698   1.00173   1.00630   1.00793   1.01347
 Alpha virt. eigenvalues --    1.01750   1.02161   1.02514   1.03295   1.03579
 Alpha virt. eigenvalues --    1.03961   1.04704   1.04853   1.05140   1.05508
 Alpha virt. eigenvalues --    1.05704   1.06245   1.06330   1.06744   1.06980
 Alpha virt. eigenvalues --    1.07477   1.07853   1.08211   1.08455   1.08726
 Alpha virt. eigenvalues --    1.09272   1.09494   1.10030   1.10239   1.10524
 Alpha virt. eigenvalues --    1.10766   1.11213   1.11279   1.11624   1.11864
 Alpha virt. eigenvalues --    1.12543   1.12754   1.12976   1.13521   1.13716
 Alpha virt. eigenvalues --    1.14051   1.14647   1.15083   1.15505   1.15857
 Alpha virt. eigenvalues --    1.16098   1.16682   1.16837   1.17212   1.17603
 Alpha virt. eigenvalues --    1.17909   1.18128   1.18231   1.18559   1.18803
 Alpha virt. eigenvalues --    1.19242   1.19426   1.20020   1.20241   1.20597
 Alpha virt. eigenvalues --    1.20880   1.20951   1.21423   1.21888   1.21965
 Alpha virt. eigenvalues --    1.22229   1.22920   1.23293   1.23491   1.23835
 Alpha virt. eigenvalues --    1.24118   1.24314   1.24808   1.24984   1.25459
 Alpha virt. eigenvalues --    1.25726   1.26172   1.26973   1.27018   1.27488
 Alpha virt. eigenvalues --    1.27775   1.28030   1.28291   1.28643   1.29037
 Alpha virt. eigenvalues --    1.29327   1.29940   1.30130   1.30351   1.30677
 Alpha virt. eigenvalues --    1.31614   1.31844   1.32179   1.32569   1.32971
 Alpha virt. eigenvalues --    1.33231   1.33854   1.33949   1.34518   1.34649
 Alpha virt. eigenvalues --    1.34997   1.35364   1.35588   1.35693   1.36067
 Alpha virt. eigenvalues --    1.36576   1.36762   1.37133   1.37263   1.37534
 Alpha virt. eigenvalues --    1.37949   1.38233   1.38854   1.39279   1.39768
 Alpha virt. eigenvalues --    1.40257   1.40487   1.40696   1.41283   1.41717
 Alpha virt. eigenvalues --    1.42259   1.42587   1.42900   1.43092   1.43254
 Alpha virt. eigenvalues --    1.43900   1.44179   1.44427   1.44755   1.45148
 Alpha virt. eigenvalues --    1.45540   1.45871   1.46747   1.46890   1.47143
 Alpha virt. eigenvalues --    1.47366   1.47569   1.47759   1.48548   1.48783
 Alpha virt. eigenvalues --    1.49335   1.49599   1.49869   1.49985   1.50618
 Alpha virt. eigenvalues --    1.51091   1.51248   1.51857   1.52477   1.52754
 Alpha virt. eigenvalues --    1.53328   1.53583   1.53689   1.54312   1.54977
 Alpha virt. eigenvalues --    1.55582   1.55743   1.56331   1.56816   1.57311
 Alpha virt. eigenvalues --    1.58090   1.58270   1.58833   1.59398   1.59694
 Alpha virt. eigenvalues --    1.60167   1.60722   1.61365   1.61971   1.62801
 Alpha virt. eigenvalues --    1.63392   1.64198   1.64500   1.64928   1.65714
 Alpha virt. eigenvalues --    1.66097   1.66594   1.66863   1.67087   1.68272
 Alpha virt. eigenvalues --    1.69679   1.70190   1.70745   1.71092   1.71720
 Alpha virt. eigenvalues --    1.72191   1.72641   1.72780   1.73316   1.73979
 Alpha virt. eigenvalues --    1.74667   1.75039   1.75569   1.75853   1.76051
 Alpha virt. eigenvalues --    1.76773   1.77225   1.77354   1.77677   1.78114
 Alpha virt. eigenvalues --    1.78258   1.79260   1.79490   1.80021   1.80500
 Alpha virt. eigenvalues --    1.81265   1.81812   1.82193   1.83141   1.83360
 Alpha virt. eigenvalues --    1.84361   1.85101   1.85383   1.86683   1.86718
 Alpha virt. eigenvalues --    1.86959   1.87195   1.87781   1.88799   1.89216
 Alpha virt. eigenvalues --    1.89402   1.90204   1.90469   1.91707   1.92470
 Alpha virt. eigenvalues --    1.93041   1.93515   1.94065   1.94659   1.94757
 Alpha virt. eigenvalues --    1.95521   1.96173   1.96952   1.97571   1.98100
 Alpha virt. eigenvalues --    1.98578   1.98728   1.98888   1.99616   1.99826
 Alpha virt. eigenvalues --    2.00059   2.00398   2.01027   2.01366   2.02228
 Alpha virt. eigenvalues --    2.03028   2.03194   2.03875   2.04419   2.05465
 Alpha virt. eigenvalues --    2.05489   2.06291   2.06589   2.07336   2.07813
 Alpha virt. eigenvalues --    2.08343   2.08379   2.09587   2.09798   2.10396
 Alpha virt. eigenvalues --    2.10993   2.11942   2.12766   2.13266   2.13780
 Alpha virt. eigenvalues --    2.14392   2.15640   2.16706   2.18048   2.19040
 Alpha virt. eigenvalues --    2.20131   2.20435   2.21695   2.22533   2.22746
 Alpha virt. eigenvalues --    2.23253   2.23811   2.25145   2.25752   2.25868
 Alpha virt. eigenvalues --    2.26379   2.27090   2.27513   2.28627   2.28794
 Alpha virt. eigenvalues --    2.29730   2.29815   2.30215   2.31065   2.31653
 Alpha virt. eigenvalues --    2.31942   2.32680   2.32968   2.33557   2.33834
 Alpha virt. eigenvalues --    2.34671   2.35507   2.35723   2.36558   2.36782
 Alpha virt. eigenvalues --    2.37780   2.38189   2.38594   2.39349   2.39572
 Alpha virt. eigenvalues --    2.40725   2.41023   2.41614   2.41863   2.42943
 Alpha virt. eigenvalues --    2.43394   2.43901   2.44489   2.45025   2.45528
 Alpha virt. eigenvalues --    2.45916   2.46435   2.46729   2.47184   2.47955
 Alpha virt. eigenvalues --    2.48249   2.48401   2.48947   2.49621   2.49876
 Alpha virt. eigenvalues --    2.50253   2.50715   2.51764   2.52052   2.52984
 Alpha virt. eigenvalues --    2.53754   2.54331   2.54685   2.57177   2.57836
 Alpha virt. eigenvalues --    2.58214   2.59002   2.59925   2.60474   2.61989
 Alpha virt. eigenvalues --    2.62769   2.63364   2.64308   2.65274   2.65776
 Alpha virt. eigenvalues --    2.66218   2.67262   2.68100   2.68553   2.68839
 Alpha virt. eigenvalues --    2.70374   2.70927   2.72190   2.72597   2.73231
 Alpha virt. eigenvalues --    2.75017   2.75161   2.76256   2.76688   2.77148
 Alpha virt. eigenvalues --    2.77924   2.78378   2.78632   2.79128   2.80445
 Alpha virt. eigenvalues --    2.80983   2.81059   2.81506   2.82062   2.83441
 Alpha virt. eigenvalues --    2.84885   2.85211   2.85753   2.87544   2.87678
 Alpha virt. eigenvalues --    2.88897   2.89205   2.89280   2.90635   2.90806
 Alpha virt. eigenvalues --    2.92327   2.92787   2.93905   2.94532   2.94704
 Alpha virt. eigenvalues --    2.95586   2.96249   2.97041   2.97890   2.97961
 Alpha virt. eigenvalues --    2.98795   2.99926   3.00207   3.00294   3.01077
 Alpha virt. eigenvalues --    3.01567   3.01896   3.02571   3.03045   3.03622
 Alpha virt. eigenvalues --    3.04075   3.04466   3.04631   3.04928   3.05401
 Alpha virt. eigenvalues --    3.05981   3.06632   3.06719   3.07149   3.08547
 Alpha virt. eigenvalues --    3.08794   3.09424   3.09808   3.10705   3.11733
 Alpha virt. eigenvalues --    3.11856   3.12459   3.12783   3.14260   3.15113
 Alpha virt. eigenvalues --    3.15785   3.16258   3.17008   3.17228   3.18243
 Alpha virt. eigenvalues --    3.19167   3.19569   3.20209   3.20402   3.22188
 Alpha virt. eigenvalues --    3.22608   3.23505   3.23661   3.24426   3.24638
 Alpha virt. eigenvalues --    3.25129   3.25779   3.25932   3.26324   3.27159
 Alpha virt. eigenvalues --    3.27876   3.28282   3.28738   3.29403   3.30029
 Alpha virt. eigenvalues --    3.30268   3.31277   3.31997   3.32658   3.33474
 Alpha virt. eigenvalues --    3.33767   3.34424   3.34555   3.35508   3.35951
 Alpha virt. eigenvalues --    3.36226   3.36710   3.37353   3.37941   3.38317
 Alpha virt. eigenvalues --    3.38891   3.39596   3.39845   3.40425   3.40835
 Alpha virt. eigenvalues --    3.41089   3.41147   3.41737   3.41802   3.42167
 Alpha virt. eigenvalues --    3.42748   3.42981   3.43674   3.43870   3.44231
 Alpha virt. eigenvalues --    3.45190   3.45279   3.45678   3.46279   3.46640
 Alpha virt. eigenvalues --    3.47035   3.47874   3.48254   3.48749   3.48976
 Alpha virt. eigenvalues --    3.49484   3.49841   3.50535   3.50763   3.51133
 Alpha virt. eigenvalues --    3.51705   3.51950   3.52419   3.52916   3.53379
 Alpha virt. eigenvalues --    3.54031   3.54150   3.54771   3.55510   3.55828
 Alpha virt. eigenvalues --    3.56392   3.56634   3.57162   3.57323   3.57418
 Alpha virt. eigenvalues --    3.57842   3.58084   3.59087   3.59370   3.60110
 Alpha virt. eigenvalues --    3.60816   3.60851   3.61866   3.62146   3.62632
 Alpha virt. eigenvalues --    3.63005   3.63630   3.63662   3.63992   3.64317
 Alpha virt. eigenvalues --    3.64577   3.64987   3.65304   3.65833   3.66608
 Alpha virt. eigenvalues --    3.66676   3.67349   3.67649   3.67992   3.68132
 Alpha virt. eigenvalues --    3.68317   3.68817   3.69095   3.69448   3.70076
 Alpha virt. eigenvalues --    3.70401   3.70960   3.71536   3.72041   3.72504
 Alpha virt. eigenvalues --    3.72811   3.73170   3.74035   3.74260   3.74611
 Alpha virt. eigenvalues --    3.75013   3.75470   3.75644   3.76313   3.76669
 Alpha virt. eigenvalues --    3.77091   3.77553   3.77932   3.79003   3.79138
 Alpha virt. eigenvalues --    3.79523   3.79689   3.79973   3.81004   3.81436
 Alpha virt. eigenvalues --    3.82308   3.82831   3.83457   3.83728   3.83946
 Alpha virt. eigenvalues --    3.84764   3.85186   3.85689   3.86181   3.86746
 Alpha virt. eigenvalues --    3.87293   3.88150   3.88435   3.88665   3.89528
 Alpha virt. eigenvalues --    3.89741   3.90435   3.90648   3.91447   3.91792
 Alpha virt. eigenvalues --    3.92199   3.93196   3.93688   3.94170   3.94345
 Alpha virt. eigenvalues --    3.94886   3.95901   3.96199   3.96857   3.97524
 Alpha virt. eigenvalues --    3.97880   3.99191   4.00087   4.00587   4.01490
 Alpha virt. eigenvalues --    4.01583   4.02410   4.02707   4.04618   4.06759
 Alpha virt. eigenvalues --    4.07127   4.08064   4.08681   4.09062   4.10032
 Alpha virt. eigenvalues --    4.10499   4.11101   4.12024   4.12071   4.12906
 Alpha virt. eigenvalues --    4.13430   4.14104   4.15360   4.15884   4.18101
 Alpha virt. eigenvalues --    4.18987   4.20314   4.20923   4.21423   4.21534
 Alpha virt. eigenvalues --    4.21744   4.22548   4.23403   4.24314   4.24717
 Alpha virt. eigenvalues --    4.26693   4.27295   4.27531   4.28190   4.28376
 Alpha virt. eigenvalues --    4.29271   4.29895   4.31674   4.32516   4.32950
 Alpha virt. eigenvalues --    4.33931   4.34855   4.35172   4.37624   4.38152
 Alpha virt. eigenvalues --    4.42596   4.43494   4.45172   4.46629   4.47213
 Alpha virt. eigenvalues --    4.48929   4.51180   4.52242   4.53538   4.55095
 Alpha virt. eigenvalues --    4.56074   4.58241   4.61533   4.65376   4.69326
 Alpha virt. eigenvalues --    4.69564   4.72153   4.78882   4.79548   4.82370
 Alpha virt. eigenvalues --    4.83091   4.84200   4.86481   4.93998   4.95679
 Alpha virt. eigenvalues --    5.07128   5.07362   5.10167   5.10800   5.14862
 Alpha virt. eigenvalues --    5.19682   5.22367   5.24554   5.25698   5.28063
 Alpha virt. eigenvalues --    5.29440   5.29676   5.33130   5.39551   5.42350
 Alpha virt. eigenvalues --    5.46302   5.50519   5.55645   5.58101   5.60081
 Alpha virt. eigenvalues --    5.61076   5.61544   5.63935   5.71720   5.72739
 Alpha virt. eigenvalues --    5.84045   5.85146   5.94829   5.96339   5.97780
 Alpha virt. eigenvalues --    5.98403   6.02978   6.04613   6.05122   6.05699
 Alpha virt. eigenvalues --    6.87260   6.89744   6.90539   6.91702   6.98223
 Alpha virt. eigenvalues --    6.99211   6.99549   7.00933   7.03781   7.04086
 Alpha virt. eigenvalues --    7.05222   7.06221   7.07378   7.07590   7.07763
 Alpha virt. eigenvalues --    7.08799   7.10010   7.10701   7.11710   7.12298
 Alpha virt. eigenvalues --    7.12396   7.13045   7.15418   7.17023   7.18463
 Alpha virt. eigenvalues --    7.18863   7.20835   7.21945   7.25912   7.26348
 Alpha virt. eigenvalues --    7.31809   7.33304   7.33717   7.34869   7.37962
 Alpha virt. eigenvalues --    7.38394   7.39470   7.42105   7.42300   7.42522
 Alpha virt. eigenvalues --    7.46384   7.46964   7.50038   7.50469   7.55750
 Alpha virt. eigenvalues --    7.55836   7.58509   7.59766   7.59927   7.60138
 Alpha virt. eigenvalues --   23.81108  23.82967  23.84039  23.88320  24.01758
 Alpha virt. eigenvalues --   24.02667  24.06634  24.07529  24.07757  24.09012
 Alpha virt. eigenvalues --   24.09594  24.12213  24.12715  24.13033  24.13492
 Alpha virt. eigenvalues --   24.13786  24.14320  24.17458  24.17886  24.20659
 Alpha virt. eigenvalues --   24.22473  24.24915  24.25123  24.25598  24.29355
 Alpha virt. eigenvalues --   24.29969  24.31822  24.32163  24.33569  24.34530
 Alpha virt. eigenvalues --   24.36798  24.38635  24.42303  24.51783  50.10802
 Alpha virt. eigenvalues --   50.12286  50.12576  50.14087  50.16714  50.17323
 Alpha virt. eigenvalues --   50.21011  50.21543  50.22081  50.23580
          Condensed to atoms (all electrons):
 Mulliken charges:
               1
     1  C    0.158277
     2  C   -0.052605
     3  C    0.077743
     4  C    1.267378
     5  C   -0.598390
     6  C   -0.901839
     7  C   -0.929083
     8  C    0.168405
     9  C   -0.274724
    10  O   -0.291397
    11  C    0.485515
    12  C   -0.248652
    13  C    0.114038
    14  C   -0.129974
    15  C   -0.232950
    16  C   -0.122167
    17  O   -0.408394
    18  O   -0.495045
    19  O   -0.515643
    20  O   -0.421771
    21  C   -0.038726
    22  C   -0.131776
    23  C   -0.135224
    24  C    0.279504
    25  C   -0.250499
    26  C    0.829620
    27  O   -0.337339
    28  C   -0.522125
    29  C    0.451664
    30  C   -0.376964
    31  C   -0.703907
    32  C   -0.529065
    33  C    0.940901
    34  C   -0.258440
    35  C   -0.199421
    36  C    0.069619
    37  O   -0.461889
    38  C   -0.280538
    39  O   -0.294886
    40  C   -0.246645
    41  O   -0.372050
    42  C   -0.251717
    43  O   -0.430255
    44  C   -0.298803
    45  H    0.199584
    46  H    0.162302
    47  H    0.149387
    48  H    0.209237
    49  H    0.202266
    50  H    0.161653
    51  H    0.198007
    52  H    0.190464
    53  H    0.188253
    54  H    0.375805
    55  H    0.347813
    56  H    0.355382
    57  H    0.313979
    58  H    0.216088
    59  H    0.203323
    60  H    0.185732
    61  H    0.150879
    62  H    0.191303
    63  H    0.183222
    64  H    0.152727
    65  H    0.160186
    66  H    0.155903
    67  H    0.179409
    68  H    0.197798
    69  H    0.187068
    70  H    0.182091
    71  H    0.197832
    72  H    0.191238
    73  H    0.177102
    74  H    0.190771
    75  H    0.176910
    76  H    0.182759
    77  H    0.189852
    78  H    0.193913
 Sum of Mulliken charges =  -0.00000
 Mulliken charges with hydrogens summed into heavy atoms:
               1
     1  C    0.158277
     2  C    0.146979
     3  C    0.240045
     4  C    1.267378
     5  C   -0.598390
     6  C   -0.752452
     7  C   -0.517580
     8  C    0.330058
     9  C    0.113747
    10  O   -0.291397
    11  C    0.485515
    12  C   -0.060399
    13  C    0.114038
    14  C   -0.129974
    15  C   -0.232950
    16  C   -0.122167
    17  O   -0.032589
    18  O   -0.147232
    19  O   -0.160261
    20  O   -0.107792
    21  C   -0.038726
    22  C   -0.131776
    23  C   -0.135224
    24  C    0.279504
    25  C   -0.034411
    26  C    0.829620
    27  O   -0.337339
    28  C   -0.133069
    29  C    0.602543
    30  C   -0.002439
    31  C   -0.551180
    32  C   -0.529065
    33  C    0.940901
    34  C   -0.098253
    35  C   -0.043518
    36  C    0.069619
    37  O   -0.461889
    38  C    0.283736
    39  O   -0.294886
    40  C    0.324516
    41  O   -0.372050
    42  C    0.293065
    43  O   -0.430255
    44  C    0.267721
 Electronic spatial extent (au):  <R**2>=          25373.8854
 Charge=              0.0000 electrons
 Dipole moment (field-independent basis, Debye):
    X=             -6.0219    Y=              3.1747    Z=              0.0052  Tot=              6.8075
 Quadrupole moment (field-independent basis, Debye-Ang):
   XX=           -222.6728   YY=           -247.6527   ZZ=           -236.9235
   XY=            -11.2412   XZ=              9.7067   YZ=              1.1037
 Traceless Quadrupole moment (field-independent basis, Debye-Ang):
   XX=             13.0769   YY=            -11.9031   ZZ=             -1.1738
   XY=            -11.2412   XZ=              9.7067   YZ=              1.1037
 Octapole moment (field-independent basis, Debye-Ang**2):
  XXX=           -227.8810  YYY=            161.2668  ZZZ=             18.0473  XYY=           -133.5680
  XXY=            -48.7268  XXZ=            194.5424  XZZ=             -7.1419  YZZ=             18.1824
  YYZ=            -87.2349  XYZ=            -12.5820
 Hexadecapole moment (field-independent basis, Debye-Ang**3):
 XXXX=         -17337.0860 YYYY=         -10006.8711 ZZZZ=          -2230.2217 XXXY=           -629.7943
 XXXZ=            770.9668 YYYX=           -130.6955 YYYZ=           -235.2149 ZZZX=            -29.0336
 ZZZY=            -29.1738 XXYY=          -5111.2619 XXZZ=          -3423.4721 YYZZ=          -2035.9496
 XXYZ=           -170.2777 YYXZ=             88.2637 ZZXY=            -76.4020
 N-N= 5.617508385432D+03 E-N=-1.606860474027D+04  KE= 2.059481856167D+03
 Unable to Open any file for archive entry.
 1\1\GINC-C08B01N03\SP\RmPW1PW91\6-311+G(2d,p)\C34H34O10\ROOT\25-Sep-20
 25\0\\# mPW1PW91/6-311+g(2d,p) NMR scrf(SMD,solvent=dmso) geom=connect
 ivity\\58RR\\0,1\C,0,2.528523,-2.638471,0.388555\C,0,2.641141,-2.14459
 5,-0.918637\C,0,1.584139,-2.340858,-1.808233\C,0,0.420827,-3.03026,-1.
 452031\C,0,0.343936,-3.530363,-0.13852\C,0,1.382256,-3.332787,0.775253
 \C,0,-0.754452,-3.183813,-2.396524\C,0,-2.050644,-3.437895,-1.609576\C
 ,0,-1.742328,-4.57551,-0.626232\O,0,-0.747242,-4.196353,0.337892\C,0,-
 2.588367,-2.220675,-0.872888\C,0,-1.916026,-0.998566,-0.831712\C,0,-2.
 347025,0.102773,-0.075858\C,0,-3.517513,-0.035837,0.687997\C,0,-4.2536
 42,-1.223157,0.60379\C,0,-3.798107,-2.301609,-0.16744\O,0,3.509109,-2.
 48733,1.324581\O,0,-4.55149,-3.437333,-0.213828\O,0,1.009525,4.650485,
 -0.224636\O,0,8.112272,-0.521791,0.236372\C,0,0.209652,3.550965,-0.150
 035\C,0,-1.173535,3.710644,-0.32312\C,0,-2.040442,2.612403,-0.286489\C
 ,0,-1.509628,1.326702,-0.057492\C,0,-0.121744,1.199098,0.097137\C,0,0.
 761106,2.28139,0.061806\O,0,4.129209,1.385141,-1.366171\C,0,2.704165,1
 .526759,-1.256984\C,0,2.261265,2.084457,0.100839\C,0,2.747813,1.135794
 ,1.206263\C,0,6.091681,0.424516,-0.525593\C,0,4.775924,0.840539,-0.296
 398\C,0,4.181736,0.719261,0.972924\C,0,4.962366,0.172985,1.9987\C,0,6.
 271904,-0.25813,1.792193\C,0,6.83668,-0.125809,0.516135\O,0,-5.420733,
 -1.444831,1.309307\C,0,-6.513545,-0.573889,0.956636\O,0,-3.933141,0.97
 8026,1.516561\C,0,-3.823134,0.675069,2.914737\O,0,-3.371221,2.744396,-
 0.56829\C,0,-4.118975,3.658527,0.247385\O,0,-1.605041,5.002246,-0.5717
 54\C,0,-1.992026,5.223684,-1.943237\H,0,3.536616,-1.613754,-1.227955\H
 ,0,1.66025,-1.934443,-2.814306\H,0,1.28895,-3.714271,1.78665\H,0,-0.84
 2838,-2.300029,-3.037201\H,0,-0.596932,-4.036972,-3.068734\H,0,-2.8208
 12,-3.81466,-2.293352\H,0,-2.615352,-4.857511,-0.039435\H,0,-1.386552,
 -5.454082,-1.180841\H,0,-0.998312,-0.883479,-1.393411\H,0,4.157791,-1.
 829149,1.016227\H,0,-5.3202,-3.26681,0.366674\H,0,0.40417,5.407851,-0.
 353361\H,0,8.508241,-0.888854,1.046417\H,0,0.277881,0.203019,0.25779\H
 ,0,2.235612,0.550144,-1.427568\H,0,2.420946,2.198591,-2.070137\H,0,2.7
 45368,3.056593,0.233424\H,0,2.115548,0.239944,1.234\H,0,2.647009,1.616
 67,2.185869\H,0,6.523902,0.527631,-1.51527\H,0,4.522438,0.072509,2.987
 841\H,0,6.851084,-0.683322,2.607893\H,0,-7.380025,-0.934357,1.514836\H
 ,0,-6.291737,0.458897,1.236495\H,0,-6.716226,-0.630387,-0.119031\H,0,-
 4.142632,1.574035,3.446549\H,0,-4.465898,-0.165282,3.195391\H,0,-2.783
 122,0.445644,3.177028\H,0,-5.163557,3.351481,0.164021\H,0,-3.806188,3.
 589061,1.292401\H,0,-4.010789,4.689321,-0.10211\H,0,-2.258746,6.279743
 ,-2.019339\H,0,-1.157623,5.002477,-2.618776\H,0,-2.852121,4.602428,-2.
 20905\\Version=ES64L-G16RevC.02\State=1-A\HF=-2068.4199384\RMSD=3.485e
 -09\Dipole=-2.3692099,1.24902,0.0020472\Quadrupole=9.7223441,-8.849633
 8,-0.8727103,-8.3575531,7.2167306,0.8205393\PG=C01 [X(C34H34O10)]\\@
 The archive entry for this job was punched.


 OLD HORSE! OLD HORSE! WHAT BROUGHT YOU HERE?
 FROM SACARAP' TO PORTLAND PIER
 I'VE CARTED STONE THIS MANY A YEAR;
 TILL, KILLED BY BLOWS AND SORE ABUSE,
 THEY SALTED ME DOWN FOR SAILORS' USE.
 THE SAILORS THEY DO ME DESPISE;
 THEY TURN ME OVER AND DAMN MY EYES;
 CUT OFF MY MEAT, AND SCRAPE MY BONES,
 AND PITCH ME OVER TO DAVY JONES.

    SAILORS' COMPLAINT ABOUT THE BEEF
    SERVED ON SHIPBOARD, CIRCA 1835.
 Job cpu time:       0 days 11 hours 32 minutes 13.2 seconds.
 Elapsed time:       0 days  0 hours 14 minutes 40.2 seconds.
 File lengths (MBytes):  RWF=   1569 Int=      0 D2E=      0 Chk=    151 Scr=      1
 Normal termination of Gaussian 16 at Thu Sep 25 18:11:17 2025.
