
                                 *****************
                                 * O   R   C   A *
                                 *****************

                                            #,                                       
                                            ###                                      
                                            ####                                     
                                            #####                                    
                                            ######                                   
                                           ########,                                 
                                     ,,################,,,,,                         
                               ,,#################################,,                 
                          ,,##########################################,,             
                       ,#########################################, ''#####,          
                    ,#############################################,,   '####,        
                  ,##################################################,,,,####,       
                ,###########''''           ''''###############################       
              ,#####''   ,,,,##########,,,,          '''####'''          '####       
            ,##' ,,,,###########################,,,                        '##       
           ' ,,###''''                  '''############,,,                           
         ,,##''                                '''############,,,,        ,,,,,,###''
      ,#''                                            '''#######################'''  
     '                                                          ''''####''''         
             ,#######,   #######,   ,#######,      ##                                
            ,#'     '#,  ##    ##  ,#'     '#,    #''#        ,####,    ,#,          
            ##       ##  ##   ,#'  ##            #'  '#       #'       ,# #          
            ##       ##  #######   ##           ,######,      #####,      #          
            '#,     ,#'  ##    ##  '#,     ,#' ,#      #,     #,   #      #          
             '#######'   ##     ##  '#######'  #'      '#     '####' #    #          



                #########################################################
                #                        -***-                          #
                #          Department of theory and spectroscopy        #
                #                                                       #
                #                      Frank Neese                      #
                #                                                       #
                #     Directorship, Architecture, Infrastructure        #
                #                    SHARK, DRIVERS                     #
                #        Core code/Algorithms in most modules           #
                #                                                       #
                #        Max Planck Institute fuer Kohlenforschung      #
                #                Kaiser Wilhelm Platz 1                 #
                #                 D-45470 Muelheim/Ruhr                 #
                #                      Germany                          #
                #                                                       #
                #                  All rights reserved                  #
                #                        -***-                          #
                #########################################################


                         Program Version 6.1.0-f.0  -   RELEASE   -


 With contributions from (in alphabetic order):
[Max-Planck-Institut fuer Kohlenforschung]                               
  Daniel Aravena         : Magnetic Suceptibility                        
  Michael Atanasov       : Ab Initio Ligand Field Theory (pilot matlab implementation)
  Alexander A. Auer      : GIAO ZORA, VPT2 properties, NMR spectrum      
  Ute Becker             : All parallelization in ORCA, NUMFREQ, NUMCALC 
  Giovanni Bistoni       : ED, misc. LED, open-shell LED, HFLD           
  Dmytro Bykov           : pre 5.0 version of the SCF Hessian            
  Marcos Casanova-Páez   : Triplet and SCS-CIS(D). UHF-(DLPNO)-IP/EA/STEOM-CCSD. UHF-CVS-IP/STEOM-CCSD   
  Vijay G. Chilkuri      : MRCI spin determinant printing, contributions to CSF-ICE 
  Pauline Colinet        : FMM embedding                                 
  Dipayan Datta          : RHF DLPNO-CCSD density                        
  Achintya Kumar Dutta   : EOM-CC, STEOM-CC                              
  Nicolas Foglia         : Exact transition moments, OPA infrastructure, MCD improvements    
  Dmitry Ganyushin       : Spin-Orbit,Spin-Spin,Magnetic field MRCI      
  Miquel Garcia-Rates    : C-PCM and meta-GGA Hessian, CCSD/C-PCM, Gaussian charge scheme 
  Tiago L. C. Gouveia    : GS-ROHF, GS-ROCIS                             
  Yang Guo               : DLPNO-NEVPT2, F12-NEVPT2, CIM, IAO-localization        
  Andreas Hansen         : Spin unrestricted coupled pair/coupled cluster methods 
  Ingolf Harden          : AUTO-CI MPn and infrastructure                
  Benjamin Helmich-Paris : MC-RPA, TRAH-(SCF,CASSCF), AVAS, COSX integrals, SCF dyn. polar., MC-PDFT, srDFT 
  Lee Huntington         : MR-EOM, pCC                                   
  Robert Izsak           : Overlap fitted RIJCOSX, COSX-SCS-MP3, EOM     
  Riya Kayal             : Wick's Theorem for AUTO-CI, AUTO-CI UHF-CCSDT 
  Emily Kempfer          : AUTO-CI RHF CISDT and CCSDT, approximate NEVPT4
  Christian Kollmar      : KDIIS, OOCD, Brueckner-CCSD(T), CCSD density, CASPT2, CASPT2-K, improved NEVPT2 
  Axel Koslowski         : Symmetry handling                             
  Simone Kossmann        : meta-GGA functionals, TD-DFT gradient, OOMP2, (MP2 Hessian; deprecated post 5.0) 
  Lucas Lang             : DCDCAS, Hyperfine gauge corrections, ICE-SOC+SSC
  Marvin Lechner         : AUTO-CI (C++ implementation), FIC-MRCC        
  Spencer Leger          : CASSCF response                               
  Dagmar Lenk            : GEPOL surface, SMD, ORCA-2-JSON               
  Dimitrios Liakos       : Extrapolation schemes; Compound Job, Property file
  Dimitrios Manganas     : Further ROCIS development; embedding schemes. LFT, Crystal Embedding 
  Dimitrios Pantazis     : SARC Basis sets                               
  Anastasios Papadopoulos: AUTO-CI, single reference methods and gradients 
  Taras Petrenko         : pre 6.0 DFT Hessian and TD-DFT gradient,  ECA, NRVS 
  Petra Pikulova         : Analytic Raman intensities                    
  Peter Pinski           : DLPNO-MP2, DLPNO-MP2 Gradient                 
  Shashank Vittal Rao    : ES-AILFT, MagRelax                            
  Christoph Reimann      : Effective Core Potentials                     
  Marius Retegan         : Local ZFS, SOC                                
  Christoph Riplinger    : Optimizer, TS searches, QM/MM, DLPNO-CCSD(T), (RO)-DLPNO pert. Triples 
  Michael Roemelt        : Original ROCIS implementation, recursive CI coupling coefficients
  Masaaki Saitow         : Open-shell DLPNO-CCSD energy and density      
  Barbara Sandhoefer     : DKH picture change effects                    
  Yorick L. A. Schmerwitz: GMF and freeze-and-release deltaSCF, NEB S-IDPP initial path                    
  Kantharuban Sivalingam : CASSCF convergence/infrastructure, NEVPT2, NEVPT3, NEVPT4(SD), FIC-MRCI and CEPA variants
  Bernardo de Souza      : ESD, SOC TD-DFT                               
  Georgi L. Stoychev     : AutoAux, RI-MP2 NMR, DLPNO-MP2 response, X2C  
  Van Anh Tran           : RI-MP2 g-tensors                              
  Willem Van den Heuvel  : Paramagnetic NMR                              
  Zikuan Wang            : NOTCH, Electric field optimization            
  Frank Wennmohs         : Technical directorship and infrastructure     
  Hang Xu                : AUTO-CI-Response properties                   
                                                                         
[FACCTs GmbH]                                                            
  Markus Bursch, Nicolas Foglia, Miquel Garcia-Rates, Ingolf Harden, Hagen Neugebauer, Anastasios Papadopoulos, 
  Christoph Riplinger, Bernardo de Souza, Georgi L. Stoychev                                                    
                                                                 
  APM, various basis sets, CI-OPT, improved COSX, DLPNO-Multilevel,           
  DOCKER, DRACO, updates on ESD, Fragmentator, GOAT, IRC, LR-CPCM, L-BFGS, MBIS, meta-GGA TD-DFT gradient, ML-optimized integration grids, 
  MM, NACMEs, nearIR, NEB, NEB-TS, NL-DFT gradient (VV10), 2- and 3-layer-ONIOM, interface openCOSMO-RS, QMMM,   
  Crystal-QMMM, RESP, rigid body optimization, SF, symmetry and pop. for TD-DFT, various functionals, SOLVATOR                                   
                                                                         
[Other institutions]                                                     
  V. Asgeirsson          : NEB                                           
  Christoph Bannwarth    : sTDA-DFT, sTD-DFT, PBEh-3c, B97-3c, D3        
  Giovanni Bistoni       : ETS/NOCV, ADLD/ADEX, COVALED                  
  Martin Brehm           : Molecular dynamics                            
  Ronald Cardenas        : ETS/NOCV                                      
  Martina Colucci        : COVALED                                       
  Sebastian Ehlert       : rSCAN, r2SCAN, r2SCAN-3c, D4, dhf basis sets  
  Marvin Friede          : D4 for Fr, Ra, Ac-Lr                          
  Lars Goerigk           : TD-DFT with DH, B97 family of functionals     
  Stefan Grimme          : VdW corrections, initial TS optimization, DFT functionals, gCP, sTDA/sTD-DF 
  Waldemar Hujo          : DFT-NL                                        
  H. Jonsson             : NEB                                           
  Holger Kruse           : gCP                                           
  Marcel Mueller         : wB97X-3c, vDZP basis set                      
  Hagen Neugebauer       : wr2SCAN, Native XTB                           
  Gianluca Regni         : ADLD/ADEX                                     
  Tobias Risthaus        : pre 6.0 range-separated hybrid DFT and stability analysis
  Lukas Wittmann         : regularized MP2, r2SCAN double-hybrids, wr2SCAN        
                                                                         
We gratefully acknowledge several colleagues who have allowed us to      
interface, adapt or use parts of their codes:                            
  Ed Valeev, F. Pavosevic, A. Kumar             : LibInt (2-el integral package), F12 methods 
  Garnet Chan, S. Sharma, J. Yang, R. Olivares  : DMRG                   
  Ulf Ekstrom                                   : XCFun DFT Library      
  Mihaly Kallay                                 : mrcc  (arbitrary order and MRCC methods)
  Frank Weinhold                                : gennbo (NPA and NBO analysis)           
  Simon Mueller                                 : openCOSMO-RS                            
  Christopher J. Cramer and Donald G. Truhlar   : smd solvation model                     
  S Lehtola, MJT Oliveira, MAL Marques          : LibXC Library                           
  Liviu Ungur et al                             : ANISO software                          


 Your calculation uses the libint2 library for the computation of 2-el integrals
 For citations please refer to: http://libint.valeyev.net

 Your ORCA version has been built with support for libXC version: 7.0.0
 For citations please refer to: https://libxc.gitlab.io

 This ORCA versions uses:
   CBLAS   interface :  Fast vector & matrix operations
   LAPACKE interface :  Fast linear algebra routines
   SCALAPACK package :  Parallel linear algebra routines
   Shared memory     :  Shared parallel matrices
   BLAS/LAPACK       :  OpenBLAS 0.3.29  USE64BITINT DYNAMIC_ARCH NO_AFFINITY Cooperlake SINGLE_THREADED
        Core in use  :  Cooperlake
   Copyright (c) 2011-2014, The OpenBLAS Project


  ***********************************
  * Starting time: Wed Mar  4 06:07:23 2026
  * Host name:     c08b01n04
  * Process ID:    3635836
  * Working dir.:  /lustre1/jiangy/jiangy_liuxy/NMR/B9D7C2-SRSR
  ***********************************

NOTE: MaxCore=6000 MB was set to SCF,MP2,MDCI,CIPSI,MRCI,RASCI and CIS
      => If you want to overwrite this, your respective input block should be placed after the MaxCore statement


***************************************
The coordinates will be read from file: conf-2.xyz
***************************************


Your calculation utilizes the atom-pairwise dispersion correction
based on EEQ partial charges (D4)


Warning: RI is on but no J-basis has been assigned. Assigning Def2/J (nothing to worry about!)
================================================================================

----- Orbital basis set information -----
Your calculation utilizes the basis: def2-TZVP
   F. Weigend and R. Ahlrichs, Phys. Chem. Chem. Phys. 7, 3297 (2005).

----- AuxJ basis set information -----
Your calculation utilizes the auxiliary basis: def2/J
   H-Rn: F. Weigend, Phys. Chem. Chem. Phys. 8, 1057 (2006).
   Fr-Lr: K. Eichkorn, F. Weigend, O. Treutler, R. Ahlrichs; Theor. Chem. Acc. 97, 119 (1997).

================================================================================
                                        WARNINGS
                       Please study these warnings very carefully!
================================================================================


WARNING: Geometry Optimization
  ===> : Switching off AutoStart
         For restart on a previous wavefunction, please use MOREAD

================================================================================
                                       INPUT FILE
================================================================================
NAME = opt-conf-2.inp
|  1> ! B3LYP OPT FREQ DEF2-TZVP D4 CPCM(Methanol) 
|  2> ! TightOpt
|  3> %pal nprocs 64 end
|  4> %maxcore 6000
|  5> 
|  6> %cpcm
|  7> end
|  8> 
|  9> %freq
| 10>    Temp 298.15
| 11> end
| 12> 
| 13> * xyzfile 0 1 conf-2.xyz
| 14> 
| 15> 
| 16>                          ****END OF INPUT****
================================================================================

                       *****************************
                       * Geometry Optimization Run *
                       *****************************

Geometry optimization settings:
Update method            Update   .... BFGS
Choice of coordinates    CoordSys .... (2022) Redundant Internals
Initial Hessian          InHess   .... Almloef's Model
Max. no of cycles        MaxIter  .... 246

Convergence Tolerances:
Energy Change            TolE     ....  1.0000e-06 Eh
Max. Gradient            TolMAXG  ....  1.0000e-04 Eh/bohr
RMS Gradient             TolRMSG  ....  3.0000e-05 Eh/bohr
Max. Displacement        TolMAXD  ....  1.0000e-03 bohr
RMS Displacement         TolRMSD  ....  6.0000e-04 bohr
Strict Convergence                .... False

------------------------------------------------------------------------------
                        ORCA OPTIMIZATION COORDINATE SETUP
------------------------------------------------------------------------------

The optimization will be done in redundant internal coordinates (2022)
Making redundant internal coordinates   ...  (2022 redundants) done
Evaluating the initial hessian          ...  (Almloef) done
Evaluating the coordinates              ...  done
Calculating the B-matrix                .... done
Calculating the G-matrix                .... done
The number of degrees of freedom        ....  404

    -----------------------------------------------------------------
                    Redundant Internal Coordinates


    -----------------------------------------------------------------
         Definition                    Initial Value    Approx d2E/dq
    -----------------------------------------------------------------
      1. B(C   1,C   0)                  1.4052         0.590897   
      2. B(C   2,C   1)                  1.3996         0.603194   
      3. B(C   3,C   2)                  1.3892         0.626649   
      4. B(C   4,C   3)                  1.3853         0.635611   
      5. B(C   5,C   4)                  1.3859         0.634298   
      6. B(C   5,C   0)                  1.3863         0.633260   
      7. B(C   6,C   4)                  1.5030         0.412463   
      8. B(C   7,C   6)                  1.5360         0.365431   
      9. B(C   8,C   7)                  1.5377         0.363202   
     10. B(C   9,C   8)                  1.5362         0.365134   
     11. B(C  10,C   9)                  1.5029         0.412756   
     12. B(C  11,C  10)                  1.3933         0.617181   
     13. B(C  12,C  11)                  1.3818         0.644009   
     14. B(C  13,C  12)                  1.4051         0.591098   
     15. B(C  14,C  13)                  1.3824         0.642573   
     16. B(C  15,C  10)                  1.3859         0.634348   
     17. B(C  15,C  14)                  1.3860         0.634050   
     18. B(C  16,C   7)                  1.5356         0.365904   
     19. B(C  17,C   8)                  1.5345         0.367471   
     20. B(O  18,C   2)                  1.3693         0.603829   
     21. B(O  19,C   0)                  1.3654         0.612503   
     22. B(O  20,C   1)                  1.3707         0.600633   
     23. B(O  21,C  13)                  1.3623         0.619643   
     24. B(O  22,C  12)                  1.3793         0.582000   
     25. B(C  23,O  20)                  1.4151         0.510257   
     26. B(C  24,C  23)                  1.5473         0.350530   
     27. B(C  25,C  24)                  1.5077         0.405399   
     28. B(C  26,C  23)                  1.5375         0.363409   
     29. B(O  27,C  26)                  1.4014         0.536740   
     30. B(C  28,C  25)                  1.3917         0.620884   
     31. B(C  29,C  28)                  1.3810         0.645777   
     32. B(C  30,C  29)                  1.4033         0.594916   
     33. B(C  31,C  30)                  1.3823         0.642649   
     34. B(C  32,C  31)                  1.3848         0.636931   
     35. B(C  32,C  25)                  1.3839         0.639047   
     36. B(C  33,O  19)                  1.4058         0.528107   
     37. B(C  34,O  18)                  1.4077         0.524448   
     38. B(C  35,O  22)                  1.4072         0.525260   
     39. B(O  36,C  24)                  1.4157         0.509181   
     40. B(O  37,C  16)                  1.4052         0.529201   
     41. B(O  38,C  17)                  1.4088         0.522244   
     42. B(O  39,C  29)                  1.3738         0.593962   
     43. B(O  40,C  30)                  1.3687         0.605173   
     44. B(C  41,O  39)                  1.4091         0.521732   
     45. B(H  42,C   3)                  1.0775         0.376995   
     46. B(H  43,C   5)                  1.0779         0.376465   
     47. B(H  44,C   6)                  1.0907         0.359202   
     48. B(H  45,C   6)                  1.0904         0.359522   
     49. B(H  46,C   7)                  1.0964         0.351761   
     50. B(H  47,C   8)                  1.0969         0.351061   
     51. B(H  48,C   9)                  1.0916         0.358037   
     52. B(H  49,C   9)                  1.0939         0.354935   
     53. B(H  50,C  11)                  1.0773         0.377345   
     54. B(H  51,C  14)                  1.0785         0.375708   
     55. B(H  52,C  15)                  1.0802         0.373246   
     56. B(H  53,C  16)                  1.0933         0.355744   
     57. B(H  54,C  16)                  1.0984         0.349202   
     58. B(H  55,C  17)                  1.0986         0.348939   
     59. B(H  56,C  17)                  1.0918         0.357675   
     60. B(H  57,O  21)                  0.9670         0.506678   
     61. B(H  57,O  22)                  2.1118         0.010000   
     62. B(H  58,C  23)                  1.0937         0.355175   
     63. B(H  59,C  24)                  1.1004         0.346599   
     64. B(H  60,C  26)                  1.0996         0.347623   
     65. B(H  61,C  26)                  1.0905         0.359465   
     66. B(H  62,O  20)                  2.1675         0.010000   
     67. B(H  62,O  27)                  0.9676         0.505682   
     68. B(H  63,C  28)                  1.0781         0.376165   
     69. B(H  64,C  31)                  1.0778         0.376542   
     70. B(H  65,C  32)                  1.0790         0.374962   
     71. B(H  66,C  33)                  1.0947         0.353926   
     72. B(H  67,H  64)                  4.1527         0.010000   
     73. B(H  67,C  33)                  1.0952         0.353245   
     74. B(H  68,C  33)                  1.0890         0.361396   
     75. B(H  69,C  34)                  1.0896         0.360628   
     76. B(H  70,C  34)                  1.0944         0.354309   
     77. B(H  71,C  34)                  1.0945         0.354204   
     78. B(H  72,C  35)                  1.0888         0.361654   
     79. B(H  73,C  35)                  1.0941         0.354678   
     80. B(H  74,C  35)                  1.0941         0.354710   
     81. B(H  75,O  36)                  0.9631         0.514091   
     82. B(H  76,O  40)                  1.9520         0.013593   
     83. B(H  76,O  37)                  0.9704         0.500504   
     84. B(H  77,O  38)                  0.9640         0.512351   
     85. B(H  78,O  39)                  2.1015         0.010000   
     86. B(H  78,O  40)                  0.9690         0.503024   
     87. B(H  79,O  21)                  2.3651         0.010000   
     88. B(H  79,C  41)                  1.0886         0.361969   
     89. B(H  80,H  70)                  2.4842         0.010000   
     90. B(H  80,C  41)                  1.0929         0.356219   
     91. B(H  81,C  41)                  1.0942         0.354637   
     92. A(C   1,C   0,O  19)          114.7061         0.426592   
     93. A(C   5,C   0,O  19)          124.7802         0.431924   
     94. A(C   1,C   0,C   5)          120.5133         0.431970   
     95. A(C   0,C   1,O  20)          114.6633         0.425100   
     96. A(C   0,C   1,C   2)          119.1822         0.428215   
     97. A(C   2,C   1,O  20)          125.9012         0.426670   
     98. A(C   3,C   2,O  18)          123.2710         0.430008   
     99. A(C   1,C   2,C   3)          119.2471         0.432755   
    100. A(C   1,C   2,O  18)          117.4816         0.427076   
    101. A(C   4,C   3,H  42)          118.3556         0.357167   
    102. A(C   2,C   3,H  42)          120.2244         0.356307   
    103. A(C   2,C   3,C   4)          121.4109         0.436852   
    104. A(C   5,C   4,C   6)          121.3470         0.405286   
    105. A(C   3,C   4,C   6)          119.1609         0.405434   
    106. A(C   3,C   4,C   5)          119.4836         0.437809   
    107. A(C   4,C   5,H  43)          119.1469         0.356956   
    108. A(C   0,C   5,H  43)          120.7212         0.356857   
    109. A(C   0,C   5,C   4)          120.1319         0.437517   
    110. A(C   4,C   6,H  44)          108.7860         0.329517   
    111. A(C   7,C   6,H  45)          109.8306         0.323063   
    112. A(C   4,C   6,C   7)          110.7196         0.368174   
    113. A(H  44,C   6,H  45)          108.2483         0.290652   
    114. A(C   4,C   6,H  45)          110.2688         0.329565   
    115. A(C   7,C   6,H  44)          108.9318         0.323016   
    116. A(C   6,C   7,C  16)          110.7469         0.360707   
    117. A(C   8,C   7,C  16)          110.3443         0.360331   
    118. A(C  16,C   7,H  46)          106.6404         0.321978   
    119. A(C   8,C   7,H  46)          106.7965         0.321587   
    120. A(C   6,C   7,H  46)          107.7392         0.321909   
    121. A(C   6,C   7,C   8)          114.1830         0.360252   
    122. A(C   7,C   8,C  17)          113.5962         0.360594   
    123. A(C  17,C   8,H  47)          107.1048         0.322098   
    124. A(C   7,C   8,C   9)          111.9347         0.360202   
    125. A(C   9,C   8,H  47)          108.5407         0.321762   
    126. A(C   7,C   8,H  47)          105.9762         0.321482   
    127. A(C   9,C   8,C  17)          109.4082         0.360920   
    128. A(H  48,C   9,H  49)          107.1611         0.289919   
    129. A(C  10,C   9,H  48)          109.1587         0.329379   
    130. A(C  10,C   9,H  49)          109.3408         0.328906   
    131. A(C   8,C   9,C  10)          113.9527         0.368167   
    132. A(C   8,C   9,H  48)          109.2415         0.322801   
    133. A(C   8,C   9,H  49)          107.7639         0.322341   
    134. A(C   9,C  10,C  11)          120.4315         0.403384   
    135. A(C  11,C  10,C  15)          118.6830         0.435500   
    136. A(C   9,C  10,C  15)          120.8790         0.405342   
    137. A(C  10,C  11,C  12)          120.7692         0.436687   
    138. A(C  10,C  11,H  50)          119.2694         0.355443   
    139. A(C  12,C  11,H  50)          119.9614         0.358021   
    140. A(C  11,C  12,C  13)          119.9621         0.433306   
    141. A(C  13,C  12,O  22)          114.5586         0.422737   
    142. A(C  11,C  12,O  22)          125.4792         0.429276   
    143. A(C  12,C  13,O  21)          120.1672         0.427505   
    144. A(C  12,C  13,C  14)          119.2753         0.433132   
    145. A(C  14,C  13,O  21)          120.5574         0.433963   
    146. A(C  13,C  14,H  51)          118.6777         0.357621   
    147. A(C  13,C  14,C  15)          120.1373         0.438639   
    148. A(C  15,C  14,H  51)          121.1820         0.356810   
    149. A(C  14,C  15,H  52)          119.1088         0.356412   
    150. A(C  10,C  15,H  52)          119.7466         0.356441   
    151. A(C  10,C  15,C  14)          121.1302         0.437621   
    152. A(O  37,C  16,H  54)          110.8276         0.339772   
    153. A(C   7,C  16,H  54)          108.7394         0.321593   
    154. A(O  37,C  16,H  53)          105.8462         0.340828   
    155. A(C   7,C  16,H  53)          110.8038         0.322572   
    156. A(C   7,C  16,O  37)          112.2933         0.382030   
    157. A(H  53,C  16,H  54)          108.2458         0.288889   
    158. A(O  38,C  17,H  56)          105.1216         0.340383   
    159. A(C   8,C  17,O  38)          112.2231         0.381436   
    160. A(H  55,C  17,H  56)          108.4128         0.289100   
    161. A(C   8,C  17,H  56)          110.8362         0.323085   
    162. A(O  38,C  17,H  55)          110.0612         0.338980   
    163. A(C   8,C  17,H  55)          110.0260         0.321778   
    164. A(C   2,O  18,C  34)          118.1736         0.413844   
    165. A(C   0,O  19,C  33)          118.2822         0.415408   
    166. A(C   1,O  20,C  23)          122.5763         0.411446   
    167. A(C  13,O  21,H  57)          107.5131         0.368439   
    168. A(C  12,O  22,C  35)          117.9849         0.411261   
    169. A(C  26,C  23,H  58)          110.1292         0.322126   
    170. A(C  24,C  23,H  58)          108.7126         0.320230   
    171. A(O  20,C  23,H  58)          111.9892         0.338668   
    172. A(C  24,C  23,C  26)          109.6500         0.357743   
    173. A(O  20,C  23,C  26)          103.7888         0.379172   
    174. A(O  20,C  23,C  24)          112.4811         0.376812   
    175. A(C  23,C  24,O  36)          105.7832         0.376674   
    176. A(O  36,C  24,H  59)          110.5524         0.337172   
    177. A(C  25,C  24,H  59)          109.9788         0.326649   
    178. A(C  23,C  24,H  59)          107.6351         0.318954   
    179. A(C  25,C  24,O  36)          111.5386         0.386301   
    180. A(C  23,C  24,C  25)          111.2151         0.364477   
    181. A(C  28,C  25,C  32)          119.8657         0.436549   
    182. A(C  24,C  25,C  32)          121.7965         0.404584   
    183. A(C  24,C  25,C  28)          118.3377         0.402531   
    184. A(O  27,C  26,H  61)          107.4688         0.342231   
    185. A(H  60,C  26,H  61)          109.4993         0.289155   
    186. A(C  23,C  26,H  61)          109.7458         0.322761   
    187. A(O  27,C  26,H  60)          110.5261         0.340318   
    188. A(C  23,C  26,H  60)          108.3612         0.320995   
    189. A(C  23,C  26,O  27)          111.2277         0.382514   
    190. A(C  26,O  27,H  62)          106.4550         0.359380   
    191. A(C  29,C  28,H  63)          121.3850         0.357998   
    192. A(C  25,C  28,H  63)          118.3078         0.355615   
    193. A(C  25,C  28,C  29)          120.3070         0.437375   
    194. A(C  30,C  29,O  39)          114.7800         0.424766   
    195. A(C  28,C  29,O  39)          125.7217         0.431059   
    196. A(C  28,C  29,C  30)          119.4979         0.434022   
    197. A(C  31,C  30,O  40)          120.3708         0.432132   
    198. A(C  29,C  30,O  40)          119.6563         0.426190   
    199. A(C  29,C  30,C  31)          119.9668         0.433643   
    200. A(C  32,C  31,H  64)          120.8763         0.357220   
    201. A(C  30,C  31,H  64)          119.0144         0.357763   
    202. A(C  30,C  31,C  32)          120.1025         0.439007   
    203. A(C  31,C  32,H  65)          119.8636         0.356965   
    204. A(C  25,C  32,H  65)          119.9244         0.357166   
    205. A(C  25,C  32,C  31)          120.2101         0.438562   
    206. A(H  67,C  33,H  68)          109.2679         0.290127   
    207. A(H  66,C  33,H  68)          109.2195         0.290214   
    208. A(O  19,C  33,H  68)          105.6161         0.341610   
    209. A(H  66,C  33,H  67)          109.3320         0.289178   
    210. A(O  19,C  33,H  67)          111.6574         0.340309   
    211. A(O  19,C  33,H  66)          111.6472         0.340418   
    212. A(H  69,C  34,H  71)          109.0314         0.290153   
    213. A(O  18,C  34,H  71)          111.4101         0.340068   
    214. A(H  69,C  34,H  70)          109.7383         0.290167   
    215. A(O  18,C  34,H  70)          111.8063         0.340085   
    216. A(O  18,C  34,H  69)          105.4814         0.341091   
    217. A(H  70,C  34,H  71)          109.2795         0.289350   
    218. A(H  73,C  35,H  74)          109.6643         0.289462   
    219. A(H  72,C  35,H  74)          109.2646         0.290348   
    220. A(O  22,C  35,H  74)          111.3369         0.340237   
    221. A(H  72,C  35,H  73)          109.5013         0.290344   
    222. A(O  22,C  35,H  73)          111.3407         0.340231   
    223. A(O  22,C  35,H  72)          105.6349         0.341341   
    224. A(C  24,O  36,H  75)          108.2345         0.357173   
    225. A(C  16,O  37,H  76)          107.7434         0.357888   
    226. A(C  17,O  38,H  77)          108.3996         0.358508   
    227. A(C  29,O  39,C  41)          118.1274         0.412255   
    228. A(C  30,O  40,H  78)          107.5028         0.366493   
    229. A(H  80,C  41,H  81)          109.3568         0.289650   
    230. A(H  79,C  41,H  81)          110.0051         0.290378   
    231. A(O  39,C  41,H  81)          111.0679         0.339842   
    232. A(H  79,C  41,H  80)          109.4911         0.290581   
    233. A(O  39,C  41,H  80)          111.5666         0.340095   
    234. A(O  39,C  41,H  79)          105.2802         0.341007   
    235. D(O  20,C   1,C   0,O  19)     -5.7238         0.024032   
    236. D(C   2,C   1,C   0,O  19)    179.7173         0.024032   
    237. D(C   2,C   1,C   0,C   5)     -0.0690         0.024032   
    238. D(O  20,C   1,C   0,C   5)    174.4898         0.024032   
    239. D(O  18,C   2,C   1,C   0)    178.3894         0.025097   
    240. D(C   3,C   2,C   1,C   0)     -1.4160         0.025097   
    241. D(C   3,C   2,C   1,O  20)   -175.3091         0.025097   
    242. D(O  18,C   2,C   1,O  20)      4.4962         0.025097   
    243. D(C   4,C   3,C   2,C   1)      2.0948         0.027209   
    244. D(H  42,C   3,C   2,O  18)      1.1836         0.027209   
    245. D(C   4,C   3,C   2,O  18)   -177.6986         0.027209   
    246. D(H  42,C   3,C   2,C   1)   -179.0230         0.027209   
    247. D(C   6,C   4,C   3,H  42)      0.9007         0.028044   
    248. D(C   5,C   4,C   3,H  42)    179.8550         0.028044   
    249. D(C   5,C   4,C   3,C   2)     -1.2426         0.028044   
    250. D(C   6,C   4,C   3,C   2)    179.8032         0.028044   
    251. D(H  43,C   5,C   4,C   6)     -1.3365         0.027921   
    252. D(H  43,C   5,C   4,C   3)    179.7327         0.027921   
    253. D(C   0,C   5,C   4,C   3)     -0.2869         0.027921   
    254. D(C   4,C   5,C   0,O  19)   -178.8328         0.027823   
    255. D(H  43,C   5,C   0,C   1)   -179.0891         0.027823   
    256. D(H  43,C   5,C   0,O  19)      1.1472         0.027823   
    257. D(C   0,C   5,C   4,C   6)    178.6438         0.027921   
    258. D(C   4,C   5,C   0,C   1)      0.9309         0.027823   
    259. D(H  45,C   6,C   4,C   3)   -163.3808         0.012595   
    260. D(H  44,C   6,C   4,C   5)    136.2534         0.012595   
    261. D(H  44,C   6,C   4,C   3)    -44.8125         0.012595   
    262. D(C   7,C   6,C   4,C   5)   -104.0727         0.012595   
    263. D(C   7,C   6,C   4,C   3)     74.8615         0.012595   
    264. D(C   8,C   7,C   6,H  44)    -39.4445         0.010692   
    265. D(C   8,C   7,C   6,C   4)   -159.0309         0.010692   
    266. D(C  16,C   7,C   6,H  45)    -46.3304         0.010692   
    267. D(C  16,C   7,C   6,H  44)   -164.7292         0.010692   
    268. D(C   8,C   7,C   6,H  45)     78.9543         0.010692   
    269. D(C  16,C   7,C   6,C   4)     75.6845         0.010692   
    270. D(C  17,C   8,C   7,H  46)   -164.9484         0.010570   
    271. D(C  17,C   8,C   7,C  16)     79.5237         0.010570   
    272. D(C  17,C   8,C   7,C   6)    -45.9734         0.010570   
    273. D(C   9,C   8,C   7,C  16)   -155.9478         0.010570   
    274. D(C   9,C   8,C   7,H  46)    -40.4199         0.010570   
    275. D(C   9,C   8,C   7,C   6)     78.5552         0.010570   
    276. D(H  48,C   9,C   8,C  17)     61.6009         0.010676   
    277. D(H  48,C   9,C   8,C   7)    -65.2263         0.010676   
    278. D(C  10,C   9,C   8,H  47)    -59.4706         0.010676   
    279. D(C  10,C   9,C   8,C  17)   -176.0266         0.010676   
    280. D(H  48,C   9,C   8,H  47)    178.1569         0.010676   
    281. D(C  10,C   9,C   8,C   7)     57.1462         0.010676   
    282. D(C  15,C  10,C   9,H  48)     -5.1409         0.012612   
    283. D(C  15,C  10,C   9,C   8)   -127.5588         0.012612   
    284. D(C  11,C  10,C   9,H  49)    -67.2668         0.012612   
    285. D(C  11,C  10,C   9,H  48)    175.7976         0.012612   
    286. D(C  11,C  10,C   9,C   8)     53.3796         0.012612   
    287. D(H  50,C  11,C  10,C  15)    179.9421         0.026344   
    288. D(H  50,C  11,C  10,C   9)     -0.9760         0.026344   
    289. D(C  12,C  11,C  10,C  15)     -0.1277         0.026344   
    290. D(C  12,C  11,C  10,C   9)    178.9543         0.026344   
    291. D(O  22,C  12,C  11,H  50)     -1.6320         0.028841   
    292. D(C  13,C  12,C  11,H  50)    178.2283         0.028841   
    293. D(O  22,C  12,C  11,C  10)    178.4382         0.028841   
    294. D(C  13,C  12,C  11,C  10)     -1.7014         0.028841   
    295. D(O  21,C  13,C  12,C  11)   -177.6807         0.024049   
    296. D(C  14,C  13,C  12,O  22)   -177.9123         0.024049   
    297. D(C  14,C  13,C  12,C  11)      2.2127         0.024049   
    298. D(O  21,C  13,C  12,O  22)      2.1944         0.024049   
    299. D(H  51,C  14,C  13,O  21)     -0.3914         0.028703   
    300. D(H  51,C  14,C  13,C  12)    179.7157         0.028703   
    301. D(C  15,C  14,C  13,O  21)    178.9874         0.028703   
    302. D(C  15,C  14,C  13,C  12)     -0.9056         0.028703   
    303. D(H  52,C  15,C  14,H  51)     -0.1939         0.027897   
    304. D(H  52,C  15,C  14,C  13)   -179.5569         0.027897   
    305. D(C  10,C  15,C  14,H  51)    178.4224         0.027897   
    306. D(C  10,C  15,C  14,C  13)     -0.9405         0.027897   
    307. D(H  52,C  15,C  10,C  11)   -179.9318         0.027925   
    308. D(H  52,C  15,C  10,C   9)      0.9905         0.027925   
    309. D(C  14,C  15,C  10,C  11)      1.4606         0.027925   
    310. D(C  14,C  15,C  10,C   9)   -177.6171         0.027925   
    311. D(H  53,C  16,C   7,H  46)   -171.1607         0.010718   
    312. D(H  53,C  16,C   7,C   8)    -55.5349         0.010718   
    313. D(H  53,C  16,C   7,C   6)     71.8856         0.010718   
    314. D(O  37,C  16,C   7,H  46)    -53.0309         0.010718   
    315. D(O  37,C  16,C   7,C   8)     62.5949         0.010718   
    316. D(O  37,C  16,C   7,C   6)   -169.9846         0.010718   
    317. D(H  55,C  17,C   8,H  47)     71.0390         0.010804   
    318. D(H  55,C  17,C   8,C   9)   -171.4992         0.010804   
    319. D(H  55,C  17,C   8,C   7)    -45.6194         0.010804   
    320. D(O  38,C  17,C   8,H  47)    -51.8702         0.010804   
    321. D(O  38,C  17,C   8,C   9)     65.5916         0.010804   
    322. D(O  38,C  17,C   8,C   7)   -168.5286         0.010804   
    323. D(C  34,O  18,C   2,C   3)      2.0401         0.026652   
    324. D(C  34,O  18,C   2,C   1)   -177.7568         0.026652   
    325. D(C  33,O  19,C   0,C   5)     -0.5782         0.027477   
    326. D(C  33,O  19,C   0,C   1)    179.6459         0.027477   
    327. D(C  23,O  20,C   1,C   2)    -45.5585         0.029074   
    328. D(C  23,O  20,C   1,C   0)    140.3075         0.029074   
    329. D(H  57,O  21,C  13,C  14)   -179.2366         0.031088   
    330. D(H  57,O  21,C  13,C  12)      0.6554         0.031088   
    331. D(C  35,O  22,C  12,C  13)    177.1733         0.027180   
    332. D(C  35,O  22,C  12,C  11)     -2.9597         0.027180   
    333. D(H  58,C  23,O  20,C   1)     54.4140         0.022367   
    334. D(C  26,C  23,O  20,C   1)    173.1812         0.022367   
    335. D(C  24,C  23,O  20,C   1)    -68.3755         0.022367   
    336. D(O  36,C  24,C  23,H  58)     58.1320         0.010000   
    337. D(O  36,C  24,C  23,C  26)    -62.3163         0.010000   
    338. D(O  36,C  24,C  23,O  20)   -177.2559         0.010000   
    339. D(C  25,C  24,C  23,H  58)    -63.1311         0.010000   
    340. D(C  25,C  24,C  23,C  26)    176.4206         0.010000   
    341. D(C  25,C  24,C  23,O  20)     61.4811         0.010000   
    342. D(C  32,C  25,C  24,O  36)    138.3802         0.012183   
    343. D(C  32,C  25,C  24,C  23)   -103.7875         0.012183   
    344. D(C  28,C  25,C  24,H  59)   -164.6428         0.012183   
    345. D(C  28,C  25,C  24,O  36)    -41.6128         0.012183   
    346. D(C  28,C  25,C  24,C  23)     76.2195         0.012183   
    347. D(H  60,C  26,C  23,H  58)     52.2615         0.010582   
    348. D(H  60,C  26,C  23,C  24)    171.8453         0.010582   
    349. D(H  60,C  26,C  23,O  20)    -67.7766         0.010582   
    350. D(O  27,C  26,C  23,H  58)    173.9471         0.010582   
    351. D(O  27,C  26,C  23,C  24)    -66.4691         0.010582   
    352. D(O  27,C  26,C  23,O  20)     53.9089         0.010582   
    353. D(H  62,O  27,C  26,H  61)   -165.8642         0.022905   
    354. D(H  62,O  27,C  26,H  60)     74.6978         0.022905   
    355. D(H  62,O  27,C  26,C  23)    -45.7183         0.022905   
    356. D(H  63,C  28,C  25,C  32)   -178.0117         0.026680   
    357. D(H  63,C  28,C  25,C  24)      1.9815         0.026680   
    358. D(C  29,C  28,C  25,C  32)      2.1165         0.026680   
    359. D(C  29,C  28,C  25,C  24)   -177.8904         0.026680   
    360. D(C  30,C  29,C  28,H  63)    179.7231         0.029010   
    361. D(C  30,C  29,C  28,C  25)     -0.4091         0.029010   
    362. D(O  39,C  29,C  28,H  63)     -0.0515         0.029010   
    363. D(O  39,C  29,C  28,C  25)    179.8163         0.029010   
    364. D(O  40,C  30,C  29,O  39)     -0.7772         0.024377   
    365. D(O  40,C  30,C  29,C  28)    179.4244         0.024377   
    366. D(C  31,C  30,C  29,O  39)    178.3256         0.024377   
    367. D(C  31,C  30,C  29,C  28)     -1.4728         0.024377   
    368. D(H  64,C  31,C  30,O  40)      1.6809         0.028711   
    369. D(H  64,C  31,C  30,C  29)   -177.4153         0.028711   
    370. D(C  32,C  31,C  30,O  40)   -179.2554         0.028711   
    371. D(C  32,C  31,C  30,C  29)      1.6483         0.028711   
    372. D(H  65,C  32,C  31,H  64)     -1.3978         0.028168   
    373. D(H  65,C  32,C  31,C  30)    179.5563         0.028168   
    374. D(C  25,C  32,C  31,H  64)    179.1105         0.028168   
    375. D(C  25,C  32,C  31,C  30)      0.0646         0.028168   
    376. D(H  65,C  32,C  25,C  28)    178.5616         0.028368   
    377. D(H  65,C  32,C  25,C  24)     -1.4313         0.028368   
    378. D(C  31,C  32,C  25,C  28)     -1.9470         0.028368   
    379. D(C  31,C  32,C  25,C  24)    178.0601         0.028368   
    380. D(H  68,C  33,O  19,C   0)    179.7657         0.022141   
    381. D(H  67,C  33,O  19,C   0)     61.1033         0.022141   
    382. D(H  66,C  33,O  19,C   0)    -61.6355         0.022141   
    383. D(H  71,C  34,O  18,C   2)     61.3066         0.021822   
    384. D(H  70,C  34,O  18,C   2)    -61.2996         0.021822   
    385. D(H  69,C  34,O  18,C   2)    179.4738         0.021822   
    386. D(H  74,C  35,O  22,C  12)     64.3397         0.023765   
    387. D(H  73,C  35,O  22,C  12)    -58.3769         0.023765   
    388. D(H  72,C  35,O  22,C  12)   -177.1614         0.023765   
    389. D(H  75,O  36,C  24,H  59)     59.5127         0.020522   
    390. D(H  75,O  36,C  24,C  25)    -63.1895         0.020522   
    391. D(H  75,O  36,C  24,C  23)    175.7570         0.020522   
    392. D(H  76,O  37,C  16,H  54)    -60.3444         0.022237   
    393. D(H  76,O  37,C  16,H  53)   -177.4863         0.022237   
    394. D(H  76,O  37,C  16,C   7)     61.4896         0.022237   
    395. D(H  77,O  38,C  17,H  56)   -179.6010         0.021631   
    396. D(H  77,O  38,C  17,H  55)    -63.0494         0.021631   
    397. D(H  77,O  38,C  17,C   8)     59.8400         0.021631   
    398. D(C  41,O  39,C  29,C  30)   -172.3241         0.028387   
    399. D(C  41,O  39,C  29,C  28)      7.4598         0.028387   
    400. D(H  78,O  40,C  30,C  31)   -178.6098         0.029547   
    401. D(H  78,O  40,C  30,C  29)      0.4893         0.029547   
    402. D(H  81,C  41,O  39,C  29)     60.6636         0.023432   
    403. D(H  80,C  41,O  39,C  29)    -61.6256         0.023432   
    404. D(H  79,C  41,O  39,C  29)    179.6949         0.023432   
    -----------------------------------------------------------------

Number of atoms                         .... 82
Number of degrees of freedom            .... 404


         *************************************************************
         *                GEOMETRY OPTIMIZATION CYCLE   1            *
         *************************************************************
---------------------------------
CARTESIAN COORDINATES (ANGSTROEM)
---------------------------------
  C     21.027316  -30.071347    2.064461
  C     21.640055  -29.837985    0.821626
  C     20.938041  -30.135796   -0.351960
  C     19.664198  -30.682470   -0.260676
  C     19.057675  -30.899081    0.965841
  C     19.742822  -30.588769    2.129875
  C     17.675948  -31.489331    1.005533
  C     17.717629  -32.991950    0.689793
  C     16.376722  -33.572390    0.210760
  C     16.104961  -33.246325   -1.265655
  C     17.177869  -33.723805   -2.203440
  C     17.585792  -35.056018   -2.189415
  C     18.556378  -35.507337   -3.063213
  C     19.118018  -34.627268   -4.003598
  C     18.721969  -33.302873   -4.010719
  C     17.767046  -32.857261   -3.110418
  C     18.243557  -33.786489    1.894087
  C     15.177528  -33.129937    1.059766
  O     21.554926  -29.863322   -1.543669
  O     21.795458  -29.754437    3.147913
  O     22.859600  -29.216257    0.892916
  O     20.040798  -35.079014   -4.898103
  O     19.053371  -36.793037   -3.113052
  C     23.946360  -29.572565    0.059502
  C     24.503647  -30.979343    0.382990
  C     23.456410  -32.043103    0.170845
  C     25.012211  -28.509638    0.372686
  O     25.273179  -28.442579    1.747890
  C     23.157661  -32.425163   -1.133623
  C     22.174715  -33.364191   -1.376994
  C     21.484391  -33.937452   -0.298018
  C     21.811599  -33.583347    0.997507
  C     22.796343  -32.638321    1.231552
  C     21.252727  -29.951227    4.429667
  C     20.843464  -30.112228   -2.732521
  C     18.585031  -37.719321   -2.162804
  O     25.611987  -31.161958   -0.478660
  O     18.508385  -35.128570    1.572717
  O     14.014861  -33.869225    0.765841
  O     21.788082  -33.818336   -2.614544
  O     20.501472  -34.859682   -0.536058
  C     22.542116  -33.416468   -3.734999
  H     19.115918  -30.932404   -1.153968
  H     19.264084  -30.755431    3.081141
  H     17.058264  -30.987963    0.259422
  H     17.224938  -31.329597    1.985394
  H     18.436807  -33.142484   -0.123943
  H     16.463502  -34.660663    0.317368
  H     15.983873  -32.167478   -1.379402
  H     15.152186  -33.708734   -1.539675
  H     17.134750  -35.737598   -1.487622
  H     19.162663  -32.634793   -4.733571
  H     17.464560  -31.820537   -3.135387
  H     17.501175  -33.812496    2.696287
  H     19.146112  -33.291113    2.276712
  H     15.419879  -33.217553    2.127682
  H     14.915189  -32.091097    0.849762
  H     20.166934  -36.023661   -4.734087
  H     23.678711  -29.536354   -1.000375
  H     24.828223  -30.975665    1.434428
  H     24.653371  -27.539133    0.000569
  H     25.947221  -28.767450   -0.125747
  H     24.412697  -28.440117    2.190351
  H     23.709907  -31.968702   -1.939234
  H     21.300612  -34.064056    1.815775
  H     23.043674  -32.359554    2.244142
  H     20.359501  -29.338583    4.588409
  H     21.006832  -31.003616    4.607282
  H     22.029002  -29.640833    5.127538
  H     21.513819  -29.818210   -3.539620
  H     20.582023  -31.169906   -2.835986
  H     19.932621  -29.507821   -2.787044
  H     19.138291  -38.638017   -2.351084
  H     18.781897  -37.376990   -1.142425
  H     17.514937  -37.910474   -2.287003
  H     26.028285  -32.002492   -0.260171
  H     19.196210  -35.138592    0.888296
  H     14.193418  -34.799998    0.942184
  H     20.442768  -34.981980   -1.495527
  H     22.063430  -33.892848   -4.588786
  H     22.522325  -32.331384   -3.864371
  H     23.579941  -33.752918   -3.651884

----------------------------
CARTESIAN COORDINATES (A.U.)
----------------------------
  NO LB      ZA    FRAG     MASS         X           Y           Z
   0 C     6.0000    0    12.011   39.735869  -56.826610    3.901265
   1 C     6.0000    0    12.011   40.893778  -56.385620    1.552648
   2 C     6.0000    0    12.011   39.567162  -56.948401   -0.665108
   3 C     6.0000    0    12.011   37.159949  -57.981466   -0.492607
   4 C     6.0000    0    12.011   36.013786  -58.390801    1.825175
   5 C     6.0000    0    12.011   37.308526  -57.804396    4.024881
   6 C     6.0000    0    12.011   33.402700  -59.506211    1.900181
   7 C     6.0000    0    12.011   33.481466  -62.345751    1.303520
   8 C     6.0000    0    12.011   30.947519  -63.442622    0.398279
   9 C     6.0000    0    12.011   30.433965  -62.826449   -2.391742
  10 C     6.0000    0    12.011   32.461468  -63.728755   -4.163899
  11 C     6.0000    0    12.011   33.232330  -66.246274   -4.137395
  12 C     6.0000    0    12.011   35.066472  -67.099143   -5.788635
  13 C     6.0000    0    12.011   36.127818  -65.436053   -7.565704
  14 C     6.0000    0    12.011   35.379395  -62.933309   -7.579161
  15 C     6.0000    0    12.011   33.574852  -62.091225   -5.877838
  16 C     6.0000    0    12.011   34.475326  -63.847211    3.579305
  17 C     6.0000    0    12.011   28.681371  -62.606509    2.002667
  18 O     8.0000    0    15.999   40.732907  -56.433499   -2.917112
  19 O     8.0000    0    15.999   41.187447  -56.227737    5.948694
  20 O     8.0000    0    15.999   43.198384  -55.210724    1.687367
  21 O     8.0000    0    15.999   37.871619  -66.289730   -9.256074
  22 O     8.0000    0    15.999   36.005653  -69.528763   -5.882816
  23 C     6.0000    0    12.011   45.252063  -55.884050    0.112443
  24 C     6.0000    0    12.011   46.305182  -58.542474    0.723747
  25 C     6.0000    0    12.011   44.326191  -60.552690    0.322850
  26 C     6.0000    0    12.011   47.266229  -53.875408    0.704275
  27 O     8.0000    0    15.999   47.759387  -53.748684    3.303034
  28 C     6.0000    0    12.011   43.761638  -61.274678   -2.142236
  29 C     6.0000    0    12.011   41.904138  -63.049183   -2.602141
  30 C     6.0000    0    12.011   40.599616  -64.132490   -0.563172
  31 C     6.0000    0    12.011   41.217949  -63.463328    1.885014
  32 C     6.0000    0    12.011   43.078845  -61.677488    2.327296
  33 C     6.0000    0    12.011   40.161834  -56.599617    8.370858
  34 C     6.0000    0    12.011   39.388439  -56.903863   -5.163717
  35 C     6.0000    0    12.011   35.120619  -71.279187   -4.087107
  36 O     8.0000    0    15.999   48.399642  -58.887566   -0.904536
  37 O     8.0000    0    15.999   34.975779  -66.383377    2.972004
  38 O     8.0000    0    15.999   26.484250  -64.003560    1.447231
  39 O     8.0000    0    15.999   41.173508  -63.907394   -4.940772
  40 O     8.0000    0    15.999   38.742167  -65.875252   -1.013002
  41 C     6.0000    0    12.011   42.598425  -63.147974   -7.058125
  42 H     1.0000    0     1.008   36.123850  -58.453773   -2.180683
  43 H     1.0000    0     1.008   36.403843  -58.119341    5.822512
  44 H     1.0000    0     1.008   32.235448  -58.558764    0.490237
  45 H     1.0000    0     1.008   32.550415  -59.204359    3.751851
  46 H     1.0000    0     1.008   34.840517  -62.630218   -0.234218
  47 H     1.0000    0     1.008   31.111510  -65.499160    0.599739
  48 H     1.0000    0     1.008   30.205143  -60.787723   -2.606691
  49 H     1.0000    0     1.008   28.633482  -63.700275   -2.909564
  50 H     1.0000    0     1.008   32.379984  -67.534272   -2.811198
  51 H     1.0000    0     1.008   36.212186  -61.670822   -8.945152
  52 H     1.0000    0     1.008   33.003236  -60.132101   -5.925024
  53 H     1.0000    0     1.008   33.072428  -63.896357    5.095245
  54 H     1.0000    0     1.008   36.180909  -62.911086    4.302362
  55 H     1.0000    0     1.008   29.139349  -62.772078    4.020737
  56 H     1.0000    0     1.008   28.185622  -60.643384    1.605818
  57 H     1.0000    0     1.008   38.109982  -68.074854   -8.946128
  58 H     1.0000    0     1.008   44.746280  -55.815620   -1.890434
  59 H     1.0000    0     1.008   46.918542  -58.535524    2.710676
  60 H     1.0000    0     1.008   46.588119  -52.041419    0.001074
  61 H     1.0000    0     1.008   49.033142  -54.362602   -0.237627
  62 H     1.0000    0     1.008   46.133312  -53.744033    4.139163
  63 H     1.0000    0     1.008   44.805231  -60.412092   -3.664620
  64 H     1.0000    0     1.008   40.252323  -64.371737    3.431317
  65 H     1.0000    0     1.008   43.546232  -61.150695    4.240813
  66 H     1.0000    0     1.008   38.473882  -55.441887    8.670837
  67 H     1.0000    0     1.008   39.697160  -58.588344    8.706502
  68 H     1.0000    0     1.008   41.628780  -56.013057    9.689642
  69 H     1.0000    0     1.008   40.655225  -56.348251   -6.688913
  70 H     1.0000    0     1.008   38.894387  -58.902585   -5.359236
  71 H     1.0000    0     1.008   37.667194  -55.761700   -5.266750
  72 H     1.0000    0     1.008   36.166128  -73.015270   -4.442904
  73 H     1.0000    0     1.008   35.492641  -70.632276   -2.158870
  74 H     1.0000    0     1.008   33.098433  -71.640413   -4.321810
  75 H     1.0000    0     1.008   49.186330  -60.475945   -0.491652
  76 H     1.0000    0     1.008   36.275580  -66.402315    1.678636
  77 H     1.0000    0     1.008   26.821673  -65.762466    1.780469
  78 H     1.0000    0     1.008   38.631232  -66.106362   -2.826136
  79 H     1.0000    0     1.008   41.693840  -64.048200   -8.671548
  80 H     1.0000    0     1.008   42.561025  -61.097460   -7.302604
  81 H     1.0000    0     1.008   44.559631  -63.783770   -6.901060

--------------------------------
INTERNAL COORDINATES (ANGSTROEM)
--------------------------------
 C      0   0   0     0.000000000000     0.00000000     0.00000000
 C      1   0   0     1.405185050068     0.00000000     0.00000000
 C      2   1   0     1.399578191450   119.18218774     0.00000000
 C      3   2   1     1.389194107020   119.24707921   358.58401630
 C      4   3   2     1.385328582875   121.41093065     2.09484272
 C      5   4   3     1.385891529170   119.48361138   358.75742856
 C      5   4   3     1.503043601456   119.16093198   179.80316031
 C      7   5   4     1.535999496428   110.71957847    74.86145588
 C      8   7   5     1.537665179549   114.18300918   200.96913379
 C      9   8   7     1.536220800955   111.93471861    78.55515049
 C     10   9   8     1.502850341339   113.95272480    57.14618896
 C     11  10   9     1.393338242470   120.43148040    53.37962832
 C     12  11  10     1.381755797419   120.76917741   178.95425802
 C     13  12  11     1.405092358499   119.96208428   358.29860211
 C     14  13  12     1.382363233690   119.27527343     2.21271613
 C     11  10   9     1.385870265525   120.87902487   232.44119308
 C      8   7   5     1.535647852597   110.74694120    75.68445872
 C      9   8   7     1.534483956288   113.59619307   314.02664647
 O      3   2   1     1.369292027179   117.48162522   178.38935453
 O      1   2   3     1.365409595133   114.70608710   179.71734054
 O      2   1   3     1.370736418450   114.66328669   174.55885161
 O     14  13  12     1.362254511627   120.16724086   182.31934593
 O     13  12  11     1.379314633815   125.47917964   178.43820823
 C     21   2   1     1.415125982746   122.57626239   140.30753199
 C     24  21   2     1.547332071775   112.48113316   291.62452146
 C     25  24  21     1.507745507426   111.21508635    61.48108625
 C     24  21   2     1.537509866358   103.78882258   173.18117507
 O     27  24  21     1.401352166625   111.22769329    53.90891530
 C     26  25  24     1.391709797280   118.33774943    76.21948287
 C     29  26  25     1.381009324430   120.30704522   182.10964116
 C     30  29  26     1.403339950830   119.49790258   359.59087553
 C     31  30  29     1.382331024032   119.96676720   358.52719740
 C     26  25  24     1.383861046685   121.79651735   256.21249984
 C     20   1   2     1.405765724878   118.28215492   179.64585959
 C     19   3   2     1.407658258500   118.17355852   182.24323064
 C     23  13  12     1.407237563238   117.98487621   357.04028508
 O     25  24  21     1.415700352243   105.78319785   182.74412882
 O     17   8   7     1.405202780968   112.29325971   190.01539950
 O     18   9   8     1.408804924881   112.22313163   191.47139409
 O     30  29  26     1.373776853368   125.72173236   179.81632185
 O     31  30  29     1.368686563625   119.65633550   179.42442638
 C     40  30  29     1.409071780013   118.12743876     7.45980918
 H      4   3   2     1.077518982433   120.22435345   180.97703617
 H      6   5   4     1.077901763651   119.14691007   179.73273219
 H      7   5   4     1.090679965573   108.78600625   315.18753271
 H      7   5   4     1.090436977910   110.26884138   196.61921141
 H      8   7   5     1.096378004523   107.73918839   319.40914006
 H      9   8   7     1.096919999180   105.97621894   196.71004389
 H     10   9   8     1.091563913801   109.24149879   294.77371543
 H     10   9   8     1.093932431609   107.76388348   178.67053003
 H     12  11  10     1.077266495374   119.26937937   359.02403404
 H     15  14  13     1.078450203338   118.67768386   179.71566409
 H     16  11  10     1.080239331465   119.74661342     0.99054453
 H     17   8   7     1.093312533961   110.80383618    71.88558057
 H     17   8   7     1.098365303800   108.73939697   313.03191441
 H     18   9   8     1.098570369710   110.02598257   314.38060221
 H     18   9   8     1.091839366522   110.83620045    74.27679149
 H     22  14  13     0.967041571410   107.51306476     0.65538271
 H     24  21   2     1.093748612608   111.98924413    54.41399329
 H     25  24  21     1.100401739890   107.63509660   300.95142135
 H     27  24  21     1.099599091231   108.36124290   292.22336214
 H     27  24  21     1.090480335911   109.74584006   172.69782493
 H     28  27  24     0.967577301120   106.45499536   314.28170059
 H     29  26  25     1.078119100371   118.30779759     1.98146783
 H     32  31  30     1.077846232327   119.01444928   182.58466559
 H     33  26  25     1.078990837134   119.92437857   358.56870086
 H     34  20   1     1.094707823369   111.64723174   298.36445907
 H     34  20   1     1.095232086168   111.65743848    61.10326323
 H     34  20   1     1.089022345495   105.61614738   179.76567910
 H     35  19   3     1.089601017398   105.48141360   179.47376000
 H     35  19   3     1.094412893395   111.80631632   298.70042092
 H     35  19   3     1.094493477210   111.41012746    61.30664099
 H     36  23  13     1.088828169777   105.63486724   182.83855619
 H     36  23  13     1.094129955931   111.34072744   301.62308184
 H     36  23  13     1.094105507900   111.33687617    64.33973156
 H     37  25  24     0.963088099632   108.23454104   175.75695745
 H     38  17   8     0.970379246439   107.74344371    61.48962168
 H     39  18   9     0.964010894786   108.39964242    59.83996657
 H     41  31  30     0.969012000263   107.50281404     0.48929025
 H     42  40  30     1.088590512495   105.28016902   179.69490958
 H     42  40  30     1.092949336003   111.56662574   298.37439877
 H     42  40  30     1.094160932290   111.06794740    60.66361562

---------------------------
INTERNAL COORDINATES (A.U.)
---------------------------
 C      0   0   0     0.000000000000     0.00000000     0.00000000
 C      1   0   0     2.655414912109     0.00000000     0.00000000
 C      2   1   0     2.644819484850   119.18218774     0.00000000
 C      3   2   1     2.625196409124   119.24707921   358.58401630
 C      4   3   2     2.617891627128   121.41093065     2.09484272
 C      5   4   3     2.618955441453   119.48361138   358.75742856
 C      5   4   3     2.840340774095   119.16093198   179.80316031
 C      7   5   4     2.902618390091   110.71957847    74.86145588
 C      8   7   5     2.905766075015   114.18300918   200.96913379
 C      9   8   7     2.903036595038   111.93471861    78.55515049
 C     10   9   8     2.839975565401   113.95272480    57.14618896
 C     11  10   9     2.633027690188   120.43148040    53.37962832
 C     12  11  10     2.611140041080   120.76917741   178.95425802
 C     13  12  11     2.655239750429   119.96208428   358.29860211
 C     14  13  12     2.612287929276   119.27527343     2.21271613
 C     11  10   9     2.618915258987   120.87902487   232.44119308
 C      8   7   5     2.901953879552   110.74694120    75.68445872
 C      9   8   7     2.899754434281   113.59619307   314.02664647
 O      3   2   1     2.587586928730   117.48162522   178.38935453
 O      1   2   3     2.580250195430   114.70608710   179.71734054
 O      2   1   3     2.590316432663   114.66328669   174.55885161
 O     14  13  12     2.574287951674   120.16724086   182.31934593
 O     13  12  11     2.606526910421   125.47917964   178.43820823
 C     21   2   1     2.674200552386   122.57626239   140.30753199
 C     24  21   2     2.924033853887   112.48113316   291.62452146
 C     25  24  21     2.849226088686   111.21508635    61.48108625
 C     24  21   2     2.905472575619   103.78882258   173.18117507
 O     27  24  21     2.648171812098   111.22769329    53.90891530
 C     26  25  24     2.629950374754   118.33774943    76.21948287
 C     29  26  25     2.609729411565   120.30704522   182.10964116
 C     30  29  26     2.651928179859   119.49790258   359.59087553
 C     31  30  29     2.612227061843   119.96676720   358.52719740
 C     26  25  24     2.615118385636   121.79651735   256.21249984
 C     20   1   2     2.656512228472   118.28215492   179.64585959
 C     19   3   2     2.660088598717   118.17355852   182.24323064
 C     23  13  12     2.659293599886   117.98487621   357.04028508
 O     25  24  21     2.675285953436   105.78319785   182.74412882
 O     17   8   7     2.655448418653   112.29325971   190.01539950
 O     18   9   8     2.662255484145   112.22313163   191.47139409
 O     30  29  26     2.596062021986   125.72173236   179.81632185
 O     31  30  29     2.586442768430   119.65633550   179.42442638
 C     40  30  29     2.662759767262   118.12743876     7.45980918
 H      4   3   2     2.036215780899   120.22435345   180.97703617
 H      6   5   4     2.036939132572   119.14691007   179.73273219
 H      7   5   4     2.061086434688   108.78600625   315.18753271
 H      7   5   4     2.060627254551   110.26884138   196.61921141
 H      8   7   5     2.071854167803   107.73918839   319.40914006
 H      9   8   7     2.072878389271   105.97621894   196.71004389
 H     10   9   8     2.062756854755   109.24149879   294.77371543
 H     10   9   8     2.067232704756   107.76388348   178.67053003
 H     12  11  10     2.035738649507   119.26937937   359.02403404
 H     15  14  13     2.037975533381   118.67768386   179.71566409
 H     16  11  10     2.041356495559   119.74661342     0.99054453
 H     17   8   7     2.066061267971   110.80383618    71.88558057
 H     17   8   7     2.075609619183   108.73939697   313.03191441
 H     18   9   8     2.075997137593   110.02598257   314.38060221
 H     18   9   8     2.063277384961   110.83620045    74.27679149
 H     22  14  13     1.827443730082   107.51306476     0.65538271
 H     24  21   2     2.066885337186   111.98924413    54.41399329
 H     25  24  21     2.079457925682   107.63509660   300.95142135
 H     27  24  21     2.077941139534   108.36124290   292.22336214
 H     27  24  21     2.060709189299   109.74584006   172.69782493
 H     28  27  24     1.828456112515   106.45499536   314.28170059
 H     29  26  25     2.037349839452   118.30779759     1.98146783
 H     32  31  30     2.036834193576   119.01444928   182.58466559
 H     33  26  25     2.038997183194   119.92437857   358.56870086
 H     34  20   1     2.068697982828   111.64723174   298.36445907
 H     34  20   1     2.069688695941   111.65743848    61.10326323
 H     34  20   1     2.057953986707   105.61614738   179.76567910
 H     35  19   3     2.059047518125   105.48141360   179.47376000
 H     35  19   3     2.068140645949   111.80631632   298.70042092
 H     35  19   3     2.068292927290   111.41012746    61.30664099
 H     36  23  13     2.057587047777   105.63486724   182.83855619
 H     36  23  13     2.067605971629   111.34072744   301.62308184
 H     36  23  13     2.067559771546   111.33687617    64.33973156
 H     37  25  24     1.819972751144   108.23454104   175.75695745
 H     38  17   8     1.833751021810   107.74344371    61.48962168
 H     39  18   9     1.821716581261   108.39964242    59.83996657
 H     41  31  30     1.831167300981   107.50281404     0.48929025
 H     42  40  30     2.057137940601   105.28016902   179.69490958
 H     42  40  30     2.065374923296   111.56662574   298.37439877
 H     42  40  30     2.067664508464   111.06794740    60.66361562

---------------------
BASIS SET INFORMATION
---------------------
There are 3 groups of distinct atoms

 Group   1 Type C   : 11s6p2d1f contracted to 5s3p2d1f pattern {62111/411/11/1}
 Group   2 Type O   : 11s6p2d1f contracted to 5s3p2d1f pattern {62111/411/11/1}
 Group   3 Type H   : 5s1p contracted to 3s1p pattern {311/1}

Atom   0C    basis set group =>   1
Atom   1C    basis set group =>   1
Atom   2C    basis set group =>   1
Atom   3C    basis set group =>   1
Atom   4C    basis set group =>   1
Atom   5C    basis set group =>   1
Atom   6C    basis set group =>   1
Atom   7C    basis set group =>   1
Atom   8C    basis set group =>   1
Atom   9C    basis set group =>   1
Atom  10C    basis set group =>   1
Atom  11C    basis set group =>   1
Atom  12C    basis set group =>   1
Atom  13C    basis set group =>   1
Atom  14C    basis set group =>   1
Atom  15C    basis set group =>   1
Atom  16C    basis set group =>   1
Atom  17C    basis set group =>   1
Atom  18O    basis set group =>   2
Atom  19O    basis set group =>   2
Atom  20O    basis set group =>   2
Atom  21O    basis set group =>   2
Atom  22O    basis set group =>   2
Atom  23C    basis set group =>   1
Atom  24C    basis set group =>   1
Atom  25C    basis set group =>   1
Atom  26C    basis set group =>   1
Atom  27O    basis set group =>   2
Atom  28C    basis set group =>   1
Atom  29C    basis set group =>   1
Atom  30C    basis set group =>   1
Atom  31C    basis set group =>   1
Atom  32C    basis set group =>   1
Atom  33C    basis set group =>   1
Atom  34C    basis set group =>   1
Atom  35C    basis set group =>   1
Atom  36O    basis set group =>   2
Atom  37O    basis set group =>   2
Atom  38O    basis set group =>   2
Atom  39O    basis set group =>   2
Atom  40O    basis set group =>   2
Atom  41C    basis set group =>   1
Atom  42H    basis set group =>   3
Atom  43H    basis set group =>   3
Atom  44H    basis set group =>   3
Atom  45H    basis set group =>   3
Atom  46H    basis set group =>   3
Atom  47H    basis set group =>   3
Atom  48H    basis set group =>   3
Atom  49H    basis set group =>   3
Atom  50H    basis set group =>   3
Atom  51H    basis set group =>   3
Atom  52H    basis set group =>   3
Atom  53H    basis set group =>   3
Atom  54H    basis set group =>   3
Atom  55H    basis set group =>   3
Atom  56H    basis set group =>   3
Atom  57H    basis set group =>   3
Atom  58H    basis set group =>   3
Atom  59H    basis set group =>   3
Atom  60H    basis set group =>   3
Atom  61H    basis set group =>   3
Atom  62H    basis set group =>   3
Atom  63H    basis set group =>   3
Atom  64H    basis set group =>   3
Atom  65H    basis set group =>   3
Atom  66H    basis set group =>   3
Atom  67H    basis set group =>   3
Atom  68H    basis set group =>   3
Atom  69H    basis set group =>   3
Atom  70H    basis set group =>   3
Atom  71H    basis set group =>   3
Atom  72H    basis set group =>   3
Atom  73H    basis set group =>   3
Atom  74H    basis set group =>   3
Atom  75H    basis set group =>   3
Atom  76H    basis set group =>   3
Atom  77H    basis set group =>   3
Atom  78H    basis set group =>   3
Atom  79H    basis set group =>   3
Atom  80H    basis set group =>   3
Atom  81H    basis set group =>   3
---------------------------------
AUXILIARY/J BASIS SET INFORMATION
---------------------------------
There are 3 groups of distinct atoms

 Group   1 Type C   : 12s5p4d2f1g contracted to 6s4p3d1f1g pattern {711111/2111/211/2/1}
 Group   2 Type O   : 12s5p4d2f1g contracted to 6s4p3d1f1g pattern {711111/2111/211/2/1}
 Group   3 Type H   : 5s2p1d contracted to 3s1p1d pattern {311/2/1}

Atom   0C    basis set group =>   1
Atom   1C    basis set group =>   1
Atom   2C    basis set group =>   1
Atom   3C    basis set group =>   1
Atom   4C    basis set group =>   1
Atom   5C    basis set group =>   1
Atom   6C    basis set group =>   1
Atom   7C    basis set group =>   1
Atom   8C    basis set group =>   1
Atom   9C    basis set group =>   1
Atom  10C    basis set group =>   1
Atom  11C    basis set group =>   1
Atom  12C    basis set group =>   1
Atom  13C    basis set group =>   1
Atom  14C    basis set group =>   1
Atom  15C    basis set group =>   1
Atom  16C    basis set group =>   1
Atom  17C    basis set group =>   1
Atom  18O    basis set group =>   2
Atom  19O    basis set group =>   2
Atom  20O    basis set group =>   2
Atom  21O    basis set group =>   2
Atom  22O    basis set group =>   2
Atom  23C    basis set group =>   1
Atom  24C    basis set group =>   1
Atom  25C    basis set group =>   1
Atom  26C    basis set group =>   1
Atom  27O    basis set group =>   2
Atom  28C    basis set group =>   1
Atom  29C    basis set group =>   1
Atom  30C    basis set group =>   1
Atom  31C    basis set group =>   1
Atom  32C    basis set group =>   1
Atom  33C    basis set group =>   1
Atom  34C    basis set group =>   1
Atom  35C    basis set group =>   1
Atom  36O    basis set group =>   2
Atom  37O    basis set group =>   2
Atom  38O    basis set group =>   2
Atom  39O    basis set group =>   2
Atom  40O    basis set group =>   2
Atom  41C    basis set group =>   1
Atom  42H    basis set group =>   3
Atom  43H    basis set group =>   3
Atom  44H    basis set group =>   3
Atom  45H    basis set group =>   3
Atom  46H    basis set group =>   3
Atom  47H    basis set group =>   3
Atom  48H    basis set group =>   3
Atom  49H    basis set group =>   3
Atom  50H    basis set group =>   3
Atom  51H    basis set group =>   3
Atom  52H    basis set group =>   3
Atom  53H    basis set group =>   3
Atom  54H    basis set group =>   3
Atom  55H    basis set group =>   3
Atom  56H    basis set group =>   3
Atom  57H    basis set group =>   3
Atom  58H    basis set group =>   3
Atom  59H    basis set group =>   3
Atom  60H    basis set group =>   3
Atom  61H    basis set group =>   3
Atom  62H    basis set group =>   3
Atom  63H    basis set group =>   3
Atom  64H    basis set group =>   3
Atom  65H    basis set group =>   3
Atom  66H    basis set group =>   3
Atom  67H    basis set group =>   3
Atom  68H    basis set group =>   3
Atom  69H    basis set group =>   3
Atom  70H    basis set group =>   3
Atom  71H    basis set group =>   3
Atom  72H    basis set group =>   3
Atom  73H    basis set group =>   3
Atom  74H    basis set group =>   3
Atom  75H    basis set group =>   3
Atom  76H    basis set group =>   3
Atom  77H    basis set group =>   3
Atom  78H    basis set group =>   3
Atom  79H    basis set group =>   3
Atom  80H    basis set group =>   3
Atom  81H    basis set group =>   3
--------------------------------------------------------------------------
WARNING: There was an error initializing an OpenFabrics device.

  Local host:   c08b01n04
  Local device: mlx5_0
--------------------------------------------------------------------------


           ************************************************************
           *        Program running with 64 parallel MPI-processes    *
           *              working on a common directory               *
           ************************************************************
------------------------------------------------------------------------------
                             ORCA STARTUP CALCULATIONS
                           -- RI-GTO INTEGRALS CHOSEN --
------------------------------------------------------------------------------
------------------------------------------------------------------------------
                   ___                                                        
                  /   \      - P O W E R E D   B Y -                         
                 /     \                                                     
                 |  |  |   _    _      __       _____    __    __             
                 |  |  |  | |  | |    /  \     |  _  \  |  |  /  |          
                  \  \/   | |  | |   /    \    | | | |  |  | /  /          
                 / \  \   | |__| |  /  /\  \   | |_| |  |  |/  /          
                |  |  |   |  __  | /  /__\  \  |    /   |      \           
                |  |  |   | |  | | |   __   |  |    \   |  |\   \          
                \     /   | |  | | |  |  |  |  | |\  \  |  | \   \       
                 \___/    |_|  |_| |__|  |__|  |_| \__\ |__|  \__/        
                                                                              
                      - O R C A' S   B I G   F R I E N D -                    
                                      &                                       
                       - I N T E G R A L  F E E D E R -                       
                                                                              
 v1 FN, 2020, v2 2021, v3 2022-2024                                           
------------------------------------------------------------------------------


[c08b01n04:3635837] 63 more processes have sent help message help-mpi-btl-openib.txt / error in device init
[c08b01n04:3635837] Set MCA parameter "orte_base_help_aggregate" to 0 to see all help / error messages
----------------------
SHARK INTEGRAL PACKAGE
----------------------

Number of atoms                             ...     82
Number of basis functions                   ...   1542
Number of shells                            ...    622
Maximum angular momentum                    ...      3
Integral batch strategy                     ... SHARK/LIBINT Hybrid
RI-J (if used) integral strategy            ... SPLIT-RIJ (Revised 2003 algorithm where possible)
Printlevel                                  ...      1
Contraction scheme used                     ... SEGMENTED contraction
Prescreening option                         ... SCHWARTZ
   Thresh                                   ... 2.500e-11
   Tcut                                     ... 2.500e-12
   Tpresel                                  ... 2.500e-12 
Coulomb Range Separation                    ... NOT USED
Exchange Range Separation                   ... NOT USED
Multipole approximations                    ... NOT USED
Finite Nucleus Model                        ... NOT USED
CABS basis                                  ... NOT available
Auxiliary Coulomb fitting basis             ... AVAILABLE
   # of basis functions in Aux-J            ...   2498
   # of shells in Aux-J                     ...    830
   Maximum angular momentum in Aux-J        ...      4
Auxiliary J/K fitting basis                 ... NOT available
Auxiliary Correlation fitting basis         ... NOT available
Auxiliary 'external' fitting basis          ... NOT available

Checking pre-screening integrals            ... done (  0.3 sec) Dimension = 622
   => SHARK Basis and OBASIS are compatible. Storing Pre-screening
Shell pair information
Shell pair cut-off parameter TPreSel        ...   2.5e-12
Total number of shell pairs                 ...    193753
Shell pairs after pre-screening             ...    115914
Total number of primitive shell pairs       ...    584784
Primitive shell pairs kept                  ...    218523
          la=0 lb=0:  32248 shell pairs
          la=1 lb=0:  34548 shell pairs
          la=1 lb=1:   9368 shell pairs
          la=2 lb=0:  15730 shell pairs
          la=2 lb=1:   8647 shell pairs
          la=2 lb=2:   1994 shell pairs
          la=3 lb=0:   7183 shell pairs
          la=3 lb=1:   4007 shell pairs
          la=3 lb=2:   1764 shell pairs
          la=3 lb=3:    425 shell pairs

Checking whether 4 symmetric matrices of dimension 1542 fit in memory
:Max Core in MB      =   6000.00
 MB in use           =    138.88
 MB left             =   5861.12
 MB needed           =     36.31
 Data fit in memory  = YES
Calculating RI/J V-Matrix + Cholesky decomp.... done (  2.2 sec)
Calculating Nuclear repulsion               ... done (  0.1 sec) ENN=   5749.392065367453 Eh

Diagonalization of the overlap matrix:
Smallest eigenvalue                        ... 3.128e-06
Time for diagonalization                   ...   30.244 sec
Threshold for overlap eigenvalues          ... 1.000e-07
Number of eigenvalues below threshold      ... 0
Time for construction of square roots      ...    1.716 sec
Total time needed                          ...   32.217 sec

-------------------
DFT GRID GENERATION
-------------------

General Integration Accuracy     IntAcc      ... 4.388
Radial Grid Type                 RadialGrid  ... OptM3 with GC (2021)
Angular Grid (max. ang.)         AngularGrid ... 4 (Lebedev-302)
Angular grid pruning method      GridPruning ... 4 (adaptive)
Weight generation scheme         WeightScheme... mBecke (2022)
Basis function cutoff            BFCut       ... 1.0000e-11
Integration weight cutoff        WCut        ... 1.0000e-14
Partially contracted basis set               ... off
Rotationally invariant grid construction     ... off
Angular grids for H and He will be reduced by one unit

Total number of grid points                  ...   373598
Total number of batches                      ...     5879
Average number of points per batch           ...       63
Average number of grid points per atom       ...     4556

--------------------
COSX GRID GENERATION
--------------------

GRIDX 1
-------
General Integration Accuracy     IntAcc      ... 3.816
Radial Grid Type                 RadialGrid  ... OptM3 with GC (2021)
Angular Grid (max. ang.)         AngularGrid ... 1 (Lebedev-50)
Angular grid pruning method      GridPruning ... 4 (adaptive)
Weight generation scheme         WeightScheme... mBecke (2022)
Basis function cutoff            BFCut       ... 1.0000e-11
Integration weight cutoff        WCut        ... 1.0000e-14
Partially contracted basis set               ... on
Rotationally invariant grid construction     ... off
Angular grids for H and He will be reduced by one unit

Total number of grid points                  ...    47300
Total number of batches                      ...      416
Average number of points per batch           ...      113
Average number of grid points per atom       ...      577
UseSFitting                                  ... on

GRIDX 2
-------
General Integration Accuracy     IntAcc      ... 4.020
Radial Grid Type                 RadialGrid  ... OptM3 with GC (2021)
Angular Grid (max. ang.)         AngularGrid ... 2 (Lebedev-110)
Angular grid pruning method      GridPruning ... 4 (adaptive)
Weight generation scheme         WeightScheme... mBecke (2022)
Basis function cutoff            BFCut       ... 1.0000e-11
Integration weight cutoff        WCut        ... 1.0000e-14
Partially contracted basis set               ... on
Rotationally invariant grid construction     ... off
Angular grids for H and He will be reduced by one unit

Total number of grid points                  ...   100253
Total number of batches                      ...      827
Average number of points per batch           ...      121
Average number of grid points per atom       ...     1223
UseSFitting                                  ... on

GRIDX 3
-------
General Integration Accuracy     IntAcc      ... 4.338
Radial Grid Type                 RadialGrid  ... OptM3 with GC (2021)
Angular Grid (max. ang.)         AngularGrid ... 3 (Lebedev-194)
Angular grid pruning method      GridPruning ... 4 (adaptive)
[...]
freq.     513.80  E(vib)   ...       0.13 
freq.     524.23  E(vib)   ...       0.13 
freq.     528.55  E(vib)   ...       0.13 
freq.     537.15  E(vib)   ...       0.12 
freq.     542.60  E(vib)   ...       0.12 
freq.     546.89  E(vib)   ...       0.12 
freq.     561.21  E(vib)   ...       0.11 
freq.     564.30  E(vib)   ...       0.11 
freq.     575.10  E(vib)   ...       0.11 
freq.     582.18  E(vib)   ...       0.11 
freq.     597.39  E(vib)   ...       0.10 
freq.     617.01  E(vib)   ...       0.09 
freq.     627.61  E(vib)   ...       0.09 
freq.     637.02  E(vib)   ...       0.09 
freq.     653.40  E(vib)   ...       0.08 
freq.     658.84  E(vib)   ...       0.08 
freq.     666.54  E(vib)   ...       0.08 
freq.     702.49  E(vib)   ...       0.07 
freq.     730.59  E(vib)   ...       0.06 
freq.     746.42  E(vib)   ...       0.06 
freq.     747.93  E(vib)   ...       0.06 
freq.     754.32  E(vib)   ...       0.06 
freq.     770.66  E(vib)   ...       0.05 
freq.     792.60  E(vib)   ...       0.05 
freq.     812.72  E(vib)   ...       0.05 
freq.     815.38  E(vib)   ...       0.05 
freq.     831.53  E(vib)   ...       0.04 
freq.     835.08  E(vib)   ...       0.04 
freq.     842.64  E(vib)   ...       0.04 
freq.     849.28  E(vib)   ...       0.04 
freq.     855.56  E(vib)   ...       0.04 
freq.     872.26  E(vib)   ...       0.04 
freq.     878.88  E(vib)   ...       0.04 
freq.     880.76  E(vib)   ...       0.04 
freq.     901.68  E(vib)   ...       0.03 
freq.     911.73  E(vib)   ...       0.03 
freq.     932.01  E(vib)   ...       0.03 
freq.     932.75  E(vib)   ...       0.03 
freq.     942.21  E(vib)   ...       0.03 
freq.     950.42  E(vib)   ...       0.03 
freq.     956.95  E(vib)   ...       0.03 
freq.     961.26  E(vib)   ...       0.03 
freq.     967.06  E(vib)   ...       0.03 
freq.     970.79  E(vib)   ...       0.03 
freq.     999.31  E(vib)   ...       0.02 
freq.    1010.09  E(vib)   ...       0.02 
freq.    1028.80  E(vib)   ...       0.02 
freq.    1028.97  E(vib)   ...       0.02 
freq.    1037.83  E(vib)   ...       0.02 
freq.    1048.30  E(vib)   ...       0.02 
freq.    1048.72  E(vib)   ...       0.02 
freq.    1060.71  E(vib)   ...       0.02 
freq.    1068.83  E(vib)   ...       0.02 
freq.    1077.44  E(vib)   ...       0.02 
freq.    1083.83  E(vib)   ...       0.02 
freq.    1091.79  E(vib)   ...       0.02 
freq.    1103.70  E(vib)   ...       0.02 
freq.    1127.18  E(vib)   ...       0.01 
freq.    1140.39  E(vib)   ...       0.01 
freq.    1143.42  E(vib)   ...       0.01 
freq.    1147.92  E(vib)   ...       0.01 
freq.    1169.67  E(vib)   ...       0.01 
freq.    1170.22  E(vib)   ...       0.01 
freq.    1171.22  E(vib)   ...       0.01 
freq.    1171.71  E(vib)   ...       0.01 
freq.    1172.72  E(vib)   ...       0.01 
freq.    1173.38  E(vib)   ...       0.01 
freq.    1177.58  E(vib)   ...       0.01 
freq.    1182.16  E(vib)   ...       0.01 
freq.    1199.00  E(vib)   ...       0.01 
freq.    1202.69  E(vib)   ...       0.01 
freq.    1204.03  E(vib)   ...       0.01 
freq.    1206.87  E(vib)   ...       0.01 
freq.    1212.57  E(vib)   ...       0.01 
freq.    1220.77  E(vib)   ...       0.01 
freq.    1222.06  E(vib)   ...       0.01 
freq.    1227.65  E(vib)   ...       0.01 
freq.    1229.44  E(vib)   ...       0.01 
freq.    1240.91  E(vib)   ...       0.01 
freq.    1244.87  E(vib)   ...       0.01 
freq.    1247.60  E(vib)   ...       0.01 
freq.    1251.42  E(vib)   ...       0.01 
freq.    1261.96  E(vib)   ...       0.01 
freq.    1274.50  E(vib)   ...       0.01 
freq.    1287.91  E(vib)   ...       0.01 
freq.    1293.75  E(vib)   ...       0.01 
freq.    1295.52  E(vib)   ...       0.01 
freq.    1296.20  E(vib)   ...       0.01 
freq.    1314.88  E(vib)   ...       0.01 
freq.    1328.06  E(vib)   ...       0.01 
freq.    1336.61  E(vib)   ...       0.01 
freq.    1339.34  E(vib)   ...       0.01 
freq.    1343.77  E(vib)   ...       0.01 
freq.    1347.40  E(vib)   ...       0.01 
freq.    1355.67  E(vib)   ...       0.01 
freq.    1364.13  E(vib)   ...       0.01 
freq.    1365.56  E(vib)   ...       0.01 
freq.    1373.36  E(vib)   ...       0.01 
freq.    1373.62  E(vib)   ...       0.01 
freq.    1389.92  E(vib)   ...       0.00 
freq.    1397.07  E(vib)   ...       0.00 
freq.    1404.29  E(vib)   ...       0.00 
freq.    1406.81  E(vib)   ...       0.00 
freq.    1410.93  E(vib)   ...       0.00 
freq.    1414.84  E(vib)   ...       0.00 
freq.    1420.16  E(vib)   ...       0.00 
freq.    1429.45  E(vib)   ...       0.00 
freq.    1430.79  E(vib)   ...       0.00 
freq.    1452.38  E(vib)   ...       0.00 
freq.    1459.71  E(vib)   ...       0.00 
freq.    1468.04  E(vib)   ...       0.00 
freq.    1478.78  E(vib)   ...       0.00 
freq.    1479.01  E(vib)   ...       0.00 
freq.    1479.41  E(vib)   ...       0.00 
freq.    1479.82  E(vib)   ...       0.00 
freq.    1480.58  E(vib)   ...       0.00 
freq.    1482.61  E(vib)   ...       0.00 
freq.    1483.91  E(vib)   ...       0.00 
freq.    1484.55  E(vib)   ...       0.00 
freq.    1485.11  E(vib)   ...       0.00 
freq.    1488.53  E(vib)   ...       0.00 
freq.    1490.88  E(vib)   ...       0.00 
freq.    1491.53  E(vib)   ...       0.00 
freq.    1491.87  E(vib)   ...       0.00 
freq.    1494.33  E(vib)   ...       0.00 
freq.    1498.17  E(vib)   ...       0.00 
freq.    1499.17  E(vib)   ...       0.00 
freq.    1507.96  E(vib)   ...       0.00 
freq.    1535.51  E(vib)   ...       0.00 
freq.    1542.61  E(vib)   ...       0.00 
freq.    1544.96  E(vib)   ...       0.00 
freq.    1627.50  E(vib)   ...       0.00 
freq.    1634.07  E(vib)   ...       0.00 
freq.    1642.50  E(vib)   ...       0.00 
freq.    1646.69  E(vib)   ...       0.00 
freq.    1648.71  E(vib)   ...       0.00 
freq.    1651.56  E(vib)   ...       0.00 
freq.    3011.98  E(vib)   ...       0.00 
freq.    3013.78  E(vib)   ...       0.00 
freq.    3016.75  E(vib)   ...       0.00 
freq.    3017.55  E(vib)   ...       0.00 
freq.    3021.85  E(vib)   ...       0.00 
freq.    3023.45  E(vib)   ...       0.00 
freq.    3025.06  E(vib)   ...       0.00 
freq.    3026.62  E(vib)   ...       0.00 
freq.    3026.94  E(vib)   ...       0.00 
freq.    3028.45  E(vib)   ...       0.00 
freq.    3035.78  E(vib)   ...       0.00 
freq.    3037.66  E(vib)   ...       0.00 
freq.    3060.22  E(vib)   ...       0.00 
freq.    3069.82  E(vib)   ...       0.00 
freq.    3074.13  E(vib)   ...       0.00 
freq.    3075.96  E(vib)   ...       0.00 
freq.    3077.18  E(vib)   ...       0.00 
freq.    3077.31  E(vib)   ...       0.00 
freq.    3084.77  E(vib)   ...       0.00 
freq.    3087.50  E(vib)   ...       0.00 
freq.    3090.32  E(vib)   ...       0.00 
freq.    3127.77  E(vib)   ...       0.00 
freq.    3134.97  E(vib)   ...       0.00 
freq.    3138.59  E(vib)   ...       0.00 
freq.    3142.37  E(vib)   ...       0.00 
freq.    3163.34  E(vib)   ...       0.00 
freq.    3170.70  E(vib)   ...       0.00 
freq.    3180.88  E(vib)   ...       0.00 
freq.    3187.78  E(vib)   ...       0.00 
freq.    3196.32  E(vib)   ...       0.00 
freq.    3203.96  E(vib)   ...       0.00 
freq.    3211.44  E(vib)   ...       0.00 
freq.    3212.91  E(vib)   ...       0.00 
freq.    3214.73  E(vib)   ...       0.00 
freq.    3638.07  E(vib)   ...       0.00 
freq.    3703.34  E(vib)   ...       0.00 
freq.    3723.55  E(vib)   ...       0.00 
freq.    3761.76  E(vib)   ...       0.00 
freq.    3769.50  E(vib)   ...       0.00 
freq.    3772.03  E(vib)   ...       0.00 

------------
INNER ENERGY
------------

The inner energy is: U= E(el) + E(ZPE) + E(vib) + E(rot) + E(trans)
    E(el)   - is the total energy from the electronic structure calculation
              = E(kin-el) + E(nuc-el) + E(el-el) + E(nuc-nuc)
    E(ZPE)  - the the zero temperature vibrational energy from the frequency calculation
    E(vib)  - the the finite temperature correction to E(ZPE) due to population
              of excited vibrational states
    E(rot)  - is the rotational thermal energy
    E(trans)- is the translational thermal energy

Summary of contributions to the inner energy U:
Electronic energy                ...  -2032.63525505 Eh
Zero point energy                ...      0.67836145 Eh     425.68 kcal/mol
Thermal vibrational correction   ...      0.04077341 Eh      25.59 kcal/mol
Thermal rotational correction    ...      0.00141627 Eh       0.89 kcal/mol
Thermal translational correction ...      0.00141627 Eh       0.89 kcal/mol
-----------------------------------------------------------------------
Total thermal energy                  -2031.91328765 Eh


Summary of corrections to the electronic energy:
(perhaps to be used in another calculation)
Total thermal correction                  0.04360595 Eh      27.36 kcal/mol
Non-thermal (ZPE) correction              0.67836145 Eh     425.68 kcal/mol
-----------------------------------------------------------------------
Total correction                          0.72196740 Eh     453.04 kcal/mol


--------
ENTHALPY
--------

The enthalpy is H = U + kB*T
                kB is Boltzmann's constant
Total thermal energy              ...  -2031.91328765 Eh 
Thermal Enthalpy correction       ...      0.00094421 Eh       0.59 kcal/mol
-----------------------------------------------------------------------
Total Enthalpy                    ...  -2031.91234344 Eh


Note: Only C1 symmetry has been detected, increase convergence thresholds 
      if your molecule has a higher symmetry. Symmetry factor of 1.0 is   
      used for the rotational entropy correction. 
 

Note: Rotational entropy computed according to Herzberg 
Infrared and Raman Spectra, Chapter V,1, Van Nostrand Reinhold, 1945 
Point Group:  C1, Symmetry Number:   1  
Rotational constants in cm-1:     0.004147     0.002150     0.001779 

Vibrational entropy computed according to the QRRHO of S. Grimme
Chem.Eur.J. 2012 18 9955 using a reference frequency of 100.0 cm-1


-------
ENTROPY
-------

The entropy contributions are T*S = T*(S(el)+S(vib)+S(rot)+S(trans))
     S(el)   - electronic entropy
     S(vib)  - vibrational entropy
     S(rot)  - rotational entropy
     S(trans)- translational entropy
The entropies will be listed as multiplied by the temperature to get
units of energy

Electronic entropy                ...      0.00000000 Eh      0.00 kcal/mol
Vibrational entropy               ...      0.07326630 Eh     45.98 kcal/mol
Rotational entropy                ...      0.01798910 Eh     11.29 kcal/mol
Translational entropy             ...      0.02138181 Eh     13.42 kcal/mol
-----------------------------------------------------------------------
Final entropy term                ...      0.11263721 Eh     70.68 kcal/mol

In case the symmetry of your molecule has not been determined correctly
or in case you have a reason to use a different symmetry number we print 
out the resulting rotational entropy values for sn=1,12:

 non-linear molecules -----------------------------------
|  sn= 1 | S(rot)=       0.01798910 Eh     11.29 kcal/mol|
|  sn= 2 | S(rot)=       0.01733464 Eh     10.88 kcal/mol|
|  sn= 3 | S(rot)=       0.01695181 Eh     10.64 kcal/mol|
|  sn= 4 | S(rot)=       0.01668018 Eh     10.47 kcal/mol|
|  sn= 5 | S(rot)=       0.01646950 Eh     10.33 kcal/mol|
|  sn= 6 | S(rot)=       0.01629735 Eh     10.23 kcal/mol|
|  sn= 7 | S(rot)=       0.01615181 Eh     10.14 kcal/mol|
|  sn= 8 | S(rot)=       0.01602573 Eh     10.06 kcal/mol|
|  sn= 9 | S(rot)=       0.01591452 Eh      9.99 kcal/mol|
|  sn=10 | S(rot)=       0.01581504 Eh      9.92 kcal/mol|
|  sn=11 | S(rot)=       0.01572505 Eh      9.87 kcal/mol|
|  sn=12 | S(rot)=       0.01564290 Eh      9.82 kcal/mol|
 linear molecules ---------------------------------------
|  Dinfh | S(rot)=       0.01130382 Eh      7.09 kcal/mol|
|  Cinfv | S(rot)=       0.01195828 Eh      7.50 kcal/mol|
 --------------------------------------------------------


-------------------
GIBBS FREE ENERGY
-------------------

The Gibbs free energy is G = H - T*S

Total enthalpy                    ...  -2031.91234344 Eh 
Total entropy correction          ...     -0.11263721 Eh    -70.68 kcal/mol
-----------------------------------------------------------------------
Final Gibbs free energy         ...  -2032.02498065 Eh

For completeness - the Gibbs free energy minus the electronic energy
G-E(el)                           ...      0.61027441 Eh    382.95 kcal/mol


Maximum memory used throughout the entire PROP-calculation: 1817.6 MB
--------------------------------------------------------------------------
WARNING: There was an error initializing an OpenFabrics device.

  Local host:   c08b01n04
  Local device: mlx5_0
--------------------------------------------------------------------------
[c08b01n04:3722738] 63 more processes have sent help message help-mpi-btl-openib.txt / error in device init
[c08b01n04:3722738] Set MCA parameter "orte_base_help_aggregate" to 0 to see all help / error messages

--------------------------------
SUGGESTED CITATIONS FOR THIS RUN
--------------------------------

Below you find a list of papers that are relevant to this ORCA run
We neither can nor want to force you to cite these papers, but we appreciate if you do
You receive ORCA, which is the product of decades of hard work by many enthusiastic individuals, for free
The only thing we kindly ask in return is that you cite our papers,
We deeply appreciate it, if you show your appreciation for ORCA by not just citing the generic ORCA reference.

Please note that relegating all ORCA citations to the supporting information does *not* help us.
SI sections are not indexed - citations you put there will not count into any citation statistics
But we need these citations in order to attract the funding resources that allow us to do what we are doing

Therefore, if you are a happy ORCA user, please consider citing a few of the papers listed below in the main body of your paper

In addition to the list printed below, the program has created the file opt-conf-2.bibtex that contains the list in bibtex format
You can import this file easily into all common literature databanks and citation aid programs


List of essential papers. We consider these as the minimum necessary citations

  1. Neese, F.
     Software update: the ORCA program system, version 6.0
     WIRES Comput. Molec. Sci. 2025 15(1), e70019
     doi.org/10.1002/wcms.7019

List of papers to cite with high priority. The work reported in these papers was absolutely
necessary for this run to complete.
Our perspective: the developers of density functionals and basis sets usually get cited in chemistry papers
Good! But without the algorithms to do something with them, the functionals or basis sets would not do anything.
Hence, in our opinion, the algorithm design and method developments papers are equally worthy of getting cited

  1. Neese, F.
     An improvement of the resolution of the identity approximation for the formation of the Coulomb matrix
     J. Comp. Chem. 2003 24(14), 1740-1747
     doi.org/10.1002/jcc.10318
  2. Neese, F.; Wennmohs, F.; Hansen, A.; Becker, U.
     Efficient, approximate and parallel Hartree-Fock and hybrid DFT calculations. A 'chain-of-spheres' algorithm for the Hartree-Fock exchange
     Chem. Phys. 2009 356(1-3), 98-109
     doi.org/10.1016/j.chemphys.2008.10.036
  3. Bykov, D.; Petrenko, T.; Izsak, R.; Kossmann, S.; Becker, U.; Valeev, E.; Neese, F.
     Efficient implementation of the analytic second derivatives of Hartree-Fock and hybrid DFT energies: a detailed analysis of different approximations
     Molec. Phys. 2015 113 , 1961-1977
     doi.org/10.1080/00268976.2015.1025114
  4. Caldeweyher, E.; Bannwarth, C.; Grimme, S.
     Extension of the D3 dispersion coefficient model
     J. Chem. Phys. 2017 147 , 034112
     doi.org/10.1063/1.4993215
  5. Caldeweyher, E.; Ehlert, S.; Hansen, A.; Neugebauer, H.; Spicher, S.; Bannwarth, C.; Grimme, S.
     A generally applicable atomic-charge dependent London dispersion correction
     J. Chem. Phys. 2019 150 , 154122
     doi.org/10.1063/1.5090222
  6. Garcia-Rates, M.; Neese, F.
     Efficient implementation of the analytical second derivatives of hartree-fock and hybrid DFT energies within the framework of the conductor-like polarizable continuum model
     J. Comput. Chem. 2019 40 , 1816-1828
     doi.org/10.1002/jcc.25833
  7. Caldeweyher, E.; Mewes, J.; Ehlert, S.; Grimme, S.
     Extension and evaluation of the D4 London-dispersion model for periodic systems
     Phys. Chem. Chem. Phys. 2020 22(16), 8499-8512
     doi.org/10.1039/D0CP00502A
  8. Garcia-Rates, M.; Neese, F.
     Effect of the Solute Cavity on the Solvation Energy and its Derivatives within the Framework of the Gaussian Charge Scheme
     J. Comput. Chem. 2020 41 , 922-939
     doi.org/10.1002/jcc.26139
  9. Helmich-Paris, B.; de Souza, B.; Neese, F.; Izsák, R.
     An improved chain of spheres for exchange algorithm
     J. Chem. Phys. 2021 155(10), 104109
     doi.org/10.1063/5.0058766
 10. Neese, F.
     The SHARK Integral Generation and Digestion System
     J. Comp. Chem. 2022 44(3), 381
     doi.org/10.1002/jcc.26942
 11. Wittmann, L.; Gordiy, I.; Friede, M.; Helmich-Paris, B.; Grimme, S.; Hansen, A.; Bursch, M.
     Extension of the D3 and D4 London Dispersion Corrections to the full Actinides Series
     Phys. Chem. Chem. Phys. 2024 26(32), 21379-21394
     doi.org/10.1039/D4CP01514B

List of suggested additional citations. These are papers that are important in the 'surrounding' of 
of this run, or papers that preceded the highly important papers. If you like your results we are grateful for a citation.

  1. Izsak, R.; Neese, F.
     An overlap fitted chain of spheres exchange method
     J. Chem. Phys. 2011 135 , 144105
     doi.org/10.1063/1.3646921
  2. Izsak, R.; Hansen, A.; Neese, F.
     The resolution of identity and chain of spheres approximations for the LPNO-CCSD singles Fock term
     Molec. Phys. 2012 110 , 2413-2417
     doi.org/10.1080/00268976.2012.687466
  3. Neese, F.
     The ORCA program system
     WIRES Comput. Molec. Sci. 2012 2(1), 73-78
     doi.org/10.1002/wcms.81
  4. Izsak, R.; Neese, F.; Klopper, W.
     Robust fitting techniques in the chain of spheres approximation to the Fock exchange: The role of the complementary space
     J. Chem. Phys. 2013 139 , 
     doi.org/10.1063/1.4819264
  5. Neese, F.
     Software update: the ORCA program system, version 4.0
     WIRES Comput. Molec. Sci. 2018 8(1), 1-6
     doi.org/10.1002/wcms.1327
  6. Neese, F.; Wennmohs, F.; Becker, U.; Riplinger, C.
     The ORCA quantum chemistry program package
     J. Chem. Phys. 2020 152(22), 224108
     doi.org/10.1063/5.0004608
  7. Neese, F.
     Software update: The ORCA program system—Version 5.0
     WIRES Comput. Molec. Sci. 2022 12(1), e1606
     doi.org/10.1002/wcms.1606

List of optional additional citations

  1. Neese, F.
     Approximate second-order SCF convergence for spin unrestricted wavefunctions
     Chem. Phys. Lett. 2000 325(1-3), 93-98
     doi.org/10.1016/s0009-2614(00)00662-x

Timings for individual modules:

Sum of individual times          ...    18439.082 sec (= 307.318 min)
Startup calculation              ...     1692.397 sec (=  28.207 min)   9.2 %
SCF iterations                   ...    10211.463 sec (= 170.191 min)  55.4 %
Property integrals               ...     1516.904 sec (=  25.282 min)   8.2 %
SCF Response                     ...     3109.602 sec (=  51.827 min)  16.9 %
Property calculations            ...      784.409 sec (=  13.073 min)   4.3 %
SCF Gradient evaluation          ...     1117.417 sec (=  18.624 min)   6.1 %
Geometry relaxation              ...        6.891 sec (=   0.115 min)   0.0 %
                             ****ORCA TERMINATED NORMALLY****
TOTAL RUN TIME: 0 days 5 hours 13 minutes 22 seconds 931 msec
