
                                 *****************
                                 * O   R   C   A *
                                 *****************

                                            #,                                       
                                            ###                                      
                                            ####                                     
                                            #####                                    
                                            ######                                   
                                           ########,                                 
                                     ,,################,,,,,                         
                               ,,#################################,,                 
                          ,,##########################################,,             
                       ,#########################################, ''#####,          
                    ,#############################################,,   '####,        
                  ,##################################################,,,,####,       
                ,###########''''           ''''###############################       
              ,#####''   ,,,,##########,,,,          '''####'''          '####       
            ,##' ,,,,###########################,,,                        '##       
           ' ,,###''''                  '''############,,,                           
         ,,##''                                '''############,,,,        ,,,,,,###''
      ,#''                                            '''#######################'''  
     '                                                          ''''####''''         
             ,#######,   #######,   ,#######,      ##                                
            ,#'     '#,  ##    ##  ,#'     '#,    #''#        ,####,    ,#,          
            ##       ##  ##   ,#'  ##            #'  '#       #'       ,# #          
            ##       ##  #######   ##           ,######,      #####,      #          
            '#,     ,#'  ##    ##  '#,     ,#' ,#      #,     #,   #      #          
             '#######'   ##     ##  '#######'  #'      '#     '####' #    #          



                #########################################################
                #                        -***-                          #
                #          Department of theory and spectroscopy        #
                #                                                       #
                #                      Frank Neese                      #
                #                                                       #
                #     Directorship, Architecture, Infrastructure        #
                #                    SHARK, DRIVERS                     #
                #        Core code/Algorithms in most modules           #
                #                                                       #
                #        Max Planck Institute fuer Kohlenforschung      #
                #                Kaiser Wilhelm Platz 1                 #
                #                 D-45470 Muelheim/Ruhr                 #
                #                      Germany                          #
                #                                                       #
                #                  All rights reserved                  #
                #                        -***-                          #
                #########################################################


                         Program Version 6.1.0-f.0  -   RELEASE   -


 With contributions from (in alphabetic order):
[Max-Planck-Institut fuer Kohlenforschung]                               
  Daniel Aravena         : Magnetic Suceptibility                        
  Michael Atanasov       : Ab Initio Ligand Field Theory (pilot matlab implementation)
  Alexander A. Auer      : GIAO ZORA, VPT2 properties, NMR spectrum      
  Ute Becker             : All parallelization in ORCA, NUMFREQ, NUMCALC 
  Giovanni Bistoni       : ED, misc. LED, open-shell LED, HFLD           
  Dmytro Bykov           : pre 5.0 version of the SCF Hessian            
  Marcos Casanova-Páez   : Triplet and SCS-CIS(D). UHF-(DLPNO)-IP/EA/STEOM-CCSD. UHF-CVS-IP/STEOM-CCSD   
  Vijay G. Chilkuri      : MRCI spin determinant printing, contributions to CSF-ICE 
  Pauline Colinet        : FMM embedding                                 
  Dipayan Datta          : RHF DLPNO-CCSD density                        
  Achintya Kumar Dutta   : EOM-CC, STEOM-CC                              
  Nicolas Foglia         : Exact transition moments, OPA infrastructure, MCD improvements    
  Dmitry Ganyushin       : Spin-Orbit,Spin-Spin,Magnetic field MRCI      
  Miquel Garcia-Rates    : C-PCM and meta-GGA Hessian, CCSD/C-PCM, Gaussian charge scheme 
  Tiago L. C. Gouveia    : GS-ROHF, GS-ROCIS                             
  Yang Guo               : DLPNO-NEVPT2, F12-NEVPT2, CIM, IAO-localization        
  Andreas Hansen         : Spin unrestricted coupled pair/coupled cluster methods 
  Ingolf Harden          : AUTO-CI MPn and infrastructure                
  Benjamin Helmich-Paris : MC-RPA, TRAH-(SCF,CASSCF), AVAS, COSX integrals, SCF dyn. polar., MC-PDFT, srDFT 
  Lee Huntington         : MR-EOM, pCC                                   
  Robert Izsak           : Overlap fitted RIJCOSX, COSX-SCS-MP3, EOM     
  Riya Kayal             : Wick's Theorem for AUTO-CI, AUTO-CI UHF-CCSDT 
  Emily Kempfer          : AUTO-CI RHF CISDT and CCSDT, approximate NEVPT4
  Christian Kollmar      : KDIIS, OOCD, Brueckner-CCSD(T), CCSD density, CASPT2, CASPT2-K, improved NEVPT2 
  Axel Koslowski         : Symmetry handling                             
  Simone Kossmann        : meta-GGA functionals, TD-DFT gradient, OOMP2, (MP2 Hessian; deprecated post 5.0) 
  Lucas Lang             : DCDCAS, Hyperfine gauge corrections, ICE-SOC+SSC
  Marvin Lechner         : AUTO-CI (C++ implementation), FIC-MRCC        
  Spencer Leger          : CASSCF response                               
  Dagmar Lenk            : GEPOL surface, SMD, ORCA-2-JSON               
  Dimitrios Liakos       : Extrapolation schemes; Compound Job, Property file
  Dimitrios Manganas     : Further ROCIS development; embedding schemes. LFT, Crystal Embedding 
  Dimitrios Pantazis     : SARC Basis sets                               
  Anastasios Papadopoulos: AUTO-CI, single reference methods and gradients 
  Taras Petrenko         : pre 6.0 DFT Hessian and TD-DFT gradient,  ECA, NRVS 
  Petra Pikulova         : Analytic Raman intensities                    
  Peter Pinski           : DLPNO-MP2, DLPNO-MP2 Gradient                 
  Shashank Vittal Rao    : ES-AILFT, MagRelax                            
  Christoph Reimann      : Effective Core Potentials                     
  Marius Retegan         : Local ZFS, SOC                                
  Christoph Riplinger    : Optimizer, TS searches, QM/MM, DLPNO-CCSD(T), (RO)-DLPNO pert. Triples 
  Michael Roemelt        : Original ROCIS implementation, recursive CI coupling coefficients
  Masaaki Saitow         : Open-shell DLPNO-CCSD energy and density      
  Barbara Sandhoefer     : DKH picture change effects                    
  Yorick L. A. Schmerwitz: GMF and freeze-and-release deltaSCF, NEB S-IDPP initial path                    
  Kantharuban Sivalingam : CASSCF convergence/infrastructure, NEVPT2, NEVPT3, NEVPT4(SD), FIC-MRCI and CEPA variants
  Bernardo de Souza      : ESD, SOC TD-DFT                               
  Georgi L. Stoychev     : AutoAux, RI-MP2 NMR, DLPNO-MP2 response, X2C  
  Van Anh Tran           : RI-MP2 g-tensors                              
  Willem Van den Heuvel  : Paramagnetic NMR                              
  Zikuan Wang            : NOTCH, Electric field optimization            
  Frank Wennmohs         : Technical directorship and infrastructure     
  Hang Xu                : AUTO-CI-Response properties                   
                                                                         
[FACCTs GmbH]                                                            
  Markus Bursch, Nicolas Foglia, Miquel Garcia-Rates, Ingolf Harden, Hagen Neugebauer, Anastasios Papadopoulos, 
  Christoph Riplinger, Bernardo de Souza, Georgi L. Stoychev                                                    
                                                                 
  APM, various basis sets, CI-OPT, improved COSX, DLPNO-Multilevel,           
  DOCKER, DRACO, updates on ESD, Fragmentator, GOAT, IRC, LR-CPCM, L-BFGS, MBIS, meta-GGA TD-DFT gradient, ML-optimized integration grids, 
  MM, NACMEs, nearIR, NEB, NEB-TS, NL-DFT gradient (VV10), 2- and 3-layer-ONIOM, interface openCOSMO-RS, QMMM,   
  Crystal-QMMM, RESP, rigid body optimization, SF, symmetry and pop. for TD-DFT, various functionals, SOLVATOR                                   
                                                                         
[Other institutions]                                                     
  V. Asgeirsson          : NEB                                           
  Christoph Bannwarth    : sTDA-DFT, sTD-DFT, PBEh-3c, B97-3c, D3        
  Giovanni Bistoni       : ETS/NOCV, ADLD/ADEX, COVALED                  
  Martin Brehm           : Molecular dynamics                            
  Ronald Cardenas        : ETS/NOCV                                      
  Martina Colucci        : COVALED                                       
  Sebastian Ehlert       : rSCAN, r2SCAN, r2SCAN-3c, D4, dhf basis sets  
  Marvin Friede          : D4 for Fr, Ra, Ac-Lr                          
  Lars Goerigk           : TD-DFT with DH, B97 family of functionals     
  Stefan Grimme          : VdW corrections, initial TS optimization, DFT functionals, gCP, sTDA/sTD-DF 
  Waldemar Hujo          : DFT-NL                                        
  H. Jonsson             : NEB                                           
  Holger Kruse           : gCP                                           
  Marcel Mueller         : wB97X-3c, vDZP basis set                      
  Hagen Neugebauer       : wr2SCAN, Native XTB                           
  Gianluca Regni         : ADLD/ADEX                                     
  Tobias Risthaus        : pre 6.0 range-separated hybrid DFT and stability analysis
  Lukas Wittmann         : regularized MP2, r2SCAN double-hybrids, wr2SCAN        
                                                                         
We gratefully acknowledge several colleagues who have allowed us to      
interface, adapt or use parts of their codes:                            
  Ed Valeev, F. Pavosevic, A. Kumar             : LibInt (2-el integral package), F12 methods 
  Garnet Chan, S. Sharma, J. Yang, R. Olivares  : DMRG                   
  Ulf Ekstrom                                   : XCFun DFT Library      
  Mihaly Kallay                                 : mrcc  (arbitrary order and MRCC methods)
  Frank Weinhold                                : gennbo (NPA and NBO analysis)           
  Simon Mueller                                 : openCOSMO-RS                            
  Christopher J. Cramer and Donald G. Truhlar   : smd solvation model                     
  S Lehtola, MJT Oliveira, MAL Marques          : LibXC Library                           
  Liviu Ungur et al                             : ANISO software                          


 Your calculation uses the libint2 library for the computation of 2-el integrals
 For citations please refer to: http://libint.valeyev.net

 Your ORCA version has been built with support for libXC version: 7.0.0
 For citations please refer to: https://libxc.gitlab.io

 This ORCA versions uses:
   CBLAS   interface :  Fast vector & matrix operations
   LAPACKE interface :  Fast linear algebra routines
   SCALAPACK package :  Parallel linear algebra routines
   Shared memory     :  Shared parallel matrices
   BLAS/LAPACK       :  OpenBLAS 0.3.29  USE64BITINT DYNAMIC_ARCH NO_AFFINITY Cooperlake SINGLE_THREADED
        Core in use  :  Cooperlake
   Copyright (c) 2011-2014, The OpenBLAS Project


  ***********************************
  * Starting time: Wed Mar  4 07:27:44 2026
  * Host name:     c07b01n01
  * Process ID:    3872932
  * Working dir.:  /lustre1/jiangy/jiangy_liuxy/NMR/B9D7C2-SRSR
  ***********************************

NOTE: MaxCore=6000 MB was set to SCF,MP2,MDCI,CIPSI,MRCI,RASCI and CIS
      => If you want to overwrite this, your respective input block should be placed after the MaxCore statement


***************************************
The coordinates will be read from file: conf-11.xyz
***************************************


Your calculation utilizes the atom-pairwise dispersion correction
based on EEQ partial charges (D4)


Warning: RI is on but no J-basis has been assigned. Assigning Def2/J (nothing to worry about!)
================================================================================

----- Orbital basis set information -----
Your calculation utilizes the basis: def2-TZVP
   F. Weigend and R. Ahlrichs, Phys. Chem. Chem. Phys. 7, 3297 (2005).

----- AuxJ basis set information -----
Your calculation utilizes the auxiliary basis: def2/J
   H-Rn: F. Weigend, Phys. Chem. Chem. Phys. 8, 1057 (2006).
   Fr-Lr: K. Eichkorn, F. Weigend, O. Treutler, R. Ahlrichs; Theor. Chem. Acc. 97, 119 (1997).

================================================================================
                                        WARNINGS
                       Please study these warnings very carefully!
================================================================================


WARNING: Geometry Optimization
  ===> : Switching off AutoStart
         For restart on a previous wavefunction, please use MOREAD

================================================================================
                                       INPUT FILE
================================================================================
NAME = opt-conf-11.inp
|  1> ! B3LYP OPT FREQ DEF2-TZVP D4 CPCM(Methanol) 
|  2> ! TightOpt
|  3> %pal nprocs 64 end
|  4> %maxcore 6000
|  5> 
|  6> %cpcm
|  7> end
|  8> 
|  9> %freq
| 10>    Temp 298.15
| 11> end
| 12> 
| 13> * xyzfile 0 1 conf-11.xyz
| 14> 
| 15> 
| 16>                          ****END OF INPUT****
================================================================================

                       *****************************
                       * Geometry Optimization Run *
                       *****************************

Geometry optimization settings:
Update method            Update   .... BFGS
Choice of coordinates    CoordSys .... (2022) Redundant Internals
Initial Hessian          InHess   .... Almloef's Model
Max. no of cycles        MaxIter  .... 246

Convergence Tolerances:
Energy Change            TolE     ....  1.0000e-06 Eh
Max. Gradient            TolMAXG  ....  1.0000e-04 Eh/bohr
RMS Gradient             TolRMSG  ....  3.0000e-05 Eh/bohr
Max. Displacement        TolMAXD  ....  1.0000e-03 bohr
RMS Displacement         TolRMSD  ....  6.0000e-04 bohr
Strict Convergence                .... False

------------------------------------------------------------------------------
                        ORCA OPTIMIZATION COORDINATE SETUP
------------------------------------------------------------------------------

The optimization will be done in redundant internal coordinates (2022)
Making redundant internal coordinates   ...  (2022 redundants) done
Evaluating the initial hessian          ...  (Almloef) done
Evaluating the coordinates              ...  done
Calculating the B-matrix                .... done
Calculating the G-matrix                .... done
The number of degrees of freedom        ....  405

    -----------------------------------------------------------------
                    Redundant Internal Coordinates


    -----------------------------------------------------------------
         Definition                    Initial Value    Approx d2E/dq
    -----------------------------------------------------------------
      1. B(C   1,C   0)                  1.4004         0.601354   
      2. B(C   2,C   1)                  1.4047         0.591844   
      3. B(C   3,C   2)                  1.3874         0.630761   
      4. B(C   4,C   3)                  1.3856         0.635092   
      5. B(C   5,C   4)                  1.3854         0.635522   
      6. B(C   5,C   0)                  1.3888         0.627507   
      7. B(C   6,C   4)                  1.5024         0.413413   
      8. B(C   7,C   6)                  1.5353         0.366411   
      9. B(C   8,C   7)                  1.5407         0.359164   
     10. B(C   9,C   8)                  1.5373         0.363626   
     11. B(C  10,C   9)                  1.5045         0.410235   
     12. B(C  11,C  10)                  1.3933         0.617159   
     13. B(C  12,C  11)                  1.3815         0.644719   
     14. B(C  13,C  12)                  1.4053         0.590648   
     15. B(C  14,C  13)                  1.3823         0.642633   
     16. B(C  15,C  10)                  1.3854         0.635339   
     17. B(C  15,C  14)                  1.3862         0.633552   
     18. B(C  16,C   7)                  1.5357         0.365885   
     19. B(C  17,C   8)                  1.5357         0.365813   
     20. B(O  18,C   2)                  1.3635         0.616912   
     21. B(O  19,C   0)                  1.3696         0.603075   
     22. B(O  20,C   1)                  1.3743         0.592723   
     23. B(O  21,C  13)                  1.3614         0.621499   
     24. B(O  22,C  12)                  1.3792         0.582243   
     25. B(C  23,O  20)                  1.4176         0.505549   
     26. B(C  24,C  23)                  1.5445         0.354184   
     27. B(C  25,C  24)                  1.5085         0.404274   
     28. B(C  26,C  23)                  1.5338         0.368335   
     29. B(O  27,C  26)                  1.4012         0.536967   
     30. B(C  28,C  25)                  1.3923         0.619574   
     31. B(C  29,C  28)                  1.3810         0.645694   
     32. B(C  30,C  29)                  1.4038         0.593953   
     33. B(C  31,C  30)                  1.3822         0.643074   
     34. B(C  32,C  31)                  1.3848         0.636744   
     35. B(C  32,C  25)                  1.3835         0.639812   
     36. B(C  33,O  19)                  1.4073         0.525126   
     37. B(C  34,O  18)                  1.4057         0.528294   
     38. B(C  35,O  22)                  1.4077         0.524342   
     39. B(O  36,C  24)                  1.4154         0.509712   
     40. B(O  37,C  16)                  1.4082         0.523336   
     41. B(O  38,C  17)                  1.4061         0.527405   
     42. B(O  39,C  29)                  1.3733         0.594998   
     43. B(O  40,C  30)                  1.3681         0.606588   
     44. B(C  41,O  39)                  1.4094         0.521068   
     45. B(H  42,C   3)                  1.0778         0.376602   
     46. B(H  43,C   5)                  1.0777         0.376785   
     47. B(H  44,C   6)                  1.0914         0.358314   
     48. B(H  45,C   6)                  1.0900         0.360058   
     49. B(H  46,C   7)                  1.0969         0.351045   
     50. B(H  47,C   8)                  1.0969         0.351069   
     51. B(H  48,C   9)                  1.0915         0.358069   
     52. B(H  49,C   9)                  1.0945         0.354155   
     53. B(H  50,C  11)                  1.0773         0.377344   
     54. B(H  51,C  14)                  1.0784         0.375711   
     55. B(H  52,C  15)                  1.0802         0.373357   
     56. B(H  53,C  16)                  1.0914         0.358274   
     57. B(H  54,C  16)                  1.0979         0.349822   
     58. B(H  55,C  17)                  1.0915         0.358158   
     59. B(H  56,C  17)                  1.1021         0.344455   
     60. B(H  57,O  21)                  0.9671         0.506539   
     61. B(H  57,O  22)                  2.1120         0.010000   
     62. B(H  58,C  23)                  1.0944         0.354318   
     63. B(H  59,C  24)                  1.1017         0.344976   
     64. B(H  60,C  26)                  1.0900         0.360120   
     65. B(H  61,C  26)                  1.0994         0.347888   
     66. B(H  62,O  20)                  2.2960         0.010000   
     67. B(H  62,O  27)                  0.9659         0.508804   
     68. B(H  63,C  28)                  1.0781         0.376237   
     69. B(H  64,C  31)                  1.0778         0.376544   
     70. B(H  65,C  32)                  1.0789         0.375069   
     71. B(H  66,C  33)                  1.0944         0.354314   
     72. B(H  67,C  33)                  1.0896         0.360631   
     73. B(H  68,C  33)                  1.0948         0.353834   
     74. B(H  69,C  34)                  1.0947         0.353956   
     75. B(H  70,H  64)                  4.2144         0.010000   
     76. B(H  70,C  34)                  1.0954         0.352972   
     77. B(H  71,C  34)                  1.0891         0.361354   
     78. B(H  72,C  35)                  1.0888         0.361701   
     79. B(H  73,H  64)                  4.9609         0.010000   
     80. B(H  73,C  35)                  1.0940         0.354892   
     81. B(H  74,C  35)                  1.0940         0.354823   
     82. B(H  75,O  36)                  0.9638         0.512805   
     83. B(H  76,O  40)                  1.9771         0.012397   
     84. B(H  76,O  37)                  0.9697         0.501807   
     85. B(H  77,O  38)                  0.9645         0.511416   
     86. B(H  78,O  39)                  2.1032         0.010000   
     87. B(H  78,O  40)                  0.9688         0.503428   
     88. B(H  79,O  21)                  2.3678         0.010000   
     89. B(H  79,C  41)                  1.0886         0.362005   
     90. B(H  80,H  68)                  2.4765         0.010000   
     91. B(H  80,C  41)                  1.0927         0.356521   
     92. B(H  81,C  41)                  1.0942         0.354589   
     93. A(C   1,C   0,O  19)          117.4255         0.426747   
     94. A(C   5,C   0,O  19)          123.1508         0.430017   
     95. A(C   1,C   0,C   5)          119.4232         0.432624   
     96. A(C   0,C   1,O  20)          125.1410         0.425426   
     97. A(C   0,C   1,C   2)          119.1007         0.428103   
     98. A(C   2,C   1,O  20)          115.5328         0.424214   
     99. A(C   3,C   2,O  18)          124.5891         0.432174   
    100. A(C   1,C   2,C   3)          120.4176         0.431788   
    101. A(C   1,C   2,O  18)          114.9928         0.427263   
    102. A(C   4,C   3,H  42)          118.9986         0.357054   
    103. A(C   2,C   3,H  42)          120.7290         0.356639   
    104. A(C   2,C   3,C   4)          120.2722         0.437303   
    105. A(C   5,C   4,C   6)          119.2019         0.405589   
    106. A(C   3,C   4,C   6)          121.3451         0.405540   
    107. A(C   3,C   4,C   5)          119.4444         0.437897   
    108. A(C   4,C   5,H  43)          118.4385         0.357125   
    109. A(C   0,C   5,H  43)          120.2422         0.356356   
    110. A(C   0,C   5,C   4)          121.3108         0.436949   
    111. A(C   4,C   6,H  44)          108.7115         0.329507   
    112. A(C   7,C   6,H  45)          109.4252         0.323284   
    113. A(C   4,C   6,C   7)          110.6767         0.368489   
    114. A(H  44,C   6,H  45)          108.5964         0.290607   
    115. A(C   4,C   6,H  45)          110.3485         0.329772   
    116. A(C   7,C   6,H  44)          109.0398         0.323026   
    117. A(C   6,C   7,C  16)          110.1117         0.360869   
    118. A(C   8,C   7,C  16)          110.6912         0.359642   
    119. A(C  16,C   7,H  46)          106.7957         0.321867   
    120. A(C   8,C   7,H  46)          106.7729         0.320892   
    121. A(C   6,C   7,H  46)          107.8991         0.321943   
    122. A(C   6,C   7,C   8)          114.2104         0.359730   
    123. A(C   7,C   8,C  17)          114.4803         0.359630   
    124. A(C  17,C   8,H  47)          107.2579         0.321861   
    125. A(C   7,C   8,C   9)          111.3739         0.359263   
    126. A(C   9,C   8,H  47)          108.5879         0.321545   
    127. A(C   7,C   8,H  47)          106.0158         0.320896   
    128. A(C   9,C   8,C  17)          108.8693         0.360388   
    129. A(H  48,C   9,H  49)          107.2145         0.289823   
    130. A(C  10,C   9,H  48)          109.1780         0.329050   
    131. A(C  10,C   9,H  49)          108.5907         0.328454   
    132. A(C   8,C   9,C  10)          113.9082         0.367520   
    133. A(C   8,C   9,H  48)          109.2975         0.322586   
    134. A(C   8,C   9,H  49)          108.4373         0.322006   
    135. A(C   9,C  10,C  11)          120.1933         0.402946   
    136. A(C  11,C  10,C  15)          118.7755         0.435620   
    137. A(C   9,C  10,C  15)          121.0182         0.405016   
    138. A(C  10,C  11,C  12)          120.7239         0.436771   
    139. A(C  10,C  11,H  50)          119.2244         0.355441   
    140. A(C  12,C  11,H  50)          120.0516         0.358088   
    141. A(C  11,C  12,C  13)          119.9621         0.433332   
    142. A(C  13,C  12,O  22)          114.5528         0.422711   
    143. A(C  11,C  12,O  22)          125.4851         0.429393   
    144. A(C  12,C  13,O  21)          120.1693         0.427676   
    145. A(C  12,C  13,C  14)          119.2819         0.433080   
    146. A(C  14,C  13,O  21)          120.5485         0.434204   
    147. A(C  13,C  14,H  51)          118.6673         0.357627   
    148. A(C  13,C  14,C  15)          120.1526         0.438584   
    149. A(C  15,C  14,H  51)          121.1764         0.356763   
    150. A(C  14,C  15,H  52)          119.1525         0.356383   
    151. A(C  10,C  15,H  52)          119.7735         0.356553   
    152. A(C  10,C  15,C  14)          121.0616         0.437682   
    153. A(O  37,C  16,H  54)          110.7326         0.339241   
    154. A(C   7,C  16,H  54)          108.4648         0.321684   
    155. A(O  37,C  16,H  53)          106.3988         0.340597   
    156. A(C   7,C  16,H  53)          110.4478         0.322944   
    157. A(C   7,C  16,O  37)          112.3237         0.381288   
    158. A(H  53,C  16,H  54)          108.4055         0.289290   
    159. A(O  38,C  17,H  56)          109.7557         0.338804   
    160. A(C   8,C  17,O  38)          114.3254         0.381788   
    161. A(H  55,C  17,H  56)          107.7705         0.288576   
    162. A(C   8,C  17,H  56)          108.3188         0.320860   
    163. A(O  38,C  17,H  55)          105.4993         0.341020   
    164. A(C   8,C  17,H  55)          110.9792         0.322917   
    165. A(C   2,O  18,C  34)          118.3057         0.415965   
    166. A(C   0,O  19,C  33)          118.3002         0.413847   
    167. A(C   1,O  20,C  23)          120.7655         0.409806   
    168. A(C  13,O  21,H  57)          107.5595         0.368610   
    169. A(C  12,O  22,C  35)          118.0244         0.411164   
    170. A(C  26,C  23,H  58)          109.2331         0.322710   
    171. A(C  24,C  23,H  58)          109.3008         0.320647   
    172. A(O  20,C  23,H  58)          111.0321         0.338009   
    173. A(C  24,C  23,C  26)          110.7985         0.359196   
    174. A(O  20,C  23,C  26)          104.7501         0.379448   
    175. A(O  20,C  23,C  24)          111.6435         0.376884   
    176. A(C  23,C  24,O  36)          106.8041         0.377419   
    177. A(O  36,C  24,H  59)          110.3239         0.336967   
    178. A(C  25,C  24,H  59)          109.6195         0.326248   
    179. A(C  23,C  24,H  59)          107.7387         0.319250   
    180. A(C  25,C  24,O  36)          111.6233         0.386184   
    181. A(C  23,C  24,C  25)          110.6276         0.364950   
    182. A(C  28,C  25,C  32)          119.8129         0.436477   
    183. A(C  24,C  25,C  32)          121.7908         0.404471   
    184. A(C  24,C  25,C  28)          118.3951         0.402184   
    185. A(O  27,C  26,H  61)          110.6520         0.340386   
    186. A(H  60,C  26,H  61)          109.4370         0.289272   
    187. A(C  23,C  26,H  61)          108.4094         0.321743   
    188. A(O  27,C  26,H  60)          107.3665         0.342360   
    189. A(C  23,C  26,H  60)          109.7085         0.323571   
    190. A(C  23,C  26,O  27)          111.2521         0.383438   
    191. A(C  26,O  27,H  62)          106.6402         0.359783   
    192. A(C  29,C  28,H  63)          121.2628         0.358002   
    193. A(C  25,C  28,H  63)          118.4092         0.355499   
    194. A(C  25,C  28,C  29)          120.3278         0.437198   
    195. A(C  30,C  29,O  39)          114.8144         0.424775   
    196. A(C  28,C  29,O  39)          125.6987         0.431184   
    197. A(C  28,C  29,C  30)          119.4863         0.433886   
    198. A(C  31,C  30,O  40)          120.3217         0.432365   
    199. A(C  29,C  30,O  40)          119.7229         0.426245   
    200. A(C  29,C  30,C  31)          119.9496         0.433568   
    201. A(C  32,C  31,H  64)          120.8680         0.357202   
    202. A(C  30,C  31,H  64)          119.0192         0.357804   
    203. A(C  30,C  31,C  32)          120.1078         0.439036   
    204. A(C  31,C  32,H  65)          119.8186         0.356964   
    205. A(C  25,C  32,H  65)          119.9286         0.357256   
    206. A(C  25,C  32,C  31)          120.2510         0.438634   
    207. A(H  67,C  33,H  68)          109.7467         0.290106   
    208. A(H  66,C  33,H  68)          109.2739         0.289303   
    209. A(O  19,C  33,H  68)          111.8018         0.340082   
    210. A(H  66,C  33,H  67)          109.0427         0.290168   
    211. A(O  19,C  33,H  67)          105.4618         0.341165   
    212. A(O  19,C  33,H  66)          111.4206         0.340159   
    213. A(H  69,C  34,H  71)          109.1995         0.290213   
    214. A(O  18,C  34,H  71)          105.6004         0.341623   
    215. A(H  69,C  34,H  70)          109.2847         0.289147   
    216. A(O  18,C  34,H  70)          111.6974         0.340285   
    217. A(O  18,C  34,H  69)          111.6845         0.340443   
    218. A(H  70,C  34,H  71)          109.2738         0.290086   
    219. A(H  73,C  35,H  74)          109.6815         0.289504   
    220. A(H  72,C  35,H  74)          109.2774         0.290368   
    221. A(O  22,C  35,H  74)          111.3165         0.340155   
    222. A(H  72,C  35,H  73)          109.5015         0.290377   
    223. A(O  22,C  35,H  73)          111.3544         0.340166   
    224. A(O  22,C  35,H  72)          105.6103         0.341249   
    225. A(C  24,O  36,H  75)          108.2219         0.357084   
    226. A(C  16,O  37,H  76)          107.6881         0.357369   
    227. A(C  17,O  38,H  77)          108.3777         0.358997   
    228. A(C  29,O  39,C  41)          118.0891         0.412289   
    229. A(C  30,O  40,H  78)          107.4247         0.366690   
    230. A(H  80,C  41,H  81)          109.3871         0.289682   
    231. A(H  79,C  41,H  81)          110.0152         0.290376   
    232. A(O  39,C  41,H  81)          111.0624         0.339762   
    233. A(H  79,C  41,H  80)          109.4432         0.290624   
    234. A(O  39,C  41,H  80)          111.5224         0.340071   
    235. A(O  39,C  41,H  79)          105.3370         0.340940   
    236. D(O  20,C   1,C   0,O  19)      4.5892         0.024936   
    237. D(C   2,C   1,C   0,O  19)    178.8755         0.024936   
    238. D(C   2,C   1,C   0,C   5)     -0.8835         0.024936   
    239. D(O  20,C   1,C   0,C   5)   -175.1697         0.024936   
    240. D(O  18,C   2,C   1,C   0)    179.1115         0.024113   
    241. D(C   3,C   2,C   1,C   0)     -0.6747         0.024113   
    242. D(C   3,C   2,C   1,O  20)    174.1488         0.024113   
    243. D(O  18,C   2,C   1,O  20)     -6.0649         0.024113   
    244. D(C   4,C   3,C   2,C   1)      1.2146         0.027590   
    245. D(H  42,C   3,C   2,O  18)      1.2783         0.027590   
    246. D(C   4,C   3,C   2,O  18)   -178.5501         0.027590   
    247. D(H  42,C   3,C   2,C   1)   -178.9570         0.027590   
    248. D(C   6,C   4,C   3,H  42)     -1.0803         0.027995   
    249. D(C   5,C   4,C   3,H  42)    179.9922         0.027995   
    250. D(C   5,C   4,C   3,C   2)     -0.1764         0.027995   
    251. D(C   6,C   4,C   3,C   2)    178.7510         0.027995   
    252. D(H  43,C   5,C   4,C   6)      0.6903         0.028035   
    253. D(H  43,C   5,C   4,C   3)    179.6409         0.028035   
    254. D(C   0,C   5,C   4,C   3)     -1.4201         0.028035   
    255. D(C   4,C   5,C   0,O  19)   -177.7962         0.027288   
    256. D(H  43,C   5,C   0,C   1)   -179.1317         0.027288   
    257. D(H  43,C   5,C   0,O  19)      1.1239         0.027288   
    258. D(C   0,C   5,C   4,C   6)    179.6293         0.028035   
    259. D(C   4,C   5,C   0,C   1)      1.9483         0.027288   
    260. D(H  45,C   6,C   4,C   3)     17.2433         0.012651   
    261. D(H  44,C   6,C   4,C   5)    -44.8324         0.012651   
    262. D(H  44,C   6,C   4,C   3)    136.2376         0.012651   
    263. D(C   7,C   6,C   4,C   5)     74.9013         0.012651   
    264. D(C   7,C   6,C   4,C   3)   -104.0287         0.012651   
    265. D(C   8,C   7,C   6,H  44)    -40.6750         0.010746   
    266. D(C   8,C   7,C   6,C   4)   -160.2114         0.010746   
    267. D(C  16,C   7,C   6,H  45)    -47.2820         0.010746   
    268. D(C  16,C   7,C   6,H  44)   -165.9295         0.010746   
    269. D(C   8,C   7,C   6,H  45)     77.9725         0.010746   
    270. D(C  16,C   7,C   6,C   4)     74.5341         0.010746   
    271. D(C  17,C   8,C   7,H  46)   -163.9117         0.010353   
    272. D(C  17,C   8,C   7,C  16)     80.2110         0.010353   
    273. D(C  17,C   8,C   7,C   6)    -44.7369         0.010353   
    274. D(C   9,C   8,C   7,C  16)   -155.7473         0.010353   
    275. D(C   9,C   8,C   7,H  46)    -39.8699         0.010353   
    276. D(C   9,C   8,C   7,C   6)     79.3048         0.010353   
    277. D(H  48,C   9,C   8,C  17)     59.5043         0.010594   
    278. D(H  48,C   9,C   8,C   7)    -67.6541         0.010594   
    279. D(C  10,C   9,C   8,H  47)    -61.6182         0.010594   
    280. D(C  10,C   9,C   8,C  17)   -178.0874         0.010594   
    281. D(H  48,C   9,C   8,H  47)    175.9734         0.010594   
    282. D(C  10,C   9,C   8,C   7)     54.7543         0.010594   
    283. D(C  15,C  10,C   9,H  48)     -4.9770         0.012464   
    284. D(C  15,C  10,C   9,C   8)   -127.4510         0.012464   
    285. D(C  11,C  10,C   9,H  49)    -67.0633         0.012464   
    286. D(C  11,C  10,C   9,H  48)    176.3485         0.012464   
    287. D(C  11,C  10,C   9,C   8)     53.8745         0.012464   
    288. D(H  50,C  11,C  10,C  15)    179.8011         0.026342   
    289. D(H  50,C  11,C  10,C   9)     -1.4949         0.026342   
    290. D(C  12,C  11,C  10,C  15)     -0.0888         0.026342   
    291. D(C  12,C  11,C  10,C   9)    178.6152         0.026342   
    292. D(O  22,C  12,C  11,H  50)     -1.5109         0.028909   
    293. D(C  13,C  12,C  11,H  50)    178.3915         0.028909   
    294. D(O  22,C  12,C  11,C  10)    178.3781         0.028909   
    295. D(C  13,C  12,C  11,C  10)     -1.7195         0.028909   
    296. D(O  21,C  13,C  12,C  11)   -177.5747         0.024011   
    297. D(C  14,C  13,C  12,O  22)   -177.8442         0.024011   
    298. D(C  14,C  13,C  12,C  11)      2.2431         0.024011   
    299. D(O  21,C  13,C  12,O  22)      2.3379         0.024011   
    300. D(H  51,C  14,C  13,O  21)     -0.4662         0.028709   
    301. D(H  51,C  14,C  13,C  12)    179.7167         0.028709   
    302. D(C  15,C  14,C  13,O  21)    178.8478         0.028709   
    303. D(C  15,C  14,C  13,C  12)     -0.9693         0.028709   
    304. D(H  52,C  15,C  14,H  51)     -0.2709         0.027851   
    305. D(H  52,C  15,C  14,C  13)   -179.5674         0.027851   
    306. D(C  10,C  15,C  14,H  51)    178.4440         0.027851   
    307. D(C  10,C  15,C  14,C  13)     -0.8525         0.027851   
    308. D(H  52,C  15,C  10,C  11)   -179.9064         0.028018   
    309. D(H  52,C  15,C  10,C   9)      1.4007         0.028018   
    310. D(C  14,C  15,C  10,C  11)      1.3867         0.028018   
    311. D(C  14,C  15,C  10,C   9)   -177.3063         0.028018   
    312. D(H  53,C  16,C   7,H  46)   -173.9434         0.010717   
    313. D(H  53,C  16,C   7,C   8)    -58.0803         0.010717   
    314. D(H  53,C  16,C   7,C   6)     69.1581         0.010717   
    315. D(O  37,C  16,C   7,H  46)    -55.3355         0.010717   
    316. D(O  37,C  16,C   7,C   8)     60.5276         0.010717   
    317. D(O  37,C  16,C   7,C   6)   -172.2339         0.010717   
    318. D(H  55,C  17,C   8,H  47)    175.1052         0.010713   
    319. D(H  55,C  17,C   8,C   9)    -67.5774         0.010713   
    320. D(H  55,C  17,C   8,C   7)     57.7895         0.010713   
    321. D(O  38,C  17,C   8,H  47)     55.9340         0.010713   
    322. D(O  38,C  17,C   8,C   9)    173.2514         0.010713   
    323. D(O  38,C  17,C   8,C   7)    -61.3817         0.010713   
    324. D(C  34,O  18,C   2,C   3)     -1.7987         0.027902   
    325. D(C  34,O  18,C   2,C   1)    178.4252         0.027902   
    326. D(C  33,O  19,C   0,C   5)      3.3467         0.026581   
    327. D(C  33,O  19,C   0,C   1)   -176.4025         0.026581   
    328. D(C  23,O  20,C   1,C   2)    135.5394         0.028260   
    329. D(C  23,O  20,C   1,C   0)    -49.9928         0.028260   
    330. D(H  57,O  21,C  13,C  14)   -179.2956         0.031289   
    331. D(H  57,O  21,C  13,C  12)      0.5198         0.031289   
    332. D(C  35,O  22,C  12,C  13)    177.7689         0.027204   
    333. D(C  35,O  22,C  12,C  11)     -2.3240         0.027204   
    334. D(H  58,C  23,O  20,C   1)     53.0012         0.021939   
    335. D(C  26,C  23,O  20,C   1)    170.7880         0.021939   
    336. D(C  24,C  23,O  20,C   1)    -69.2447         0.021939   
    337. D(O  36,C  24,C  23,H  58)     66.1119         0.010088   
    338. D(O  36,C  24,C  23,C  26)    -54.3111         0.010088   
    339. D(O  36,C  24,C  23,O  20)   -170.6532         0.010088   
    340. D(C  25,C  24,C  23,H  58)    -55.5556         0.010088   
    341. D(C  25,C  24,C  23,C  26)   -175.9786         0.010088   
    342. D(C  25,C  24,C  23,O  20)     67.6793         0.010088   
    343. D(C  32,C  25,C  24,O  36)    130.8734         0.012118   
    344. D(C  32,C  25,C  24,C  23)   -110.3430         0.012118   
    345. D(C  28,C  25,C  24,H  59)   -171.2698         0.012118   
    346. D(C  28,C  25,C  24,O  36)    -48.7256         0.012118   
    347. D(C  28,C  25,C  24,C  23)     70.0581         0.012118   
    348. D(H  60,C  26,C  23,H  58)    -60.7867         0.010852   
    349. D(H  60,C  26,C  23,C  24)     59.6766         0.010852   
    350. D(H  60,C  26,C  23,O  20)   -179.7935         0.010852   
    351. D(O  27,C  26,C  23,H  58)     57.8668         0.010852   
    352. D(O  27,C  26,C  23,C  24)    178.3301         0.010852   
    353. D(O  27,C  26,C  23,O  20)    -61.1401         0.010852   
    354. D(H  62,O  27,C  26,H  61)    -71.2486         0.022925   
    355. D(H  62,O  27,C  26,H  60)    169.3791         0.022925   
    356. D(H  62,O  27,C  26,C  23)     49.3291         0.022925   
    357. D(H  63,C  28,C  25,C  32)   -177.5728         0.026561   
    358. D(H  63,C  28,C  25,C  24)      2.0343         0.026561   
    359. D(C  29,C  28,C  25,C  32)      2.6044         0.026561   
    360. D(C  29,C  28,C  25,C  24)   -177.7885         0.026561   
    361. D(C  30,C  29,C  28,H  63)    179.1602         0.029002   
    362. D(C  30,C  29,C  28,C  25)     -1.0221         0.029002   
    363. D(O  39,C  29,C  28,H  63)     -0.5610         0.029002   
    364. D(O  39,C  29,C  28,C  25)    179.2567         0.029002   
    365. D(O  40,C  30,C  29,O  39)     -0.6697         0.024294   
    366. D(O  40,C  30,C  29,C  28)    179.5797         0.024294   
    367. D(C  31,C  30,C  29,O  39)    178.4609         0.024294   
    368. D(C  31,C  30,C  29,C  28)     -1.2896         0.024294   
    369. D(H  64,C  31,C  30,O  40)      1.9608         0.028751   
    370. D(H  64,C  31,C  30,C  29)   -177.1646         0.028751   
    371. D(C  32,C  31,C  30,O  40)   -178.8533         0.028751   
    372. D(C  32,C  31,C  30,C  29)      2.0213         0.028751   
    373. D(H  65,C  32,C  31,H  64)     -1.7488         0.028150   
    374. D(H  65,C  32,C  31,C  30)    179.0806         0.028150   
    375. D(C  25,C  32,C  31,H  64)    178.7343         0.028150   
    376. D(C  25,C  32,C  31,C  30)     -0.4363         0.028150   
    377. D(H  65,C  32,C  25,C  28)    178.6091         0.028441   
    378. D(H  65,C  32,C  25,C  24)     -0.9843         0.028441   
    379. D(C  31,C  32,C  25,C  28)     -1.8745         0.028441   
    380. D(C  31,C  32,C  25,C  24)    178.5321         0.028441   
    381. D(H  68,C  33,O  19,C   0)    -62.3099         0.021881   
    382. D(H  67,C  33,O  19,C   0)    178.4679         0.021881   
    383. D(H  66,C  33,O  19,C   0)     60.2933         0.021881   
    384. D(H  71,C  34,O  18,C   2)   -179.4229         0.022157   
    385. D(H  70,C  34,O  18,C   2)     61.8957         0.022157   
    386. D(H  69,C  34,O  18,C   2)    -60.8378         0.022157   
    387. D(H  74,C  35,O  22,C  12)     63.9134         0.023678   
    388. D(H  73,C  35,O  22,C  12)    -58.8206         0.023678   
    389. D(H  72,C  35,O  22,C  12)   -177.5979         0.023678   
    390. D(H  75,O  36,C  24,H  59)     67.8562         0.020566   
    391. D(H  75,O  36,C  24,C  25)    -54.2837         0.020566   
    392. D(H  75,O  36,C  24,C  23)   -175.3198         0.020566   
    393. D(H  76,O  37,C  16,H  54)    -57.6652         0.021725   
    394. D(H  76,O  37,C  16,H  53)   -175.2664         0.021725   
    395. D(H  76,O  37,C  16,C   7)     63.7686         0.021725   
    396. D(H  77,O  38,C  17,H  56)     67.6984         0.022079   
    397. D(H  77,O  38,C  17,H  55)   -176.4446         0.022079   
    398. D(H  77,O  38,C  17,C   8)    -54.2295         0.022079   
    399. D(C  41,O  39,C  29,C  30)   -174.1234         0.028493   
    400. D(C  41,O  39,C  29,C  28)      5.6092         0.028493   
    401. D(H  78,O  40,C  30,C  31)   -178.4380         0.029696   
    402. D(H  78,O  40,C  30,C  29)      0.6893         0.029696   
    403. D(H  81,C  41,O  39,C  29)     62.5454         0.023369   
    404. D(H  80,C  41,O  39,C  29)    -59.7477         0.023369   
    405. D(H  79,C  41,O  39,C  29)   -178.3805         0.023369   
    -----------------------------------------------------------------

Number of atoms                         .... 82
Number of degrees of freedom            .... 405


         *************************************************************
         *                GEOMETRY OPTIMIZATION CYCLE   1            *
         *************************************************************
---------------------------------
CARTESIAN COORDINATES (ANGSTROEM)
---------------------------------
  C     20.953499  -30.164930   -0.276256
  C     21.641040  -29.915332    0.917954
  C     21.008694  -30.193010    2.141209
  C     19.715291  -30.694447    2.165443
  C     19.043002  -30.950159    0.981217
  C     19.671781  -30.697479   -0.227100
  C     17.652487  -31.519124    0.979063
  C     17.676934  -33.008932    0.609022
  C     16.325357  -33.559573    0.115243
  C     16.071229  -33.185838   -1.354171
  C     17.172854  -33.604972   -2.289224
  C     17.600696  -34.930686   -2.318425
  C     18.591591  -35.333437   -3.192690
  C     19.153773  -34.409605   -4.090105
  C     18.737410  -33.091977   -4.053271
  C     17.761024  -32.695185   -3.152822
  C     18.201576  -33.837924    1.790453
  C     15.115628  -33.123787    0.954925
  O     21.760360  -29.936678    3.249499
  O     21.593278  -29.859656   -1.448170
  O     22.869660  -29.306514    1.011003
  O     20.095291  -34.812978   -4.986963
  O     19.110326  -36.608203   -3.282578
  C     23.957797  -29.743688    0.214408
  C     24.454493  -31.141029    0.645963
  C     23.415678  -32.191670    0.341666
  C     25.048796  -28.687309    0.429963
  O     24.621336  -27.421911    0.006278
  C     23.171823  -32.515414   -0.990318
  C     22.197608  -33.438316   -1.316571
  C     21.468677  -34.064557   -0.293301
  C     21.747433  -33.774970    1.029112
  C     22.715906  -32.837065    1.345635
  C     20.891147  -30.030611   -2.655771
  C     21.183292  -30.157851    4.512028
  C     18.633287  -37.581274   -2.384122
  O     25.660298  -31.381278   -0.055263
  O     18.409074  -35.187655    1.446508
  O     15.159908  -33.543916    2.296092
  O     21.856435  -33.827674   -2.588562
  O     20.496605  -34.973137   -0.611298
  C     22.628186  -33.338624   -3.661730
  H     19.219252  -30.893545    3.101373
  H     19.136094  -30.907798   -1.138242
  H     17.054423  -30.979210    0.242949
  H     17.191266  -31.396528    1.959071
  H     18.391594  -33.140529   -0.212686
  H     16.397601  -34.651491    0.190843
  H     15.925984  -32.106808   -1.432010
  H     15.139936  -33.662124   -1.676417
  H     17.150562  -35.643517   -1.647787
  H     19.178754  -32.390461   -4.743301
  H     17.442748  -31.663031   -3.142727
  H     17.478949  -33.835955    2.608332
  H     19.132891  -33.380774    2.149637
  H     15.037596  -32.035757    0.992535
  H     14.202590  -33.510055    0.473507
  H     20.235065  -35.761039   -4.856744
  H     23.684100  -29.768315   -0.844935
  H     24.642516  -31.110088    1.731039
  H     25.931236  -28.945492   -0.155449
  H     25.310067  -28.670905    1.497732
  H     23.752684  -27.276302    0.402774
  H     23.757798  -32.027378   -1.752343
  H     21.210522  -34.298387    1.803394
  H     22.919337  -32.603780    2.379195
  H     19.991560  -29.408097   -2.686643
  H     21.575767  -29.705087   -3.438431
  H     20.612570  -31.076606   -2.819559
  H     20.297874  -29.533095    4.667112
  H     20.913401  -31.209815    4.655289
  H     21.948177  -29.881133    5.236194
  H     19.200987  -38.484478   -2.601856
  H     18.805412  -37.283169   -1.345726
  H     17.568323  -37.777833   -2.539337
  H     25.950131  -32.278937    0.142364
  H     19.105056  -35.216151    0.771927
  H     15.285895  -34.500040    2.311240
  H     20.475697  -35.049652   -1.576839
  H     22.165598  -33.746874   -4.558567
  H     22.606823  -32.247017   -3.706128
  H     23.665467  -33.678884   -3.587295

----------------------------
CARTESIAN COORDINATES (A.U.)
----------------------------
  NO LB      ZA    FRAG     MASS         X           Y           Z
   0 C     6.0000    0    12.011   39.596375  -57.003456   -0.522047
   1 C     6.0000    0    12.011   40.895639  -56.531784    1.734681
   2 C     6.0000    0    12.011   39.700678  -57.056520    4.046298
   3 C     6.0000    0    12.011   37.256501  -58.004098    4.092094
   4 C     6.0000    0    12.011   35.986058  -58.487324    1.854232
   5 C     6.0000    0    12.011   37.174280  -58.009827   -0.429157
   6 C     6.0000    0    12.011   33.358366  -59.562513    1.850161
   7 C     6.0000    0    12.011   33.404564  -62.377842    1.150884
   8 C     6.0000    0    12.011   30.850454  -63.418402    0.217777
   9 C     6.0000    0    12.011   30.370222  -62.712144   -2.559013
  10 C     6.0000    0    12.011   32.451990  -63.504194   -4.326007
  11 C     6.0000    0    12.011   33.260495  -66.009430   -4.381189
  12 C     6.0000    0    12.011   35.133015  -66.770519   -6.033310
  13 C     6.0000    0    12.011   36.195385  -65.024729   -7.729178
  14 C     6.0000    0    12.011   35.408574  -62.534773   -7.659572
  15 C     6.0000    0    12.011   33.563471  -61.784945   -5.957970
  16 C     6.0000    0    12.011   34.395993  -63.944409    3.383466
  17 C     6.0000    0    12.011   28.564397  -62.594885    1.804548
  18 O     8.0000    0    15.999   41.121122  -56.572123    6.140662
  19 O     8.0000    0    15.999   40.805382  -56.426573   -2.736645
  20 O     8.0000    0    15.999   43.217395  -55.381285    1.910520
  21 O     8.0000    0    15.999   37.974596  -65.786994   -9.423993
  22 O     8.0000    0    15.999   36.113283  -69.179478   -6.203174
  23 C     6.0000    0    12.011   45.273676  -56.207425    0.405172
  24 C     6.0000    0    12.011   46.212294  -58.848017    1.220694
  25 C     6.0000    0    12.011   44.249218  -60.833440    0.645655
  26 C     6.0000    0    12.011   47.335365  -54.211158    0.812513
  27 O     8.0000    0    15.999   46.527583  -51.819901    0.011865
  28 C     6.0000    0    12.011   43.788399  -61.445228   -1.871431
  29 C     6.0000    0    12.011   41.947401  -63.189260   -2.487958
  30 C     6.0000    0    12.011   40.569920  -64.372685   -0.554259
  31 C     6.0000    0    12.011   41.096692  -63.825443    1.944740
  32 C     6.0000    0    12.011   42.926841  -62.053060    2.542882
  33 C     6.0000    0    12.011   39.478547  -56.749630   -5.018680
  34 C     6.0000    0    12.011   40.030620  -56.990079    8.526497
  35 C     6.0000    0    12.011   35.211809  -71.018315   -4.505338
  36 O     8.0000    0    15.999   48.490935  -59.302021   -0.104433
  37 O     8.0000    0    15.999   34.788108  -66.495032    2.733504
  38 O     8.0000    0    15.999   28.648073  -63.388814    4.338984
  39 O     8.0000    0    15.999   41.302676  -63.925039   -4.891673
  40 O     8.0000    0    15.999   38.732970  -66.089652   -1.155185
  41 C     6.0000    0    12.011   42.761075  -63.000869   -6.919668
  42 H     1.0000    0     1.008   36.319123  -58.380340    5.860745
  43 H     1.0000    0     1.008   36.161977  -58.407273   -2.150965
  44 H     1.0000    0     1.008   32.228189  -58.542223    0.459108
  45 H     1.0000    0     1.008   32.486785  -59.330840    3.702108
  46 H     1.0000    0     1.008   34.755076  -62.626523   -0.401919
  47 H     1.0000    0     1.008   30.986975  -65.481828    0.360641
  48 H     1.0000    0     1.008   30.095748  -60.673075   -2.706106
  49 H     1.0000    0     1.008   28.610332  -63.612195   -3.167969
  50 H     1.0000    0     1.008   32.409864  -67.356485   -3.113867
  51 H     1.0000    0     1.008   36.242593  -61.209100   -8.963539
  52 H     1.0000    0     1.008   32.962016  -59.834457   -5.938892
  53 H     1.0000    0     1.008   33.030427  -63.940689    4.929034
  54 H     1.0000    0     1.008   36.155924  -63.080522    4.062225
  55 H     1.0000    0     1.008   28.416939  -60.538808    1.875620
  56 H     1.0000    0     1.008   26.839006  -63.324828    0.894799
  57 H     1.0000    0     1.008   38.238731  -67.578571   -9.177916
  58 H     1.0000    0     1.008   44.756462  -56.253963   -1.596696
  59 H     1.0000    0     1.008   46.567607  -58.789546    3.271189
  60 H     1.0000    0     1.008   49.002935  -54.699053   -0.293757
  61 H     1.0000    0     1.008   47.829095  -54.180158    2.830304
  62 H     1.0000    0     1.008   44.886069  -51.544740    0.761133
  63 H     1.0000    0     1.008   44.895732  -60.522973   -3.311449
  64 H     1.0000    0     1.008   40.082079  -64.814558    3.407920
  65 H     1.0000    0     1.008   43.311271  -61.612214    4.496028
  66 H     1.0000    0     1.008   37.778574  -55.573250   -5.077020
  67 H     1.0000    0     1.008   40.772290  -56.134480   -6.497692
  68 H     1.0000    0     1.008   38.952112  -58.726275   -5.328195
  69 H     1.0000    0     1.008   38.357424  -55.809461    8.819563
  70 H     1.0000    0     1.008   39.520601  -58.978004    8.797221
  71 H     1.0000    0     1.008   41.476044  -56.467158    9.894972
  72 H     1.0000    0     1.008   36.284608  -72.725124   -4.916796
  73 H     1.0000    0     1.008   35.537079  -70.454979   -2.543053
  74 H     1.0000    0     1.008   33.199318  -71.389758   -4.798651
  75 H     1.0000    0     1.008   49.038641  -60.998351    0.269029
  76 H     1.0000    0     1.008   36.103324  -66.548881    1.458731
  77 H     1.0000    0     1.008   28.886155  -65.195627    4.367610
  78 H     1.0000    0     1.008   38.693460  -66.234244   -2.979793
  79 H     1.0000    0     1.008   41.886910  -63.772350   -8.614443
  80 H     1.0000    0     1.008   42.720703  -60.938031   -7.003566
  81 H     1.0000    0     1.008   44.721251  -63.643868   -6.779004

--------------------------------
INTERNAL COORDINATES (ANGSTROEM)
--------------------------------
 C      0   0   0     0.000000000000     0.00000000     0.00000000
 C      1   0   0     1.400409708411     0.00000000     0.00000000
 C      2   1   0     1.404749048213   119.10066622     0.00000000
 C      3   2   1     1.387413713636   120.41763682   359.32527716
 C      4   3   2     1.385551200774   120.27223546     1.21455125
 C      5   4   3     1.385366939294   119.44444263   359.82357374
 C      5   4   3     1.502417272852   121.34510472   178.75104323
 C      7   5   4     1.535270768263   110.67668383   255.97132590
 C      8   7   5     1.540708340295   114.21042490   199.78857908
 C      9   8   7     1.537347470601   111.37391678    79.30484171
 C     10   9   8     1.504517748123   113.90819345    54.75425884
 C     11  10   9     1.393347849227   120.19334542    53.87450020
 C     12  11  10     1.381455615554   120.72391061   178.61518478
 C     13  12  11     1.405299708818   119.96210562   358.28048173
 C     14  13  12     1.382337736194   119.28194651     2.24310040
 C     11  10   9     1.385445261149   121.01823792   232.54900592
 C      8   7   5     1.535661584838   110.11174535    74.53407560
 C      9   8   7     1.535715140922   114.48033901   315.26311357
 O      3   2   1     1.363456809458   114.99284103   179.11154610
 O      1   2   3     1.369632015764   117.42547971   178.87545181
 O      2   1   3     1.374345209817   125.14095912   185.71373403
 O     14  13  12     1.361440357951   120.16934985   182.42528138
 O     13  12  11     1.379201354477   125.48505319   178.37805659
 C     21   2   1     1.417648934041   120.76545943   310.00715191
 C     24  21   2     1.544509234139   111.64347171   290.75527118
 C     25  24  21     1.508502402972   110.62764897    67.67934078
 C     24  21   2     1.533844961985   104.75009559   170.78804978
 O     27  24  21     1.401236864581   111.25210433   298.85993160
 C     26  25  24     1.392284983421   118.39509391    70.05806693
 C     29  26  25     1.381044164315   120.32779770   182.21154095
 C     30  29  26     1.403780696829   119.48633483   358.97786395
 C     31  30  29     1.382151241005   119.94957611   358.71035800
 C     26  25  24     1.383535398896   121.79078643   249.65702582
 C     20   1   2     1.407306865260   118.30024707   183.59748193
 C     19   3   2     1.405669376539   118.30574442   178.42517186
 C     23  13  12     1.407713466177   118.02444165   357.67597528
 O     25  24  21     1.415416416146   106.80410249   189.34679143
 O     17   8   7     1.408236230767   112.32373678   187.76606626
 O     18   9   8     1.406127946584   114.32539800   298.61828159
 O     30  29  26     1.373302256312   125.69873597   179.25669733
 O     31  30  29     1.368050815579   119.72293768   179.57973369
 C     40  30  29     1.409418449601   118.08906112     5.60917745
 H      4   3   2     1.077803001883   120.72898926   181.04296342
 H      6   5   4     1.077670860976   118.43853114   179.64093137
 H      7   5   4     1.091353116670   108.71148034   136.23759519
 H      7   5   4     1.090032027288   110.34849338    17.24330388
 H      8   7   5     1.096932625816   107.89911113   318.32535400
 H      9   8   7     1.096913771890   106.01579636   197.23955651
 H     10   9   8     1.091539864532   109.29749547   292.34589377
 H     10   9   8     1.094531457225   108.43732411   175.77759687
 H     12  11  10     1.077266996528   119.22443938   358.50506894
 H     15  14  13     1.078447884228   118.66734796   179.71668532
 H     16  11  10     1.080158446068   119.77354164     1.40072225
 H     17   8   7     1.091383980002   110.44781029    69.15812534
 H     17   8   7     1.097882700035   108.46476144   310.48836693
 H     18   9   8     1.091472101379   110.97923705    57.78952412
 H     18   9   8     1.102090992019   108.31881484   175.90670797
 H     22  14  13     0.967116581239   107.55950085     0.51984801
 H     24  21   2     1.094406017209   111.03213808    53.00120081
 H     25  24  21     1.101679829044   107.73874914   307.87127505
 H     27  24  21     1.089985045549   109.70852416   180.20650210
 H     27  24  21     1.099391395482   108.40936078    60.74948139
 H     28  27  24     0.965902190959   106.64024239    49.32907576
 H     29  26  25     1.078067008728   118.40919814     2.03432973
 H     32  31  30     1.077845101988   119.01915589   182.83544833
 H     33  26  25     1.078913062089   119.92860910   359.01574219
 H     34  20   1     1.094409637811   111.42058999    60.29333153
 H     34  20   1     1.089598974665   105.46182453   178.46786742
 H     34  20   1     1.094778025959   111.80176584   297.69010435
 H     35  19   3     1.094684797318   111.68445294   299.16219445
 H     35  19   3     1.095442380167   111.69739974    61.89565027
 H     35  19   3     1.089053848482   105.60041593   180.57705849
 H     36  23  13     1.088792732751   105.61030592   182.40206450
 H     36  23  13     1.093965448957   111.35443871   301.17943735
 H     36  23  13     1.094018417494   111.31645452    63.91338679
 H     37  25  24     0.963769639024   108.22188895   184.68024446
 H     38  17   8     0.969671584293   107.68810157    63.76861819
 H     39  18   9     0.964507963706   108.37774738   305.77049981
 H     41  31  30     0.968793664644   107.42472133     0.68933973
 H     42  40  30     1.088564050796   105.33695314   181.61950958
 H     42  40  30     1.092718656968   111.52241289   300.25225980
 H     42  40  30     1.094197952221   111.06239924    62.54537638

---------------------------
INTERNAL COORDINATES (A.U.)
---------------------------
 C      0   0   0     0.000000000000     0.00000000     0.00000000
 C      1   0   0     2.646390824182     0.00000000     0.00000000
 C      2   1   0     2.654590988009   119.10066622     0.00000000
 C      3   2   1     2.621831953218   120.41763682   359.32527716
 C      4   3   2     2.618312313988   120.27223546     1.21455125
 C      5   4   3     2.617964110255   119.44444263   359.82357374
 C      5   4   3     2.839157184564   121.34510472   178.75104323
 C      7   5   4     2.901241293432   110.67668383   255.97132590
 C      8   7   5     2.911516815405   114.21042490   199.78857908
 C      9   8   7     2.905165692112   111.37391678    79.30484171
 C     10   9   8     2.843126507576   113.90819345    54.75425884
 C     11  10   9     2.633045844327   120.19334542    53.87450020
 C     12  11  10     2.610572779565   120.72391061   178.61518478
 C     13  12  11     2.655631585745   119.96210562   358.28048173
 C     14  13  12     2.612239745991   119.28194651     2.24310040
 C     11  10   9     2.618112117110   121.01823792   232.54900592
 C      8   7   5     2.901979829727   110.11174535    74.53407560
 C      9   8   7     2.902081036060   114.48033901   315.26311357
 O      3   2   1     2.576559965305   114.99284103   179.11154610
 O      1   2   3     2.588229414044   117.42547971   178.87545181
 O      2   1   3     2.597136060020   125.14095912   185.71373403
 O     14  13  12     2.572749424196   120.16934985   182.42528138
 O     13  12  11     2.606312843495   125.48505319   178.37805659
 C     21   2   1     2.678968239382   120.76545943   310.00715191
 C     24  21   2     2.918699463834   111.64347171   290.75527118
 C     25  24  21     2.850656413979   110.62764897    67.67934078
 C     24  21   2     2.898546910047   104.75009559   170.78804978
 O     27  24  21     2.647953922813   111.25210433   298.85993160
 C     26  25  24     2.631037319036   118.39509391    70.05806693
 C     29  26  25     2.609795249406   120.32779770   182.21154095
 C     30  29  26     2.652761069092   119.48633483   358.97786395
 C     31  30  29     2.611887321158   119.94957611   358.71035800
 C     26  25  24     2.614503000499   121.79078643   249.65702582
 C     20   1   2     2.659424561728   118.30024707   183.59748193
 C     19   3   2     2.656330156498   118.30574442   178.42517186
 C     23  13  12     2.660192926107   118.02444165   357.67597528
 O     25  24  21     2.674749391973   106.80410249   189.34679143
 O     17   8   7     2.661180808015   112.32373678   187.76606626
 O     18   9   8     2.657196728297   114.32539800   298.61828159
 O     30  29  26     2.595165163527   125.69873597   179.25669733
 O     31  30  29     2.585241378731   119.72293768   179.57973369
 C     40  30  29     2.663414877841   118.08906112     5.60917745
 H      4   3   2     2.036752499878   120.72898926   181.04296342
 H      6   5   4     2.036502789752   118.43853114   179.64093137
 H      7   5   4     2.062358505907   108.71148034   136.23759519
 H      7   5   4     2.059862008778   110.34849338    17.24330388
 H      8   7   5     2.072902250156   107.89911113   318.32535400
 H      9   8   7     2.072866621399   106.01579636   197.23955651
 H     10   9   8     2.062711408222   109.29749547   292.34589377
 H     10   9   8     2.068364699117   108.43732411   175.77759687
 H     12  11  10     2.035739596551   119.22443938   358.50506894
 H     15  14  13     2.037971150898   118.66734796   179.71668532
 H     16  11  10     2.041203644311   119.77354164     1.40072225
 H     17   8   7     2.062416829153   110.44781029    69.15812534
 H     17   8   7     2.074697630236   108.46476144   310.48836693
 H     18   9   8     2.062583354422   110.97923705    57.78952412
 H     18   9   8     2.082650149577   108.31881484   175.90670797
 H     22  14  13     1.827585478115   107.55950085     0.51984801
 H     24  21   2     2.068127651841   111.03213808    53.00120081
 H     25  24  21     2.081873164158   107.73874914   307.87127505
 H     27  24  21     2.059773226156   109.70852416   180.20650210
 H     27  24  21     2.077548651451   108.40936078    60.74948139
 H     28  27  24     1.825290613067   106.64024239    49.32907576
 H     29  26  25     2.037251400512   118.40919814     2.03432973
 H     32  31  30     2.036832057546   119.01915589   182.83544833
 H     33  26  25     2.038850209658   119.92860910   359.01574219
 H     34  20   1     2.068134493788   111.42058999    60.29333153
 H     34  20   1     2.059043657919   105.46182453   178.46786742
 H     34  20   1     2.068830646497   111.80176584   297.69010435
 H     35  19   3     2.068654469899   111.68445294   299.16219445
 H     35  19   3     2.070086094006   111.69739974    61.89565027
 H     35  19   3     2.058013518725   105.60041593   180.57705849
 H     36  23  13     2.057520081503   105.61030592   182.40206450
 H     36  23  13     2.067295098501   111.35443871   301.17943735
 H     36  23  13     2.067395194529   111.31645452    63.91338679
 H     37  25  24     1.821260673943   108.22188895   184.68024446
 H     38  17   8     1.832413734158   107.68810157    63.76861819
 H     39  18   9     1.822655905390   108.37774738   305.77049981
 H     41  31  30     1.830754706455   107.42472133     0.68933973
 H     42  40  30     2.057087935236   105.33695314   181.61950958
 H     42  40  30     2.064939003096   111.52241289   300.25225980
 H     42  40  30     2.067734465994   111.06239924    62.54537638

---------------------
BASIS SET INFORMATION
---------------------
There are 3 groups of distinct atoms

 Group   1 Type C   : 11s6p2d1f contracted to 5s3p2d1f pattern {62111/411/11/1}
 Group   2 Type O   : 11s6p2d1f contracted to 5s3p2d1f pattern {62111/411/11/1}
 Group   3 Type H   : 5s1p contracted to 3s1p pattern {311/1}

Atom   0C    basis set group =>   1
Atom   1C    basis set group =>   1
Atom   2C    basis set group =>   1
Atom   3C    basis set group =>   1
Atom   4C    basis set group =>   1
Atom   5C    basis set group =>   1
Atom   6C    basis set group =>   1
Atom   7C    basis set group =>   1
Atom   8C    basis set group =>   1
Atom   9C    basis set group =>   1
Atom  10C    basis set group =>   1
Atom  11C    basis set group =>   1
Atom  12C    basis set group =>   1
Atom  13C    basis set group =>   1
Atom  14C    basis set group =>   1
Atom  15C    basis set group =>   1
Atom  16C    basis set group =>   1
Atom  17C    basis set group =>   1
Atom  18O    basis set group =>   2
Atom  19O    basis set group =>   2
Atom  20O    basis set group =>   2
Atom  21O    basis set group =>   2
Atom  22O    basis set group =>   2
Atom  23C    basis set group =>   1
Atom  24C    basis set group =>   1
Atom  25C    basis set group =>   1
Atom  26C    basis set group =>   1
Atom  27O    basis set group =>   2
Atom  28C    basis set group =>   1
Atom  29C    basis set group =>   1
Atom  30C    basis set group =>   1
Atom  31C    basis set group =>   1
Atom  32C    basis set group =>   1
Atom  33C    basis set group =>   1
Atom  34C    basis set group =>   1
Atom  35C    basis set group =>   1
Atom  36O    basis set group =>   2
Atom  37O    basis set group =>   2
Atom  38O    basis set group =>   2
Atom  39O    basis set group =>   2
Atom  40O    basis set group =>   2
Atom  41C    basis set group =>   1
Atom  42H    basis set group =>   3
Atom  43H    basis set group =>   3
Atom  44H    basis set group =>   3
Atom  45H    basis set group =>   3
Atom  46H    basis set group =>   3
Atom  47H    basis set group =>   3
Atom  48H    basis set group =>   3
Atom  49H    basis set group =>   3
Atom  50H    basis set group =>   3
Atom  51H    basis set group =>   3
Atom  52H    basis set group =>   3
Atom  53H    basis set group =>   3
Atom  54H    basis set group =>   3
Atom  55H    basis set group =>   3
Atom  56H    basis set group =>   3
Atom  57H    basis set group =>   3
Atom  58H    basis set group =>   3
Atom  59H    basis set group =>   3
Atom  60H    basis set group =>   3
Atom  61H    basis set group =>   3
Atom  62H    basis set group =>   3
Atom  63H    basis set group =>   3
Atom  64H    basis set group =>   3
Atom  65H    basis set group =>   3
Atom  66H    basis set group =>   3
Atom  67H    basis set group =>   3
Atom  68H    basis set group =>   3
Atom  69H    basis set group =>   3
Atom  70H    basis set group =>   3
Atom  71H    basis set group =>   3
Atom  72H    basis set group =>   3
Atom  73H    basis set group =>   3
Atom  74H    basis set group =>   3
Atom  75H    basis set group =>   3
Atom  76H    basis set group =>   3
Atom  77H    basis set group =>   3
Atom  78H    basis set group =>   3
Atom  79H    basis set group =>   3
Atom  80H    basis set group =>   3
Atom  81H    basis set group =>   3
---------------------------------
AUXILIARY/J BASIS SET INFORMATION
---------------------------------
There are 3 groups of distinct atoms

 Group   1 Type C   : 12s5p4d2f1g contracted to 6s4p3d1f1g pattern {711111/2111/211/2/1}
 Group   2 Type O   : 12s5p4d2f1g contracted to 6s4p3d1f1g pattern {711111/2111/211/2/1}
 Group   3 Type H   : 5s2p1d contracted to 3s1p1d pattern {311/2/1}

Atom   0C    basis set group =>   1
Atom   1C    basis set group =>   1
Atom   2C    basis set group =>   1
Atom   3C    basis set group =>   1
Atom   4C    basis set group =>   1
Atom   5C    basis set group =>   1
Atom   6C    basis set group =>   1
Atom   7C    basis set group =>   1
Atom   8C    basis set group =>   1
Atom   9C    basis set group =>   1
Atom  10C    basis set group =>   1
Atom  11C    basis set group =>   1
Atom  12C    basis set group =>   1
Atom  13C    basis set group =>   1
Atom  14C    basis set group =>   1
Atom  15C    basis set group =>   1
Atom  16C    basis set group =>   1
Atom  17C    basis set group =>   1
Atom  18O    basis set group =>   2
Atom  19O    basis set group =>   2
Atom  20O    basis set group =>   2
Atom  21O    basis set group =>   2
Atom  22O    basis set group =>   2
Atom  23C    basis set group =>   1
Atom  24C    basis set group =>   1
Atom  25C    basis set group =>   1
Atom  26C    basis set group =>   1
Atom  27O    basis set group =>   2
Atom  28C    basis set group =>   1
Atom  29C    basis set group =>   1
Atom  30C    basis set group =>   1
Atom  31C    basis set group =>   1
Atom  32C    basis set group =>   1
Atom  33C    basis set group =>   1
Atom  34C    basis set group =>   1
Atom  35C    basis set group =>   1
Atom  36O    basis set group =>   2
Atom  37O    basis set group =>   2
Atom  38O    basis set group =>   2
Atom  39O    basis set group =>   2
Atom  40O    basis set group =>   2
Atom  41C    basis set group =>   1
Atom  42H    basis set group =>   3
Atom  43H    basis set group =>   3
Atom  44H    basis set group =>   3
Atom  45H    basis set group =>   3
Atom  46H    basis set group =>   3
Atom  47H    basis set group =>   3
Atom  48H    basis set group =>   3
Atom  49H    basis set group =>   3
Atom  50H    basis set group =>   3
Atom  51H    basis set group =>   3
Atom  52H    basis set group =>   3
Atom  53H    basis set group =>   3
Atom  54H    basis set group =>   3
Atom  55H    basis set group =>   3
Atom  56H    basis set group =>   3
Atom  57H    basis set group =>   3
Atom  58H    basis set group =>   3
Atom  59H    basis set group =>   3
Atom  60H    basis set group =>   3
Atom  61H    basis set group =>   3
Atom  62H    basis set group =>   3
Atom  63H    basis set group =>   3
Atom  64H    basis set group =>   3
Atom  65H    basis set group =>   3
Atom  66H    basis set group =>   3
Atom  67H    basis set group =>   3
Atom  68H    basis set group =>   3
Atom  69H    basis set group =>   3
Atom  70H    basis set group =>   3
Atom  71H    basis set group =>   3
Atom  72H    basis set group =>   3
Atom  73H    basis set group =>   3
Atom  74H    basis set group =>   3
Atom  75H    basis set group =>   3
Atom  76H    basis set group =>   3
Atom  77H    basis set group =>   3
Atom  78H    basis set group =>   3
Atom  79H    basis set group =>   3
Atom  80H    basis set group =>   3
Atom  81H    basis set group =>   3
--------------------------------------------------------------------------
WARNING: There was an error initializing an OpenFabrics device.

  Local host:   c07b01n01
  Local device: mlx5_0
--------------------------------------------------------------------------
--------------------------------------------------------------------------
WARNING: There is at least one non-excluded one OpenFabrics device found,
but there are no active ports detected (or Open MPI was unable to use
them).  This is most certainly not what you wanted.  Check your
cables, subnet manager configuration, etc.  The openib BTL will be
ignored for this job.

  Local host: c07b01n01
--------------------------------------------------------------------------


           ************************************************************
           *        Program running with 64 parallel MPI-processes    *
           *              working on a common directory               *
           ************************************************************
------------------------------------------------------------------------------
                             ORCA STARTUP CALCULATIONS
                           -- RI-GTO INTEGRALS CHOSEN --
------------------------------------------------------------------------------
------------------------------------------------------------------------------
                   ___                                                        
                  /   \      - P O W E R E D   B Y -                         
                 /     \                                                     
                 |  |  |   _    _      __       _____    __    __             
                 |  |  |  | |  | |    /  \     |  _  \  |  |  /  |          
                  \  \/   | |  | |   /    \    | | | |  |  | /  /          
                 / \  \   | |__| |  /  /\  \   | |_| |  |  |/  /          
                |  |  |   |  __  | /  /__\  \  |    /   |      \           
                |  |  |   | |  | | |   __   |  |    \   |  |\   \          
                \     /   | |  | | |  |  |  |  | |\  \  |  | \   \       
                 \___/    |_|  |_| |__|  |__|  |_| \__\ |__|  \__/        
                                                                              
                      - O R C A' S   B I G   F R I E N D -                    
                                      &                                       
                       - I N T E G R A L  F E E D E R -                       
                                                                              
 v1 FN, 2020, v2 2021, v3 2022-2024                                           
------------------------------------------------------------------------------


[c07b01n01:3872934] 56 more processes have sent help message help-mpi-btl-openib.txt / error in device init
[c07b01n01:3872934] Set MCA parameter "orte_base_help_aggregate" to 0 to see all help / error messages
[c07b01n01:3872934] 6 more processes have sent help message help-mpi-btl-openib.txt / no active ports found
----------------------
SHARK INTEGRAL PACKAGE
----------------------

Number of atoms                             ...     82
Number of basis functions                   ...   1542
Number of shells                            ...    622
Maximum angular momentum                    ...      3
Integral batch strategy                     ... SHARK/LIBINT Hybrid
RI-J (if used) integral strategy            ... SPLIT-RIJ (Revised 2003 algorithm where possible)
Printlevel                                  ...      1
Contraction scheme used                     ... SEGMENTED contraction
Prescreening option                         ... SCHWARTZ
   Thresh                                   ... 2.500e-11
   Tcut                                     ... 2.500e-12
   Tpresel                                  ... 2.500e-12 
Coulomb Range Separation                    ... NOT USED
Exchange Range Separation                   ... NOT USED
Multipole approximations                    ... NOT USED
Finite Nucleus Model                        ... NOT USED
CABS basis                                  ... NOT available
Auxiliary Coulomb fitting basis             ... AVAILABLE
   # of basis functions in Aux-J            ...   2498
   # of shells in Aux-J                     ...    830
   Maximum angular momentum in Aux-J        ...      4
Auxiliary J/K fitting basis                 ... NOT available
Auxiliary Correlation fitting basis         ... NOT available
Auxiliary 'external' fitting basis          ... NOT available

Checking pre-screening integrals            ... done (  0.0 sec) Dimension = 622
   => SHARK Basis and OBASIS are compatible. Storing Pre-screening
Shell pair information
Shell pair cut-off parameter TPreSel        ...   2.5e-12
Total number of shell pairs                 ...    193753
Shell pairs after pre-screening             ...    116296
Total number of primitive shell pairs       ...    584784
Primitive shell pairs kept                  ...    219281
          la=0 lb=0:  32364 shell pairs
          la=1 lb=0:  34701 shell pairs
          la=1 lb=1:   9405 shell pairs
          la=2 lb=0:  15767 shell pairs
          la=2 lb=1:   8678 shell pairs
          la=2 lb=2:   1994 shell pairs
          la=3 lb=0:   7193 shell pairs
          la=3 lb=1:   4012 shell pairs
          la=3 lb=2:   1761 shell pairs
          la=3 lb=3:    421 shell pairs

Checking whether 4 symmetric matrices of dimension 1542 fit in memory
:Max Core in MB      =   6000.00
 MB in use           =    139.35
 MB left             =   5860.65
 MB needed           =     36.31
 Data fit in memory  = YES
Calculating RI/J V-Matrix + Cholesky decomp.... done (  3.8 sec)
Calculating Nuclear repulsion               ... done (  0.0 sec) ENN=   5759.749431886029 Eh

Diagonalization of the overlap matrix:
Smallest eigenvalue                        ... 3.153e-06
Time for diagonalization                   ...    1.089 sec
Threshold for overlap eigenvalues          ... 1.000e-07
Number of eigenvalues below threshold      ... 0
Time for construction of square roots      ...    0.285 sec
Total time needed                          ...    1.428 sec

-------------------
DFT GRID GENERATION
-------------------

General Integration Accuracy     IntAcc      ... 4.388
Radial Grid Type                 RadialGrid  ... OptM3 with GC (2021)
Angular Grid (max. ang.)         AngularGrid ... 4 (Lebedev-302)
Angular grid pruning method      GridPruning ... 4 (adaptive)
Weight generation scheme         WeightScheme... mBecke (2022)
Basis function cutoff            BFCut       ... 1.0000e-11
Integration weight cutoff        WCut        ... 1.0000e-14
Partially contracted basis set               ... off
Rotationally invariant grid construction     ... off
Angular grids for H and He will be reduced by one unit

Total number of grid points                  ...   373566
Total number of batches                      ...     5880
Average number of points per batch           ...       63
Average number of grid points per atom       ...     4556

--------------------
COSX GRID GENERATION
--------------------

GRIDX 1
-------
General Integration Accuracy     IntAcc      ... 3.816
Radial Grid Type                 RadialGrid  ... OptM3 with GC (2021)
Angular Grid (max. ang.)         AngularGrid ... 1 (Lebedev-50)
Angular grid pruning method      GridPruning ... 4 (adaptive)
Weight generation scheme         WeightScheme... mBecke (2022)
Basis function cutoff            BFCut       ... 1.0000e-11
Integration weight cutoff        WCut        ... 1.0000e-14
Partially contracted basis set               ... on
Rotationally invariant grid construction     ... off
Angular grids for H and He will be reduced by one unit

Total number of grid points                  ...    47255
Total number of batches                      ...      413
Average number of points per batch           ...      114
Average number of grid points per atom       ...      576
UseSFitting                                  ... on

GRIDX 2
-------
General Integration Accuracy     IntAcc      ... 4.020
Radial Grid Type                 RadialGrid  ... OptM3 with GC (2021)
Angular Grid (max. ang.)         AngularGrid ... 2 (Lebedev-110)
Angular grid pruning method      GridPruning ... 4 (adaptive)
Weight generation scheme         WeightScheme... mBecke (2022)
Basis function cutoff            BFCut       ... 1.0000e-11
Integration weight cutoff        WCut        ... 1.0000e-14
Partially contracted basis set               ... on
Rotationally invariant grid construction     ... off
[...]
freq.     664.38  E(vib)   ...       0.08 
freq.     685.28  E(vib)   ...       0.07 
freq.     731.99  E(vib)   ...       0.06 
freq.     744.65  E(vib)   ...       0.06 
freq.     745.55  E(vib)   ...       0.06 
freq.     755.89  E(vib)   ...       0.06 
freq.     760.37  E(vib)   ...       0.06 
freq.     783.66  E(vib)   ...       0.05 
freq.     802.92  E(vib)   ...       0.05 
freq.     812.47  E(vib)   ...       0.05 
freq.     819.70  E(vib)   ...       0.05 
freq.     830.66  E(vib)   ...       0.04 
freq.     841.82  E(vib)   ...       0.04 
freq.     849.07  E(vib)   ...       0.04 
freq.     854.27  E(vib)   ...       0.04 
freq.     872.38  E(vib)   ...       0.04 
freq.     873.60  E(vib)   ...       0.04 
freq.     886.20  E(vib)   ...       0.04 
freq.     912.70  E(vib)   ...       0.03 
freq.     914.14  E(vib)   ...       0.03 
freq.     931.58  E(vib)   ...       0.03 
freq.     943.08  E(vib)   ...       0.03 
freq.     948.99  E(vib)   ...       0.03 
freq.     955.44  E(vib)   ...       0.03 
freq.     962.63  E(vib)   ...       0.03 
freq.     970.36  E(vib)   ...       0.03 
freq.     983.47  E(vib)   ...       0.02 
freq.    1002.54  E(vib)   ...       0.02 
freq.    1005.66  E(vib)   ...       0.02 
freq.    1028.00  E(vib)   ...       0.02 
freq.    1034.51  E(vib)   ...       0.02 
freq.    1034.78  E(vib)   ...       0.02 
freq.    1048.16  E(vib)   ...       0.02 
freq.    1048.74  E(vib)   ...       0.02 
freq.    1055.22  E(vib)   ...       0.02 
freq.    1057.38  E(vib)   ...       0.02 
freq.    1060.68  E(vib)   ...       0.02 
freq.    1062.65  E(vib)   ...       0.02 
freq.    1087.21  E(vib)   ...       0.02 
freq.    1093.09  E(vib)   ...       0.02 
freq.    1104.62  E(vib)   ...       0.02 
freq.    1136.56  E(vib)   ...       0.01 
freq.    1140.91  E(vib)   ...       0.01 
freq.    1143.19  E(vib)   ...       0.01 
freq.    1148.92  E(vib)   ...       0.01 
freq.    1169.76  E(vib)   ...       0.01 
freq.    1170.12  E(vib)   ...       0.01 
freq.    1171.31  E(vib)   ...       0.01 
freq.    1171.94  E(vib)   ...       0.01 
freq.    1173.15  E(vib)   ...       0.01 
freq.    1173.85  E(vib)   ...       0.01 
freq.    1178.29  E(vib)   ...       0.01 
freq.    1181.06  E(vib)   ...       0.01 
freq.    1195.73  E(vib)   ...       0.01 
freq.    1201.66  E(vib)   ...       0.01 
freq.    1205.82  E(vib)   ...       0.01 
freq.    1207.00  E(vib)   ...       0.01 
freq.    1212.91  E(vib)   ...       0.01 
freq.    1214.32  E(vib)   ...       0.01 
freq.    1220.56  E(vib)   ...       0.01 
freq.    1228.30  E(vib)   ...       0.01 
freq.    1230.50  E(vib)   ...       0.01 
freq.    1242.66  E(vib)   ...       0.01 
freq.    1243.94  E(vib)   ...       0.01 
freq.    1247.90  E(vib)   ...       0.01 
freq.    1251.78  E(vib)   ...       0.01 
freq.    1261.38  E(vib)   ...       0.01 
freq.    1273.77  E(vib)   ...       0.01 
freq.    1288.76  E(vib)   ...       0.01 
freq.    1292.44  E(vib)   ...       0.01 
freq.    1297.18  E(vib)   ...       0.01 
freq.    1308.91  E(vib)   ...       0.01 
freq.    1312.66  E(vib)   ...       0.01 
freq.    1320.46  E(vib)   ...       0.01 
freq.    1321.10  E(vib)   ...       0.01 
freq.    1343.14  E(vib)   ...       0.01 
freq.    1345.87  E(vib)   ...       0.01 
freq.    1349.98  E(vib)   ...       0.01 
freq.    1357.81  E(vib)   ...       0.01 
freq.    1364.07  E(vib)   ...       0.01 
freq.    1366.86  E(vib)   ...       0.01 
freq.    1376.67  E(vib)   ...       0.01 
freq.    1377.78  E(vib)   ...       0.01 
freq.    1391.96  E(vib)   ...       0.00 
freq.    1396.38  E(vib)   ...       0.00 
freq.    1401.76  E(vib)   ...       0.00 
freq.    1402.35  E(vib)   ...       0.00 
freq.    1408.11  E(vib)   ...       0.00 
freq.    1414.12  E(vib)   ...       0.00 
freq.    1425.12  E(vib)   ...       0.00 
freq.    1428.48  E(vib)   ...       0.00 
freq.    1431.06  E(vib)   ...       0.00 
freq.    1452.11  E(vib)   ...       0.00 
freq.    1459.56  E(vib)   ...       0.00 
freq.    1468.96  E(vib)   ...       0.00 
freq.    1477.70  E(vib)   ...       0.00 
freq.    1479.04  E(vib)   ...       0.00 
freq.    1479.19  E(vib)   ...       0.00 
freq.    1479.84  E(vib)   ...       0.00 
freq.    1481.24  E(vib)   ...       0.00 
freq.    1482.63  E(vib)   ...       0.00 
freq.    1484.81  E(vib)   ...       0.00 
freq.    1486.03  E(vib)   ...       0.00 
freq.    1487.65  E(vib)   ...       0.00 
freq.    1490.13  E(vib)   ...       0.00 
freq.    1490.43  E(vib)   ...       0.00 
freq.    1491.68  E(vib)   ...       0.00 
freq.    1491.85  E(vib)   ...       0.00 
freq.    1493.75  E(vib)   ...       0.00 
freq.    1498.15  E(vib)   ...       0.00 
freq.    1502.06  E(vib)   ...       0.00 
freq.    1508.10  E(vib)   ...       0.00 
freq.    1534.67  E(vib)   ...       0.00 
freq.    1542.61  E(vib)   ...       0.00 
freq.    1544.71  E(vib)   ...       0.00 
freq.    1627.27  E(vib)   ...       0.00 
freq.    1634.07  E(vib)   ...       0.00 
freq.    1642.70  E(vib)   ...       0.00 
freq.    1646.65  E(vib)   ...       0.00 
freq.    1648.90  E(vib)   ...       0.00 
freq.    1651.87  E(vib)   ...       0.00 
freq.    2994.37  E(vib)   ...       0.00 
freq.    2996.57  E(vib)   ...       0.00 
freq.    3010.85  E(vib)   ...       0.00 
freq.    3016.69  E(vib)   ...       0.00 
freq.    3016.95  E(vib)   ...       0.00 
freq.    3020.95  E(vib)   ...       0.00 
freq.    3022.34  E(vib)   ...       0.00 
freq.    3023.07  E(vib)   ...       0.00 
freq.    3025.40  E(vib)   ...       0.00 
freq.    3027.18  E(vib)   ...       0.00 
freq.    3027.44  E(vib)   ...       0.00 
freq.    3036.27  E(vib)   ...       0.00 
freq.    3053.27  E(vib)   ...       0.00 
freq.    3073.28  E(vib)   ...       0.00 
freq.    3077.35  E(vib)   ...       0.00 
freq.    3077.45  E(vib)   ...       0.00 
freq.    3085.49  E(vib)   ...       0.00 
freq.    3086.08  E(vib)   ...       0.00 
freq.    3086.76  E(vib)   ...       0.00 
freq.    3090.54  E(vib)   ...       0.00 
freq.    3102.73  E(vib)   ...       0.00 
freq.    3132.30  E(vib)   ...       0.00 
freq.    3134.73  E(vib)   ...       0.00 
freq.    3138.63  E(vib)   ...       0.00 
freq.    3142.79  E(vib)   ...       0.00 
freq.    3164.36  E(vib)   ...       0.00 
freq.    3171.02  E(vib)   ...       0.00 
freq.    3181.22  E(vib)   ...       0.00 
freq.    3188.24  E(vib)   ...       0.00 
freq.    3196.52  E(vib)   ...       0.00 
freq.    3205.33  E(vib)   ...       0.00 
freq.    3210.32  E(vib)   ...       0.00 
freq.    3211.96  E(vib)   ...       0.00 
freq.    3214.98  E(vib)   ...       0.00 
freq.    3643.10  E(vib)   ...       0.00 
freq.    3704.30  E(vib)   ...       0.00 
freq.    3723.66  E(vib)   ...       0.00 
freq.    3752.47  E(vib)   ...       0.00 
freq.    3770.72  E(vib)   ...       0.00 
freq.    3771.09  E(vib)   ...       0.00 

------------
INNER ENERGY
------------

The inner energy is: U= E(el) + E(ZPE) + E(vib) + E(rot) + E(trans)
    E(el)   - is the total energy from the electronic structure calculation
              = E(kin-el) + E(nuc-el) + E(el-el) + E(nuc-nuc)
    E(ZPE)  - the the zero temperature vibrational energy from the frequency calculation
    E(vib)  - the the finite temperature correction to E(ZPE) due to population
              of excited vibrational states
    E(rot)  - is the rotational thermal energy
    E(trans)- is the translational thermal energy

Summary of contributions to the inner energy U:
Electronic energy                ...  -2032.63435434 Eh
Zero point energy                ...      0.67857755 Eh     425.81 kcal/mol
Thermal vibrational correction   ...      0.04063110 Eh      25.50 kcal/mol
Thermal rotational correction    ...      0.00141627 Eh       0.89 kcal/mol
Thermal translational correction ...      0.00141627 Eh       0.89 kcal/mol
-----------------------------------------------------------------------
Total thermal energy                  -2031.91231315 Eh


Summary of corrections to the electronic energy:
(perhaps to be used in another calculation)
Total thermal correction                  0.04346364 Eh      27.27 kcal/mol
Non-thermal (ZPE) correction              0.67857755 Eh     425.81 kcal/mol
-----------------------------------------------------------------------
Total correction                          0.72204119 Eh     453.09 kcal/mol


--------
ENTHALPY
--------

The enthalpy is H = U + kB*T
                kB is Boltzmann's constant
Total thermal energy              ...  -2031.91231315 Eh 
Thermal Enthalpy correction       ...      0.00094421 Eh       0.59 kcal/mol
-----------------------------------------------------------------------
Total Enthalpy                    ...  -2031.91136894 Eh


Note: Only C1 symmetry has been detected, increase convergence thresholds 
      if your molecule has a higher symmetry. Symmetry factor of 1.0 is   
      used for the rotational entropy correction. 
 

Note: Rotational entropy computed according to Herzberg 
Infrared and Raman Spectra, Chapter V,1, Van Nostrand Reinhold, 1945 
Point Group:  C1, Symmetry Number:   1  
Rotational constants in cm-1:     0.003959     0.002233     0.001832 

Vibrational entropy computed according to the QRRHO of S. Grimme
Chem.Eur.J. 2012 18 9955 using a reference frequency of 100.0 cm-1


-------
ENTROPY
-------

The entropy contributions are T*S = T*(S(el)+S(vib)+S(rot)+S(trans))
     S(el)   - electronic entropy
     S(vib)  - vibrational entropy
     S(rot)  - rotational entropy
     S(trans)- translational entropy
The entropies will be listed as multiplied by the temperature to get
units of energy

Electronic entropy                ...      0.00000000 Eh      0.00 kcal/mol
Vibrational entropy               ...      0.07280066 Eh     45.68 kcal/mol
Rotational entropy                ...      0.01797948 Eh     11.28 kcal/mol
Translational entropy             ...      0.02138181 Eh     13.42 kcal/mol
-----------------------------------------------------------------------
Final entropy term                ...      0.11216195 Eh     70.38 kcal/mol

In case the symmetry of your molecule has not been determined correctly
or in case you have a reason to use a different symmetry number we print 
out the resulting rotational entropy values for sn=1,12:

 non-linear molecules -----------------------------------
|  sn= 1 | S(rot)=       0.01797948 Eh     11.28 kcal/mol|
|  sn= 2 | S(rot)=       0.01732502 Eh     10.87 kcal/mol|
|  sn= 3 | S(rot)=       0.01694219 Eh     10.63 kcal/mol|
|  sn= 4 | S(rot)=       0.01667056 Eh     10.46 kcal/mol|
|  sn= 5 | S(rot)=       0.01645988 Eh     10.33 kcal/mol|
|  sn= 6 | S(rot)=       0.01628773 Eh     10.22 kcal/mol|
|  sn= 7 | S(rot)=       0.01614218 Eh     10.13 kcal/mol|
|  sn= 8 | S(rot)=       0.01601611 Eh     10.05 kcal/mol|
|  sn= 9 | S(rot)=       0.01590490 Eh      9.98 kcal/mol|
|  sn=10 | S(rot)=       0.01580542 Eh      9.92 kcal/mol|
|  sn=11 | S(rot)=       0.01571543 Eh      9.86 kcal/mol|
|  sn=12 | S(rot)=       0.01563327 Eh      9.81 kcal/mol|
 linear molecules ---------------------------------------
|  Dinfh | S(rot)=       0.01127642 Eh      7.08 kcal/mol|
|  Cinfv | S(rot)=       0.01193088 Eh      7.49 kcal/mol|
 --------------------------------------------------------


-------------------
GIBBS FREE ENERGY
-------------------

The Gibbs free energy is G = H - T*S

Total enthalpy                    ...  -2031.91136894 Eh 
Total entropy correction          ...     -0.11216195 Eh    -70.38 kcal/mol
-----------------------------------------------------------------------
Final Gibbs free energy         ...  -2032.02353089 Eh

For completeness - the Gibbs free energy minus the electronic energy
G-E(el)                           ...      0.61082346 Eh    383.30 kcal/mol


Maximum memory used throughout the entire PROP-calculation: 1821.3 MB
--------------------------------------------------------------------------
WARNING: There was an error initializing an OpenFabrics device.

  Local host:   c07b01n01
  Local device: mlx5_0
--------------------------------------------------------------------------
--------------------------------------------------------------------------
WARNING: There is at least one non-excluded one OpenFabrics device found,
but there are no active ports detected (or Open MPI was unable to use
them).  This is most certainly not what you wanted.  Check your
cables, subnet manager configuration, etc.  The openib BTL will be
ignored for this job.

  Local host: c07b01n01
--------------------------------------------------------------------------
[c07b01n01:3941625] [[65479,0],0] ORTE_ERROR_LOG: Out of resource in file util/show_help.c at line 501
[c07b01n01:3941625] 52 more processes have sent help message help-mpi-btl-openib.txt / error in device init
[c07b01n01:3941625] Set MCA parameter "orte_base_help_aggregate" to 0 to see all help / error messages
[c07b01n01:3941625] 9 more processes have sent help message help-mpi-btl-openib.txt / no active ports found

--------------------------------
SUGGESTED CITATIONS FOR THIS RUN
--------------------------------

Below you find a list of papers that are relevant to this ORCA run
We neither can nor want to force you to cite these papers, but we appreciate if you do
You receive ORCA, which is the product of decades of hard work by many enthusiastic individuals, for free
The only thing we kindly ask in return is that you cite our papers,
We deeply appreciate it, if you show your appreciation for ORCA by not just citing the generic ORCA reference.

Please note that relegating all ORCA citations to the supporting information does *not* help us.
SI sections are not indexed - citations you put there will not count into any citation statistics
But we need these citations in order to attract the funding resources that allow us to do what we are doing

Therefore, if you are a happy ORCA user, please consider citing a few of the papers listed below in the main body of your paper

In addition to the list printed below, the program has created the file opt-conf-11.bibtex that contains the list in bibtex format
You can import this file easily into all common literature databanks and citation aid programs


List of essential papers. We consider these as the minimum necessary citations

  1. Neese, F.
     Software update: the ORCA program system, version 6.0
     WIRES Comput. Molec. Sci. 2025 15(1), e70019
     doi.org/10.1002/wcms.7019

List of papers to cite with high priority. The work reported in these papers was absolutely
necessary for this run to complete.
Our perspective: the developers of density functionals and basis sets usually get cited in chemistry papers
Good! But without the algorithms to do something with them, the functionals or basis sets would not do anything.
Hence, in our opinion, the algorithm design and method developments papers are equally worthy of getting cited

  1. Neese, F.
     An improvement of the resolution of the identity approximation for the formation of the Coulomb matrix
     J. Comp. Chem. 2003 24(14), 1740-1747
     doi.org/10.1002/jcc.10318
  2. Neese, F.; Wennmohs, F.; Hansen, A.; Becker, U.
     Efficient, approximate and parallel Hartree-Fock and hybrid DFT calculations. A 'chain-of-spheres' algorithm for the Hartree-Fock exchange
     Chem. Phys. 2009 356(1-3), 98-109
     doi.org/10.1016/j.chemphys.2008.10.036
  3. Bykov, D.; Petrenko, T.; Izsak, R.; Kossmann, S.; Becker, U.; Valeev, E.; Neese, F.
     Efficient implementation of the analytic second derivatives of Hartree-Fock and hybrid DFT energies: a detailed analysis of different approximations
     Molec. Phys. 2015 113 , 1961-1977
     doi.org/10.1080/00268976.2015.1025114
  4. Caldeweyher, E.; Bannwarth, C.; Grimme, S.
     Extension of the D3 dispersion coefficient model
     J. Chem. Phys. 2017 147 , 034112
     doi.org/10.1063/1.4993215
  5. Caldeweyher, E.; Ehlert, S.; Hansen, A.; Neugebauer, H.; Spicher, S.; Bannwarth, C.; Grimme, S.
     A generally applicable atomic-charge dependent London dispersion correction
     J. Chem. Phys. 2019 150 , 154122
     doi.org/10.1063/1.5090222
  6. Garcia-Rates, M.; Neese, F.
     Efficient implementation of the analytical second derivatives of hartree-fock and hybrid DFT energies within the framework of the conductor-like polarizable continuum model
     J. Comput. Chem. 2019 40 , 1816-1828
     doi.org/10.1002/jcc.25833
  7. Caldeweyher, E.; Mewes, J.; Ehlert, S.; Grimme, S.
     Extension and evaluation of the D4 London-dispersion model for periodic systems
     Phys. Chem. Chem. Phys. 2020 22(16), 8499-8512
     doi.org/10.1039/D0CP00502A
  8. Garcia-Rates, M.; Neese, F.
     Effect of the Solute Cavity on the Solvation Energy and its Derivatives within the Framework of the Gaussian Charge Scheme
     J. Comput. Chem. 2020 41 , 922-939
     doi.org/10.1002/jcc.26139
  9. Helmich-Paris, B.; de Souza, B.; Neese, F.; Izsák, R.
     An improved chain of spheres for exchange algorithm
     J. Chem. Phys. 2021 155(10), 104109
     doi.org/10.1063/5.0058766
 10. Neese, F.
     The SHARK Integral Generation and Digestion System
     J. Comp. Chem. 2022 44(3), 381
     doi.org/10.1002/jcc.26942
 11. Wittmann, L.; Gordiy, I.; Friede, M.; Helmich-Paris, B.; Grimme, S.; Hansen, A.; Bursch, M.
     Extension of the D3 and D4 London Dispersion Corrections to the full Actinides Series
     Phys. Chem. Chem. Phys. 2024 26(32), 21379-21394
     doi.org/10.1039/D4CP01514B

List of suggested additional citations. These are papers that are important in the 'surrounding' of 
of this run, or papers that preceded the highly important papers. If you like your results we are grateful for a citation.

  1. Izsak, R.; Neese, F.
     An overlap fitted chain of spheres exchange method
     J. Chem. Phys. 2011 135 , 144105
     doi.org/10.1063/1.3646921
  2. Izsak, R.; Hansen, A.; Neese, F.
     The resolution of identity and chain of spheres approximations for the LPNO-CCSD singles Fock term
     Molec. Phys. 2012 110 , 2413-2417
     doi.org/10.1080/00268976.2012.687466
  3. Neese, F.
     The ORCA program system
     WIRES Comput. Molec. Sci. 2012 2(1), 73-78
     doi.org/10.1002/wcms.81
  4. Izsak, R.; Neese, F.; Klopper, W.
     Robust fitting techniques in the chain of spheres approximation to the Fock exchange: The role of the complementary space
     J. Chem. Phys. 2013 139 , 
     doi.org/10.1063/1.4819264
  5. Neese, F.
     Software update: the ORCA program system, version 4.0
     WIRES Comput. Molec. Sci. 2018 8(1), 1-6
     doi.org/10.1002/wcms.1327
  6. Neese, F.; Wennmohs, F.; Becker, U.; Riplinger, C.
     The ORCA quantum chemistry program package
     J. Chem. Phys. 2020 152(22), 224108
     doi.org/10.1063/5.0004608
  7. Neese, F.
     Software update: The ORCA program system—Version 5.0
     WIRES Comput. Molec. Sci. 2022 12(1), e1606
     doi.org/10.1002/wcms.1606

List of optional additional citations

  1. Neese, F.
     Approximate second-order SCF convergence for spin unrestricted wavefunctions
     Chem. Phys. Lett. 2000 325(1-3), 93-98
     doi.org/10.1016/s0009-2614(00)00662-x

Timings for individual modules:

Sum of individual times          ...     6696.869 sec (= 111.614 min)
Startup calculation              ...      290.938 sec (=   4.849 min)   4.3 %
SCF iterations                   ...     1884.630 sec (=  31.411 min)  28.1 %
Property integrals               ...     1041.757 sec (=  17.363 min)  15.6 %
SCF Response                     ...     2244.863 sec (=  37.414 min)  33.5 %
Property calculations            ...      644.474 sec (=  10.741 min)   9.6 %
SCF Gradient evaluation          ...      586.863 sec (=   9.781 min)   8.8 %
Geometry relaxation              ...        3.343 sec (=   0.056 min)   0.0 %
                             ****ORCA TERMINATED NORMALLY****
TOTAL RUN TIME: 0 days 1 hours 54 minutes 2 seconds 429 msec
