
                                 *****************
                                 * O   R   C   A *
                                 *****************

                                            #,                                       
                                            ###                                      
                                            ####                                     
                                            #####                                    
                                            ######                                   
                                           ########,                                 
                                     ,,################,,,,,                         
                               ,,#################################,,                 
                          ,,##########################################,,             
                       ,#########################################, ''#####,          
                    ,#############################################,,   '####,        
                  ,##################################################,,,,####,       
                ,###########''''           ''''###############################       
              ,#####''   ,,,,##########,,,,          '''####'''          '####       
            ,##' ,,,,###########################,,,                        '##       
           ' ,,###''''                  '''############,,,                           
         ,,##''                                '''############,,,,        ,,,,,,###''
      ,#''                                            '''#######################'''  
     '                                                          ''''####''''         
             ,#######,   #######,   ,#######,      ##                                
            ,#'     '#,  ##    ##  ,#'     '#,    #''#        ,####,    ,#,          
            ##       ##  ##   ,#'  ##            #'  '#       #'       ,# #          
            ##       ##  #######   ##           ,######,      #####,      #          
            '#,     ,#'  ##    ##  '#,     ,#' ,#      #,     #,   #      #          
             '#######'   ##     ##  '#######'  #'      '#     '####' #    #          



                #########################################################
                #                        -***-                          #
                #          Department of theory and spectroscopy        #
                #                                                       #
                #                      Frank Neese                      #
                #                                                       #
                #     Directorship, Architecture, Infrastructure        #
                #                    SHARK, DRIVERS                     #
                #        Core code/Algorithms in most modules           #
                #                                                       #
                #        Max Planck Institute fuer Kohlenforschung      #
                #                Kaiser Wilhelm Platz 1                 #
                #                 D-45470 Muelheim/Ruhr                 #
                #                      Germany                          #
                #                                                       #
                #                  All rights reserved                  #
                #                        -***-                          #
                #########################################################


                         Program Version 6.1.0-f.0  -   RELEASE   -


 With contributions from (in alphabetic order):
[Max-Planck-Institut fuer Kohlenforschung]                               
  Daniel Aravena         : Magnetic Suceptibility                        
  Michael Atanasov       : Ab Initio Ligand Field Theory (pilot matlab implementation)
  Alexander A. Auer      : GIAO ZORA, VPT2 properties, NMR spectrum      
  Ute Becker             : All parallelization in ORCA, NUMFREQ, NUMCALC 
  Giovanni Bistoni       : ED, misc. LED, open-shell LED, HFLD           
  Dmytro Bykov           : pre 5.0 version of the SCF Hessian            
  Marcos Casanova-Páez   : Triplet and SCS-CIS(D). UHF-(DLPNO)-IP/EA/STEOM-CCSD. UHF-CVS-IP/STEOM-CCSD   
  Vijay G. Chilkuri      : MRCI spin determinant printing, contributions to CSF-ICE 
  Pauline Colinet        : FMM embedding                                 
  Dipayan Datta          : RHF DLPNO-CCSD density                        
  Achintya Kumar Dutta   : EOM-CC, STEOM-CC                              
  Nicolas Foglia         : Exact transition moments, OPA infrastructure, MCD improvements    
  Dmitry Ganyushin       : Spin-Orbit,Spin-Spin,Magnetic field MRCI      
  Miquel Garcia-Rates    : C-PCM and meta-GGA Hessian, CCSD/C-PCM, Gaussian charge scheme 
  Tiago L. C. Gouveia    : GS-ROHF, GS-ROCIS                             
  Yang Guo               : DLPNO-NEVPT2, F12-NEVPT2, CIM, IAO-localization        
  Andreas Hansen         : Spin unrestricted coupled pair/coupled cluster methods 
  Ingolf Harden          : AUTO-CI MPn and infrastructure                
  Benjamin Helmich-Paris : MC-RPA, TRAH-(SCF,CASSCF), AVAS, COSX integrals, SCF dyn. polar., MC-PDFT, srDFT 
  Lee Huntington         : MR-EOM, pCC                                   
  Robert Izsak           : Overlap fitted RIJCOSX, COSX-SCS-MP3, EOM     
  Riya Kayal             : Wick's Theorem for AUTO-CI, AUTO-CI UHF-CCSDT 
  Emily Kempfer          : AUTO-CI RHF CISDT and CCSDT, approximate NEVPT4
  Christian Kollmar      : KDIIS, OOCD, Brueckner-CCSD(T), CCSD density, CASPT2, CASPT2-K, improved NEVPT2 
  Axel Koslowski         : Symmetry handling                             
  Simone Kossmann        : meta-GGA functionals, TD-DFT gradient, OOMP2, (MP2 Hessian; deprecated post 5.0) 
  Lucas Lang             : DCDCAS, Hyperfine gauge corrections, ICE-SOC+SSC
  Marvin Lechner         : AUTO-CI (C++ implementation), FIC-MRCC        
  Spencer Leger          : CASSCF response                               
  Dagmar Lenk            : GEPOL surface, SMD, ORCA-2-JSON               
  Dimitrios Liakos       : Extrapolation schemes; Compound Job, Property file
  Dimitrios Manganas     : Further ROCIS development; embedding schemes. LFT, Crystal Embedding 
  Dimitrios Pantazis     : SARC Basis sets                               
  Anastasios Papadopoulos: AUTO-CI, single reference methods and gradients 
  Taras Petrenko         : pre 6.0 DFT Hessian and TD-DFT gradient,  ECA, NRVS 
  Petra Pikulova         : Analytic Raman intensities                    
  Peter Pinski           : DLPNO-MP2, DLPNO-MP2 Gradient                 
  Shashank Vittal Rao    : ES-AILFT, MagRelax                            
  Christoph Reimann      : Effective Core Potentials                     
  Marius Retegan         : Local ZFS, SOC                                
  Christoph Riplinger    : Optimizer, TS searches, QM/MM, DLPNO-CCSD(T), (RO)-DLPNO pert. Triples 
  Michael Roemelt        : Original ROCIS implementation, recursive CI coupling coefficients
  Masaaki Saitow         : Open-shell DLPNO-CCSD energy and density      
  Barbara Sandhoefer     : DKH picture change effects                    
  Yorick L. A. Schmerwitz: GMF and freeze-and-release deltaSCF, NEB S-IDPP initial path                    
  Kantharuban Sivalingam : CASSCF convergence/infrastructure, NEVPT2, NEVPT3, NEVPT4(SD), FIC-MRCI and CEPA variants
  Bernardo de Souza      : ESD, SOC TD-DFT                               
  Georgi L. Stoychev     : AutoAux, RI-MP2 NMR, DLPNO-MP2 response, X2C  
  Van Anh Tran           : RI-MP2 g-tensors                              
  Willem Van den Heuvel  : Paramagnetic NMR                              
  Zikuan Wang            : NOTCH, Electric field optimization            
  Frank Wennmohs         : Technical directorship and infrastructure     
  Hang Xu                : AUTO-CI-Response properties                   
                                                                         
[FACCTs GmbH]                                                            
  Markus Bursch, Nicolas Foglia, Miquel Garcia-Rates, Ingolf Harden, Hagen Neugebauer, Anastasios Papadopoulos, 
  Christoph Riplinger, Bernardo de Souza, Georgi L. Stoychev                                                    
                                                                 
  APM, various basis sets, CI-OPT, improved COSX, DLPNO-Multilevel,           
  DOCKER, DRACO, updates on ESD, Fragmentator, GOAT, IRC, LR-CPCM, L-BFGS, MBIS, meta-GGA TD-DFT gradient, ML-optimized integration grids, 
  MM, NACMEs, nearIR, NEB, NEB-TS, NL-DFT gradient (VV10), 2- and 3-layer-ONIOM, interface openCOSMO-RS, QMMM,   
  Crystal-QMMM, RESP, rigid body optimization, SF, symmetry and pop. for TD-DFT, various functionals, SOLVATOR                                   
                                                                         
[Other institutions]                                                     
  V. Asgeirsson          : NEB                                           
  Christoph Bannwarth    : sTDA-DFT, sTD-DFT, PBEh-3c, B97-3c, D3        
  Giovanni Bistoni       : ETS/NOCV, ADLD/ADEX, COVALED                  
  Martin Brehm           : Molecular dynamics                            
  Ronald Cardenas        : ETS/NOCV                                      
  Martina Colucci        : COVALED                                       
  Sebastian Ehlert       : rSCAN, r2SCAN, r2SCAN-3c, D4, dhf basis sets  
  Marvin Friede          : D4 for Fr, Ra, Ac-Lr                          
  Lars Goerigk           : TD-DFT with DH, B97 family of functionals     
  Stefan Grimme          : VdW corrections, initial TS optimization, DFT functionals, gCP, sTDA/sTD-DF 
  Waldemar Hujo          : DFT-NL                                        
  H. Jonsson             : NEB                                           
  Holger Kruse           : gCP                                           
  Marcel Mueller         : wB97X-3c, vDZP basis set                      
  Hagen Neugebauer       : wr2SCAN, Native XTB                           
  Gianluca Regni         : ADLD/ADEX                                     
  Tobias Risthaus        : pre 6.0 range-separated hybrid DFT and stability analysis
  Lukas Wittmann         : regularized MP2, r2SCAN double-hybrids, wr2SCAN        
                                                                         
We gratefully acknowledge several colleagues who have allowed us to      
interface, adapt or use parts of their codes:                            
  Ed Valeev, F. Pavosevic, A. Kumar             : LibInt (2-el integral package), F12 methods 
  Garnet Chan, S. Sharma, J. Yang, R. Olivares  : DMRG                   
  Ulf Ekstrom                                   : XCFun DFT Library      
  Mihaly Kallay                                 : mrcc  (arbitrary order and MRCC methods)
  Frank Weinhold                                : gennbo (NPA and NBO analysis)           
  Simon Mueller                                 : openCOSMO-RS                            
  Christopher J. Cramer and Donald G. Truhlar   : smd solvation model                     
  S Lehtola, MJT Oliveira, MAL Marques          : LibXC Library                           
  Liviu Ungur et al                             : ANISO software                          


 Your calculation uses the libint2 library for the computation of 2-el integrals
 For citations please refer to: http://libint.valeyev.net

 Your ORCA version has been built with support for libXC version: 7.0.0
 For citations please refer to: https://libxc.gitlab.io

 This ORCA versions uses:
   CBLAS   interface :  Fast vector & matrix operations
   LAPACKE interface :  Fast linear algebra routines
   SCALAPACK package :  Parallel linear algebra routines
   Shared memory     :  Shared parallel matrices
   BLAS/LAPACK       :  OpenBLAS 0.3.29  USE64BITINT DYNAMIC_ARCH NO_AFFINITY Cooperlake SINGLE_THREADED
        Core in use  :  Cooperlake
   Copyright (c) 2011-2014, The OpenBLAS Project


  ***********************************
  * Starting time: Wed Mar  4 06:26:43 2026
  * Host name:     c01b01n04
  * Process ID:    2107815
  * Working dir.:  /lustre1/jiangy/jiangy_liuxy/NMR/B9D7C2-SRSR
  ***********************************

NOTE: MaxCore=6000 MB was set to SCF,MP2,MDCI,CIPSI,MRCI,RASCI and CIS
      => If you want to overwrite this, your respective input block should be placed after the MaxCore statement


***************************************
The coordinates will be read from file: conf-6.xyz
***************************************


Your calculation utilizes the atom-pairwise dispersion correction
based on EEQ partial charges (D4)


Warning: RI is on but no J-basis has been assigned. Assigning Def2/J (nothing to worry about!)
================================================================================

----- Orbital basis set information -----
Your calculation utilizes the basis: def2-TZVP
   F. Weigend and R. Ahlrichs, Phys. Chem. Chem. Phys. 7, 3297 (2005).

----- AuxJ basis set information -----
Your calculation utilizes the auxiliary basis: def2/J
   H-Rn: F. Weigend, Phys. Chem. Chem. Phys. 8, 1057 (2006).
   Fr-Lr: K. Eichkorn, F. Weigend, O. Treutler, R. Ahlrichs; Theor. Chem. Acc. 97, 119 (1997).

================================================================================
                                        WARNINGS
                       Please study these warnings very carefully!
================================================================================


WARNING: Geometry Optimization
  ===> : Switching off AutoStart
         For restart on a previous wavefunction, please use MOREAD

================================================================================
                                       INPUT FILE
================================================================================
NAME = opt-conf-6.inp
|  1> ! B3LYP OPT FREQ DEF2-TZVP D4 CPCM(Methanol) 
|  2> ! TightOpt
|  3> %pal nprocs 64 end
|  4> %maxcore 6000
|  5> 
|  6> %cpcm
|  7> end
|  8> 
|  9> %freq
| 10>    Temp 298.15
| 11> end
| 12> 
| 13> * xyzfile 0 1 conf-6.xyz
| 14> 
| 15> 
| 16>                          ****END OF INPUT****
================================================================================

                       *****************************
                       * Geometry Optimization Run *
                       *****************************

Geometry optimization settings:
Update method            Update   .... BFGS
Choice of coordinates    CoordSys .... (2022) Redundant Internals
Initial Hessian          InHess   .... Almloef's Model
Max. no of cycles        MaxIter  .... 246

Convergence Tolerances:
Energy Change            TolE     ....  1.0000e-06 Eh
Max. Gradient            TolMAXG  ....  1.0000e-04 Eh/bohr
RMS Gradient             TolRMSG  ....  3.0000e-05 Eh/bohr
Max. Displacement        TolMAXD  ....  1.0000e-03 bohr
RMS Displacement         TolRMSD  ....  6.0000e-04 bohr
Strict Convergence                .... False

------------------------------------------------------------------------------
                        ORCA OPTIMIZATION COORDINATE SETUP
------------------------------------------------------------------------------

The optimization will be done in redundant internal coordinates (2022)
Making redundant internal coordinates   ...  (2022 redundants) done
Evaluating the initial hessian          ...  (Almloef) done
Evaluating the coordinates              ...  done
Calculating the B-matrix                .... done
Calculating the G-matrix                .... done
The number of degrees of freedom        ....  404

    -----------------------------------------------------------------
                    Redundant Internal Coordinates


    -----------------------------------------------------------------
         Definition                    Initial Value    Approx d2E/dq
    -----------------------------------------------------------------
      1. B(C   1,C   0)                  1.4043         0.592725   
      2. B(C   2,C   1)                  1.4001         0.601977   
      3. B(C   3,C   2)                  1.3884         0.628392   
      4. B(C   4,C   3)                  1.3856         0.635020   
      5. B(C   5,C   0)                  1.3878         0.629808   
      6. B(C   5,C   4)                  1.3854         0.635347   
      7. B(C   6,C   4)                  1.5030         0.412478   
      8. B(C   7,C   6)                  1.5360         0.365390   
      9. B(C   8,C   7)                  1.5378         0.363043   
     10. B(C   9,C   8)                  1.5363         0.365038   
     11. B(C  10,C   9)                  1.5028         0.412760   
     12. B(C  11,C  10)                  1.3934         0.617123   
     13. B(C  12,C  11)                  1.3818         0.643991   
     14. B(C  13,C  12)                  1.4050         0.591351   
     15. B(C  14,C  13)                  1.3823         0.642804   
     16. B(C  15,C  10)                  1.3859         0.634272   
     17. B(C  15,C  14)                  1.3860         0.633981   
     18. B(C  16,C   7)                  1.5357         0.365815   
     19. B(C  17,C   8)                  1.5346         0.367312   
     20. B(O  18,C   2)                  1.3700         0.602192   
     21. B(O  19,C   0)                  1.3619         0.620534   
     22. B(O  20,C   1)                  1.3740         0.593430   
     23. B(O  21,C  13)                  1.3625         0.619086   
     24. B(O  22,C  12)                  1.3794         0.581894   
     25. B(C  23,O  20)                  1.4190         0.503116   
     26. B(C  24,C  23)                  1.5503         0.346791   
     27. B(C  25,C  24)                  1.5106         0.401124   
     28. B(C  26,C  23)                  1.5344         0.367553   
     29. B(O  27,C  26)                  1.4017         0.536130   
     30. B(C  28,C  25)                  1.3932         0.617481   
     31. B(C  29,C  28)                  1.3817         0.644026   
     32. B(C  30,C  29)                  1.4030         0.595595   
     33. B(C  31,C  30)                  1.3820         0.643447   
     34. B(C  32,C  31)                  1.3844         0.637860   
     35. B(C  32,C  25)                  1.3840         0.638767   
     36. B(C  33,O  19)                  1.4057         0.528235   
     37. B(C  34,O  18)                  1.4081         0.523589   
     38. B(C  35,O  22)                  1.4075         0.524737   
     39. B(O  36,C  24)                  1.4101         0.519710   
     40. B(O  37,C  16)                  1.4051         0.529424   
     41. B(O  38,C  17)                  1.4087         0.522494   
     42. B(O  39,C  29)                  1.3733         0.595037   
     43. B(O  40,C  30)                  1.3673         0.608321   
     44. B(C  41,O  39)                  1.4087         0.522479   
     45. B(H  42,C   3)                  1.0775         0.376983   
     46. B(H  43,C   5)                  1.0779         0.376463   
     47. B(H  44,C   6)                  1.0907         0.359234   
     48. B(H  45,C   6)                  1.0904         0.359547   
     49. B(H  46,C   7)                  1.0965         0.351624   
     50. B(H  47,C   8)                  1.0969         0.351098   
     51. B(H  48,C   9)                  1.0916         0.358002   
     52. B(H  49,C   9)                  1.0939         0.354948   
     53. B(H  50,C  11)                  1.0772         0.377372   
     54. B(H  51,C  14)                  1.0785         0.375585   
     55. B(H  52,C  15)                  1.0803         0.373206   
     56. B(H  53,C  16)                  1.0933         0.355796   
     57. B(H  54,C  16)                  1.0984         0.349182   
     58. B(H  55,C  17)                  1.0985         0.349038   
     59. B(H  56,C  17)                  1.0919         0.357648   
     60. B(H  57,O  21)                  0.9671         0.506614   
     61. B(H  57,O  22)                  2.1119         0.010000   
     62. B(H  58,C  23)                  1.0975         0.350359   
     63. B(H  59,C  24)                  1.0945         0.354145   
     64. B(H  60,C  26)                  1.0908         0.359022   
     65. B(H  61,C  26)                  1.0984         0.349186   
     66. B(H  62,O  20)                  2.3600         0.010000   
     67. B(H  62,O  27)                  0.9655         0.509533   
     68. B(H  63,C  28)                  1.0795         0.374194   
     69. B(H  64,C  31)                  1.0779         0.376469   
     70. B(H  65,C  32)                  1.0784         0.375765   
     71. B(H  66,C  33)                  1.0889         0.361510   
     72. B(H  67,C  33)                  1.0948         0.353850   
     73. B(H  68,H  64)                  4.2015         0.010000   
     74. B(H  68,C  33)                  1.0954         0.353079   
     75. B(H  69,C  34)                  1.0947         0.353970   
     76. B(H  70,C  34)                  1.0941         0.354729   
     77. B(H  71,C  34)                  1.0897         0.360516   
     78. B(H  72,C  35)                  1.0940         0.354821   
     79. B(H  73,C  35)                  1.0888         0.361694   
     80. B(H  74,C  35)                  1.0941         0.354758   
     81. B(H  75,O  36)                  0.9642         0.512073   
     82. B(H  76,O  40)                  1.9553         0.013429   
     83. B(H  76,O  37)                  0.9702         0.500807   
     84. B(H  77,O  38)                  0.9640         0.512356   
     85. B(H  78,O  39)                  2.1027         0.010000   
     86. B(H  78,O  40)                  0.9691         0.502931   
     87. B(H  79,C  41)                  1.0945         0.354217   
     88. B(H  80,O  21)                  2.3589         0.010000   
     89. B(H  80,C  41)                  1.0886         0.361968   
     90. B(H  81,H  69)                  2.4721         0.010000   
     91. B(H  81,C  41)                  1.0933         0.355817   
     92. A(C   1,C   0,O  19)          115.0078         0.427826   
     93. A(C   5,C   0,O  19)          124.6956         0.432511   
     94. A(C   1,C   0,C   5)          120.2965         0.431786   
     95. A(C   0,C   1,O  20)          115.8474         0.424418   
     96. A(C   0,C   1,C   2)          119.1956         0.428297   
     97. A(C   2,C   1,O  20)          124.7195         0.425596   
     98. A(C   3,C   2,O  18)          123.2782         0.430013   
     99. A(C   1,C   2,C   3)          119.4645         0.432814   
    100. A(C   1,C   2,O  18)          117.2572         0.426714   
    101. A(C   4,C   3,H  42)          118.4448         0.357109   
    102. A(C   2,C   3,H  42)          120.3454         0.356473   
    103. A(C   2,C   3,C   4)          121.2010         0.436998   
    104. A(C   5,C   4,C   6)          121.4102         0.405407   
    105. A(C   3,C   4,C   6)          119.0694         0.405370   
    106. A(C   3,C   4,C   5)          119.5136         0.437866   
    107. A(C   4,C   5,H  43)          119.0641         0.357056   
    108. A(C   0,C   5,H  43)          120.6383         0.356525   
    109. A(C   0,C   5,C   4)          120.2977         0.437216   
    110. A(C   4,C   6,H  44)          108.6989         0.329524   
    111. A(C   7,C   6,H  45)          109.8064         0.323060   
    112. A(C   4,C   6,C   7)          110.8351         0.368169   
    113. A(H  44,C   6,H  45)          108.2319         0.290659   
    114. A(C   4,C   6,H  45)          110.2751         0.329571   
    115. A(C   7,C   6,H  44)          108.9340         0.323014   
    116. A(C   6,C   7,C  16)          110.6668         0.360685   
    117. A(C   8,C   7,C  16)          110.3670         0.360290   
    118. A(C  16,C   7,H  46)          106.6984         0.321944   
    119. A(C   8,C   7,H  46)          106.7953         0.321544   
    120. A(C   6,C   7,H  46)          107.7745         0.321883   
    121. A(C   6,C   7,C   8)          114.1584         0.360218   
    122. A(C   7,C   8,C  17)          113.6004         0.360540   
    123. A(C  17,C   8,H  47)          107.0779         0.322081   
    124. A(C   7,C   8,C   9)          111.9671         0.360159   
    125. A(C   9,C   8,H  47)          108.5683         0.321753   
    126. A(C   7,C   8,H  47)          105.9721         0.321465   
    127. A(C   9,C   8,C  17)          109.3750         0.360877   
    128. A(H  48,C   9,H  49)          107.1299         0.289916   
    129. A(C  10,C   9,H  48)          109.1285         0.329374   
    130. A(C  10,C   9,H  49)          109.3435         0.328908   
    131. A(C   8,C   9,C  10)          114.0214         0.368151   
    132. A(C   8,C   9,H  48)          109.2362         0.322781   
    133. A(C   8,C   9,H  49)          107.7537         0.322328   
    134. A(C   9,C  10,C  11)          120.4812         0.403378   
    135. A(C  11,C  10,C  15)          118.6817         0.435483   
    136. A(C   9,C  10,C  15)          120.8310         0.405335   
    137. A(C  10,C  11,C  12)          120.7642         0.436678   
    138. A(C  10,C  11,H  50)          119.2826         0.355442   
    139. A(C  12,C  11,H  50)          119.9532         0.358024   
    140. A(C  11,C  12,C  13)          119.9696         0.433337   
    141. A(C  13,C  12,O  22)          114.5398         0.422755   
    142. A(C  11,C  12,O  22)          125.4906         0.429260   
    143. A(C  12,C  13,O  21)          120.1793         0.427469   
    144. A(C  12,C  13,C  14)          119.2789         0.433193   
    145. A(C  14,C  13,O  21)          120.5418         0.433921   
    146. A(C  13,C  14,H  51)          118.6785         0.357623   
    147. A(C  13,C  14,C  15)          120.1370         0.438659   
    148. A(C  15,C  14,H  51)          121.1811         0.356784   
    149. A(C  14,C  15,H  52)          119.1061         0.356399   
    150. A(C  10,C  15,H  52)          119.7487         0.356427   
    151. A(C  10,C  15,C  14)          121.1310         0.437603   
    152. A(O  37,C  16,H  54)          110.8710         0.339793   
    153. A(C   7,C  16,H  54)          108.7025         0.321577   
    154. A(O  37,C  16,H  53)          105.8067         0.340860   
    155. A(C   7,C  16,H  53)          110.7550         0.322567   
    156. A(C   7,C  16,O  37)          112.3570         0.382041   
    157. A(H  53,C  16,H  54)          108.2631         0.288893   
    158. A(O  38,C  17,H  56)          105.1211         0.340406   
    159. A(C   8,C  17,O  38)          112.2103         0.381439   
    160. A(H  55,C  17,H  56)          108.4095         0.289109   
    161. A(C   8,C  17,H  56)          110.8402         0.323058   
    162. A(O  38,C  17,H  55)          110.0731         0.339023   
    163. A(C   8,C  17,H  55)          110.0270         0.321770   
    164. A(C   2,O  18,C  34)          118.1551         0.413524   
    165. A(C   0,O  19,C  33)          118.3903         0.416390   
    166. A(C   1,O  20,C  23)          120.5773         0.409543   
    167. A(C  13,O  21,H  57)          107.5057         0.368374   
    168. A(C  12,O  22,C  35)          118.0236         0.411175   
    169. A(C  26,C  23,H  58)          109.1510         0.322004   
    170. A(C  24,C  23,H  58)          110.0231         0.318958   
    171. A(O  20,C  23,H  58)          110.3960         0.337105   
    172. A(C  24,C  23,C  26)          110.9963         0.357780   
    173. A(O  20,C  23,C  26)          104.4978         0.378991   
    174. A(O  20,C  23,C  24)          111.6369         0.375200   
    175. A(C  23,C  24,O  36)          110.9918         0.377310   
    176. A(O  36,C  24,H  59)          105.3128         0.339543   
    177. A(C  25,C  24,H  59)          109.8010         0.327238   
    178. A(C  23,C  24,H  59)          107.9300         0.319518   
    179. A(C  25,C  24,O  36)          112.1704         0.386965   
    180. A(C  23,C  24,C  25)          110.4266         0.363150   
    181. A(C  28,C  25,C  32)          119.3890         0.436083   
    182. A(C  24,C  25,C  32)          121.1535         0.403797   
    183. A(C  24,C  25,C  28)          119.4572         0.401391   
    184. A(O  27,C  26,H  61)          110.9355         0.340509   
    185. A(H  60,C  26,H  61)          109.0856         0.289302   
    186. A(C  23,C  26,H  61)          108.1970         0.321827   
    187. A(O  27,C  26,H  60)          107.0230         0.342095   
    188. A(C  23,C  26,H  60)          110.3274         0.323296   
    189. A(C  23,C  26,O  27)          111.2606         0.383193   
    190. A(C  26,O  27,H  62)          106.7862         0.359775   
    191. A(C  29,C  28,H  63)          119.7064         0.357513   
    192. A(C  25,C  28,H  63)          119.7745         0.354967   
    193. A(C  25,C  28,C  29)          120.5091         0.436728   
    194. A(C  30,C  29,O  39)          114.7155         0.424990   
    195. A(C  28,C  29,O  39)          125.7274         0.430988   
    196. A(C  28,C  29,C  30)          119.5570         0.433899   
    197. A(C  31,C  30,O  40)          120.4352         0.432632   
    198. A(C  29,C  30,O  40)          119.7334         0.426674   
    199. A(C  29,C  30,C  31)          119.8284         0.433829   
    200. A(C  32,C  31,H  64)          120.8903         0.357297   
    201. A(C  30,C  31,H  64)          119.0103         0.357827   
    202. A(C  30,C  31,C  32)          120.0924         0.439221   
    203. A(C  31,C  32,H  65)          119.7512         0.357183   
    204. A(C  25,C  32,H  65)          119.6747         0.357269   
    205. A(C  25,C  32,C  31)          120.5736         0.438643   
    206. A(H  67,C  33,H  68)          109.3316         0.289147   
    207. A(H  66,C  33,H  68)          109.2703         0.290120   
    208. A(O  19,C  33,H  68)          111.6629         0.340296   
    209. A(H  66,C  33,H  67)          109.2023         0.290219   
    210. A(O  19,C  33,H  67)          111.6797         0.340420   
    211. A(O  19,C  33,H  66)          105.5918         0.341642   
    212. A(H  69,C  34,H  71)          109.7587         0.290109   
    213. A(O  18,C  34,H  71)          105.5338         0.340980   
    214. A(H  69,C  34,H  70)          109.2820         0.289374   
    215. A(O  18,C  34,H  70)          111.3728         0.340059   
    216. A(O  18,C  34,H  69)          111.7754         0.339937   
    217. A(H  70,C  34,H  71)          109.0269         0.290207   
    218. A(H  73,C  35,H  74)          109.4851         0.290359   
    219. A(H  72,C  35,H  74)          109.6898         0.289487   
    220. A(O  22,C  35,H  74)          111.3466         0.340188   
    221. A(H  72,C  35,H  73)          109.2796         0.290367   
    222. A(O  22,C  35,H  73)          105.6166         0.341291   
    223. A(O  22,C  35,H  72)          111.3234         0.340198   
    224. A(C  24,O  36,H  75)          108.6761         0.358178   
    225. A(C  16,O  37,H  76)          107.9012         0.357951   
    226. A(C  17,O  38,H  77)          108.4131         0.358537   
    227. A(C  29,O  39,C  41)          118.4301         0.412492   
    228. A(C  30,O  40,H  78)          107.6124         0.366807   
    229. A(H  80,C  41,H  81)          109.3307         0.290529   
    230. A(H  79,C  41,H  81)          109.5242         0.289544   
    231. A(O  39,C  41,H  81)          111.6289         0.340112   
    232. A(H  79,C  41,H  80)          109.9038         0.290324   
    233. A(O  39,C  41,H  80)          105.2805         0.341088   
    234. A(O  39,C  41,H  79)          111.0842         0.339856   
    235. D(O  20,C   1,C   0,O  19)     -6.4148         0.024188   
    236. D(C   2,C   1,C   0,O  19)    178.9190         0.024188   
    237. D(C   2,C   1,C   0,C   5)     -0.9864         0.024188   
    238. D(O  20,C   1,C   0,C   5)    173.6797         0.024188   
    239. D(O  18,C   2,C   1,C   0)    179.3702         0.024990   
    240. D(C   3,C   2,C   1,C   0)     -0.4979         0.024990   
    241. D(C   3,C   2,C   1,O  20)   -174.6562         0.024990   
    242. D(O  18,C   2,C   1,O  20)      5.2120         0.024990   
    243. D(C   4,C   3,C   2,C   1)      1.8061         0.027370   
    244. D(H  42,C   3,C   2,O  18)      0.8469         0.027370   
    245. D(C   4,C   3,C   2,O  18)   -178.0536         0.027370   
    246. D(H  42,C   3,C   2,C   1)   -179.2933         0.027370   
    247. D(C   6,C   4,C   3,H  42)      0.4063         0.027988   
    248. D(C   5,C   4,C   3,H  42)    179.4737         0.027988   
    249. D(C   5,C   4,C   3,C   2)     -1.6054         0.027988   
    250. D(C   6,C   4,C   3,C   2)    179.3272         0.027988   
    251. D(H  43,C   5,C   4,C   6)     -0.8978         0.028019   
    252. D(H  43,C   5,C   4,C   3)   -179.9427         0.028019   
    253. D(C   0,C   5,C   4,C   3)      0.0865         0.028019   
    254. D(C   4,C   5,C   0,O  19)   -178.6956         0.027501   
    255. D(H  43,C   5,C   0,C   1)   -178.7702         0.027501   
    256. D(H  43,C   5,C   0,O  19)      1.3340         0.027501   
    257. D(C   0,C   5,C   4,C   6)    179.1314         0.028019   
    258. D(C   4,C   5,C   0,C   1)      1.2002         0.027501   
    259. D(H  45,C   6,C   4,C   3)   -163.2217         0.012596   
    260. D(H  44,C   6,C   4,C   5)    136.2285         0.012596   
    261. D(H  44,C   6,C   4,C   3)    -44.7224         0.012596   
    262. D(C   7,C   6,C   4,C   5)   -104.0796         0.012596   
    263. D(C   7,C   6,C   4,C   3)     74.9695         0.012596   
    264. D(C   8,C   7,C   6,H  44)    -38.7661         0.010690   
    265. D(C   8,C   7,C   6,C   4)   -158.3171         0.010690   
    266. D(C  16,C   7,C   6,H  45)    -45.6307         0.010690   
    267. D(C  16,C   7,C   6,H  44)   -163.9967         0.010690   
    268. D(C   8,C   7,C   6,H  45)     79.6000         0.010690   
    269. D(C  16,C   7,C   6,C   4)     76.4523         0.010690   
    270. D(C  17,C   8,C   7,H  46)   -165.2029         0.010562   
    271. D(C  17,C   8,C   7,C  16)     79.1897         0.010562   
    272. D(C  17,C   8,C   7,C   6)    -46.1993         0.010562   
    273. D(C   9,C   8,C   7,C  16)   -156.2970         0.010562   
    274. D(C   9,C   8,C   7,H  46)    -40.6896         0.010562   
    275. D(C   9,C   8,C   7,C   6)     78.3140         0.010562   
    276. D(H  48,C   9,C   8,C  17)     61.1312         0.010670   
    277. D(H  48,C   9,C   8,C   7)    -65.7001         0.010670   
    278. D(C  10,C   9,C   8,H  47)    -59.9706         0.010670   
    279. D(C  10,C   9,C   8,C  17)   -176.4917         0.010670   
    280. D(H  48,C   9,C   8,H  47)    177.6524         0.010670   
    281. D(C  10,C   9,C   8,C   7)     56.6770         0.010670   
    282. D(C  15,C  10,C   9,H  48)     -5.6007         0.012612   
    283. D(C  15,C  10,C   9,C   8)   -128.0368         0.012612   
    284. D(C  11,C  10,C   9,H  49)    -67.8095         0.012612   
    285. D(C  11,C  10,C   9,H  48)    175.3081         0.012612   
    286. D(C  11,C  10,C   9,C   8)     52.8720         0.012612   
    287. D(H  50,C  11,C  10,C  15)    179.9825         0.026338   
    288. D(H  50,C  11,C  10,C   9)     -0.9070         0.026338   
    289. D(C  12,C  11,C  10,C  15)     -0.0171         0.026338   
    290. D(C  12,C  11,C  10,C   9)    179.0934         0.026338   
    291. D(O  22,C  12,C  11,H  50)     -1.6317         0.028839   
    292. D(C  13,C  12,C  11,H  50)    178.3320         0.028839   
    293. D(O  22,C  12,C  11,C  10)    178.3680         0.028839   
    294. D(C  13,C  12,C  11,C  10)     -1.6683         0.028839   
    295. D(O  21,C  13,C  12,C  11)   -177.8809         0.024071   
    296. D(C  14,C  13,C  12,O  22)   -177.9786         0.024071   
    297. D(C  14,C  13,C  12,C  11)      2.0539         0.024071   
    298. D(O  21,C  13,C  12,O  22)      2.0866         0.024071   
    299. D(H  51,C  14,C  13,O  21)     -0.1668         0.028725   
    300. D(H  51,C  14,C  13,C  12)    179.8986         0.028725   
    301. D(C  15,C  14,C  13,O  21)    179.1690         0.028725   
    302. D(C  15,C  14,C  13,C  12)     -0.7656         0.028725   
    303. D(H  52,C  15,C  14,H  51)     -0.2399         0.027891   
    304. D(H  52,C  15,C  14,C  13)   -179.5587         0.027891   
    305. D(C  10,C  15,C  14,H  51)    178.3834         0.027891   
    306. D(C  10,C  15,C  14,C  13)     -0.9354         0.027891   
    307. D(H  52,C  15,C  10,C  11)    179.9445         0.027918   
    308. D(H  52,C  15,C  10,C   9)      0.8372         0.027918   
    309. D(C  14,C  15,C  10,C  11)      1.3299         0.027918   
    310. D(C  14,C  15,C  10,C   9)   -177.7774         0.027918   
    311. D(H  53,C  16,C   7,H  46)   -171.8763         0.010713   
    312. D(H  53,C  16,C   7,C   8)    -56.2082         0.010713   
    313. D(H  53,C  16,C   7,C   6)     71.1368         0.010713   
    314. D(O  37,C  16,C   7,H  46)    -53.7876         0.010713   
    315. D(O  37,C  16,C   7,C   8)     61.8805         0.010713   
    316. D(O  37,C  16,C   7,C   6)   -170.7745         0.010713   
    317. D(H  55,C  17,C   8,H  47)     70.9753         0.010795   
    318. D(H  55,C  17,C   8,C   9)   -171.5628         0.010795   
    319. D(H  55,C  17,C   8,C   7)    -45.6632         0.010795   
    320. D(O  38,C  17,C   8,H  47)    -51.9410         0.010795   
    321. D(O  38,C  17,C   8,C   9)     65.5209         0.010795   
    322. D(O  38,C  17,C   8,C   7)   -168.5795         0.010795   
    323. D(C  34,O  18,C   2,C   3)      4.8385         0.026498   
    324. D(C  34,O  18,C   2,C   1)   -175.0242         0.026498   
    325. D(C  33,O  19,C   0,C   5)     -1.0235         0.028255   
    326. D(C  33,O  19,C   0,C   1)    179.0758         0.028255   
    327. D(C  23,O  20,C   1,C   2)    -53.4921         0.028332   
    328. D(C  23,O  20,C   1,C   0)    132.1738         0.028332   
    329. D(H  57,O  21,C  13,C  14)   -178.7623         0.031028   
    330. D(H  57,O  21,C  13,C  12)      1.1717         0.031028   
    331. D(C  35,O  22,C  12,C  13)    177.9022         0.027169   
    332. D(C  35,O  22,C  12,C  11)     -2.1323         0.027169   
    333. D(H  58,C  23,O  20,C   1)     55.9754         0.021720   
    334. D(C  26,C  23,O  20,C   1)    173.2114         0.021720   
    335. D(C  24,C  23,O  20,C   1)    -66.7411         0.021720   
    336. D(O  36,C  24,C  23,H  58)     70.9684         0.010000   
    337. D(O  36,C  24,C  23,C  26)    -49.9529         0.010000   
    338. D(O  36,C  24,C  23,O  20)   -166.1022         0.010000   
    339. D(C  25,C  24,C  23,H  58)    -54.0758         0.010000   
    340. D(C  25,C  24,C  23,C  26)   -174.9971         0.010000   
    341. D(C  25,C  24,C  23,O  20)     68.8535         0.010000   
    342. D(C  32,C  25,C  24,O  36)    121.6401         0.011938   
    343. D(C  32,C  25,C  24,C  23)   -113.9888         0.011938   
    344. D(C  28,C  25,C  24,H  59)   -174.8685         0.011938   
    345. D(C  28,C  25,C  24,O  36)    -58.1372         0.011938   
    346. D(C  28,C  25,C  24,C  23)     66.2340         0.011938   
    347. D(H  60,C  26,C  23,H  58)    -65.6458         0.010808   
    348. D(H  60,C  26,C  23,C  24)     55.7884         0.010808   
    349. D(H  60,C  26,C  23,O  20)    176.2643         0.010808   
    350. D(O  27,C  26,C  23,H  58)     52.9834         0.010808   
    351. D(O  27,C  26,C  23,C  24)    174.4176         0.010808   
    352. D(O  27,C  26,C  23,O  20)    -65.1064         0.010808   
    353. D(H  62,O  27,C  26,H  61)    -68.5214         0.022850   
    354. D(H  62,O  27,C  26,H  60)    172.5796         0.022850   
    355. D(H  62,O  27,C  26,C  23)     51.9849         0.022850   
    356. D(H  63,C  28,C  25,C  32)   -178.9244         0.026371   
    357. D(H  63,C  28,C  25,C  24)      0.8568         0.026371   
    358. D(C  29,C  28,C  25,C  32)      2.2342         0.026371   
    359. D(C  29,C  28,C  25,C  24)   -177.9845         0.026371   
    360. D(C  30,C  29,C  28,H  63)   -179.5286         0.028842   
    361. D(C  30,C  29,C  28,C  25)     -0.6865         0.028842   
    362. D(O  39,C  29,C  28,H  63)      0.5726         0.028842   
    363. D(O  39,C  29,C  28,C  25)    179.4147         0.028842   
    364. D(O  40,C  30,C  29,O  39)     -0.7607         0.024435   
    365. D(O  40,C  30,C  29,C  28)    179.3297         0.024435   
    366. D(C  31,C  30,C  29,O  39)    178.6054         0.024435   
    367. D(C  31,C  30,C  29,C  28)     -1.3041         0.024435   
    368. D(H  64,C  31,C  30,O  40)      2.0515         0.028787   
    369. D(H  64,C  31,C  30,C  29)   -177.3101         0.028787   
    370. D(C  32,C  31,C  30,O  40)   -178.9032         0.028787   
    371. D(C  32,C  31,C  30,C  29)      1.7352         0.028787   
    372. D(H  65,C  32,C  31,H  64)     -1.4116         0.028256   
    373. D(H  65,C  32,C  31,C  30)    179.5613         0.028256   
    374. D(C  25,C  32,C  31,H  64)    178.8543         0.028256   
    375. D(C  25,C  32,C  31,C  30)     -0.1728         0.028256   
    376. D(H  65,C  32,C  25,C  28)    178.4583         0.028342   
    377. D(H  65,C  32,C  25,C  24)     -1.3191         0.028342   
    378. D(C  31,C  32,C  25,C  28)     -1.8074         0.028342   
    379. D(C  31,C  32,C  25,C  24)    178.4152         0.028342   
    380. D(H  68,C  33,O  19,C   0)     61.3811         0.022152   
    381. D(H  67,C  33,O  19,C   0)    -61.3846         0.022152   
    382. D(H  66,C  33,O  19,C   0)   -179.9654         0.022152   
    383. D(H  71,C  34,O  18,C   2)    177.5852         0.021747   
    384. D(H  70,C  34,O  18,C   2)     59.4119         0.021747   
    385. D(H  69,C  34,O  18,C   2)    -63.1482         0.021747   
    386. D(H  74,C  35,O  22,C  12)    -58.9781         0.023716   
    387. D(H  73,C  35,O  22,C  12)   -177.7353         0.023716   
    388. D(H  72,C  35,O  22,C  12)     63.7660         0.023716   
    389. D(H  75,O  36,C  24,H  59)    175.7260         0.021413   
    390. D(H  75,O  36,C  24,C  25)     56.3303         0.021413   
    391. D(H  75,O  36,C  24,C  23)    -67.7266         0.021413   
    392. D(H  76,O  37,C  16,H  54)    -60.0611         0.022256   
    393. D(H  76,O  37,C  16,H  53)   -177.2231         0.022256   
    394. D(H  76,O  37,C  16,C   7)     61.8015         0.022256   
    395. D(H  77,O  38,C  17,H  56)   -179.3585         0.021653   
    396. D(H  77,O  38,C  17,H  55)    -62.8052         0.021653   
    397. D(H  77,O  38,C  17,C   8)     60.0851         0.021653   
    398. D(C  41,O  39,C  29,C  30)   -171.7908         0.028497   
    399. D(C  41,O  39,C  29,C  28)      8.1122         0.028497   
    400. D(H  78,O  40,C  30,C  31)   -178.1855         0.029878   
    401. D(H  78,O  40,C  30,C  29)      1.1767         0.029878   
    402. D(H  81,C  41,O  39,C  29)    -61.9820         0.023502   
    403. D(H  80,C  41,O  39,C  29)    179.4977         0.023502   
    404. D(H  79,C  41,O  39,C  29)     60.5785         0.023502   
    -----------------------------------------------------------------

Number of atoms                         .... 82
Number of degrees of freedom            .... 404


         *************************************************************
         *                GEOMETRY OPTIMIZATION CYCLE   1            *
         *************************************************************
---------------------------------
CARTESIAN COORDINATES (ANGSTROEM)
---------------------------------
  C     21.077006  -30.143206    2.119555
  C     21.678356  -29.876763    0.878761
  C     20.970857  -30.155263   -0.296927
  C     19.695519  -30.697886   -0.214249
  C     19.094396  -30.934944    1.011431
  C     19.789095  -30.657006    2.177446
  C     17.706030  -31.509777    1.044891
  C     17.725624  -33.005851    0.697373
  C     16.378684  -33.553324    0.196565
  C     16.119780  -33.186570   -1.272671
  C     17.194895  -33.646563   -2.216645
  C     17.601350  -34.979263   -2.229551
  C     18.576135  -35.412413   -3.107871
  C     19.144200  -34.512627   -4.025282
  C     18.747754  -33.188554   -4.007414
  C     17.788200  -32.761599   -3.102959
  C     18.228579  -33.832715    1.889744
  C     15.181286  -33.113527    1.049689
  O     21.589896  -29.867672   -1.484810
  O     21.848954  -29.861943    3.205677
  O     22.898025  -29.245906    0.927340
  O     20.074463  -34.944796   -4.922079
  O     19.073274  -36.696908   -3.182508
  C     23.991170  -29.728249    0.161942
  C     24.466210  -31.118480    0.656789
  C     23.425376  -32.170258    0.352753
  C     25.088493  -28.672644    0.351779
  O     24.713425  -27.443364   -0.207551
  C     23.145132  -32.493713   -0.973091
  C     22.168158  -33.422309   -1.277164
  C     21.465268  -34.052513   -0.239244
  C     21.773324  -33.760437    1.075936
  C     22.748039  -32.821949    1.368585
  C     21.309288  -30.083348    4.484634
  C     20.856920  -30.039669   -2.674735
  C     18.587552  -37.648292   -2.265980
  O     25.726314  -31.444343    0.114190
  O     18.458154  -35.176493    1.549406
  O     14.009169  -33.826453    0.729936
  O     21.797578  -33.811858   -2.540823
  O     20.488323  -34.961793   -0.536275
  C     22.566430  -33.364380   -3.633076
  H     19.142833  -30.928323   -1.110074
  H     19.314867  -30.845063    3.126983
  H     17.092269  -30.984296    0.312295
  H     17.260757  -31.365011    2.029668
  H     18.448330  -33.151518   -0.114264
  H     16.447899  -34.645065    0.277076
  H     16.007310  -32.104204   -1.358722
  H     15.165260  -33.633942   -1.564932
  H     17.146810  -35.675410   -1.544544
  H     19.191303  -32.505869   -4.714841
  H     17.485519  -31.724615   -3.108337
  H     17.483931  -33.851226    2.689994
  H     19.142868  -33.366450    2.281041
  H     15.415556  -33.232128    2.116337
  H     14.936638  -32.065609    0.864829
  H     20.194194  -35.894200   -4.782318
  H     23.721030  -29.779707   -0.900511
  H     24.624638  -31.055254    1.737955
  H     26.005584  -28.985021   -0.149463
  H     25.284081  -28.570876    1.427801
  H     23.843368  -27.227661    0.151180
  H     23.682160  -32.001740   -1.769953
  H     21.255501  -34.284323    1.862873
  H     22.979052  -32.593117    2.396805
  H     22.090142  -29.793334    5.186019
  H     20.420720  -29.468542    4.660631
  H     21.057177  -31.137900    4.640113
  H     20.573724  -31.085667   -2.829646
  H     19.957414  -29.416883   -2.682507
  H     21.520591  -29.715198   -3.475780
  H     17.517768  -37.827733   -2.408256
  H     19.136824  -38.564636   -2.475965
  H     18.775292  -37.338724   -1.233552
  H     25.628107  -31.578837   -0.835478
  H     19.149743  -35.197914    0.869287
  H     14.170502  -34.763798    0.886992
  H     20.447599  -35.043800   -1.501003
  H     23.601618  -33.710860   -3.554134
  H     22.095883  -33.799990   -4.512769
  H     22.551325  -32.274445   -3.716887

----------------------------
CARTESIAN COORDINATES (A.U.)
----------------------------
  NO LB      ZA    FRAG     MASS         X           Y           Z
   0 C     6.0000    0    12.011   39.829769  -56.962403    4.005379
   1 C     6.0000    0    12.011   40.966155  -56.458900    1.660618
   2 C     6.0000    0    12.011   39.629176  -56.985189   -0.561110
   3 C     6.0000    0    12.011   37.219138  -58.010597   -0.404872
   4 C     6.0000    0    12.011   36.083179  -58.458573    1.911327
   5 C     6.0000    0    12.011   37.395969  -57.933346    4.114777
   6 C     6.0000    0    12.011   33.459549  -59.544849    1.974557
   7 C     6.0000    0    12.011   33.496574  -62.372019    1.317844
   8 C     6.0000    0    12.011   30.951228  -63.406593    0.371455
   9 C     6.0000    0    12.011   30.461970  -62.713529   -2.405000
  10 C     6.0000    0    12.011   32.493642  -63.582790   -4.188851
  11 C     6.0000    0    12.011   33.261732  -66.101228   -4.213240
  12 C     6.0000    0    12.011   35.103808  -66.919763   -5.873024
  13 C     6.0000    0    12.011   36.177296  -65.219413   -7.606681
  14 C     6.0000    0    12.011   35.428120  -62.717278   -7.572915
  15 C     6.0000    0    12.011   33.614827  -61.910449   -5.863742
  16 C     6.0000    0    12.011   34.447022  -63.934567    3.571098
  17 C     6.0000    0    12.011   28.688473  -62.575497    1.983624
  18 O     8.0000    0    15.999   40.798991  -56.441719   -2.805884
  19 O     8.0000    0    15.999   41.288539  -56.430894    6.057852
  20 O     8.0000    0    15.999   43.270996  -55.266753    1.752418
  21 O     8.0000    0    15.999   37.935237  -66.036095   -9.301382
  22 O     8.0000    0    15.999   36.043264  -69.347107   -6.014069
  23 C     6.0000    0    12.011   45.336741  -56.178248    0.306026
  24 C     6.0000    0    12.011   46.234436  -58.805405    1.241152
  25 C     6.0000    0    12.011   44.267546  -60.792976    0.666607
  26 C     6.0000    0    12.011   47.410380  -54.183444    0.664767
  27 O     8.0000    0    15.999   46.701604  -51.860441   -0.392214
  28 C     6.0000    0    12.011   43.737961  -61.404219   -1.838876
  29 C     6.0000    0    12.011   41.891748  -63.159010   -2.413490
  30 C     6.0000    0    12.011   40.563478  -64.349925   -0.452106
  31 C     6.0000    0    12.011   41.145620  -63.797981    2.033224
  32 C     6.0000    0    12.011   42.987564  -62.024494    2.586251
  33 C     6.0000    0    12.011   40.268718  -56.849289    8.474731
  34 C     6.0000    0    12.011   39.413867  -56.766747   -5.054517
  35 C     6.0000    0    12.011   35.125383  -71.144962   -4.282082
  36 O     8.0000    0    15.999   48.615688  -59.421197    0.215788
  37 O     8.0000    0    15.999   34.880857  -66.473938    2.927954
  38 O     8.0000    0    15.999   26.473493  -63.922732    1.379379
  39 O     8.0000    0    15.999   41.191453  -63.895151   -4.801459
  40 O     8.0000    0    15.999   38.717319  -66.068215   -1.013414
  41 C     6.0000    0    12.011   42.644372  -63.049540   -6.865518
  42 H     1.0000    0     1.008   36.174711  -58.446060   -2.097736
  43 H     1.0000    0     1.008   36.499810  -58.288722    5.909141
  44 H     1.0000    0     1.008   32.299708  -58.551833    0.590152
  45 H     1.0000    0     1.008   32.618104  -59.271280    3.835517
  46 H     1.0000    0     1.008   34.862291  -62.647290   -0.215927
  47 H     1.0000    0     1.008   31.082024  -65.469684    0.523599
  48 H     1.0000    0     1.008   30.249431  -60.668154   -2.567613
  49 H     1.0000    0     1.008   28.658188  -63.558939   -2.957294
  50 H     1.0000    0     1.008   32.402775  -67.416755   -2.918765
  51 H     1.0000    0     1.008   36.266306  -61.427191   -8.909758
  52 H     1.0000    0     1.008   33.042843  -59.950834   -5.873906
  53 H     1.0000    0     1.008   33.039840  -63.969546    5.083353
  54 H     1.0000    0     1.008   36.174777  -63.053453    4.310544
  55 H     1.0000    0     1.008   29.131180  -62.799620    3.999298
  56 H     1.0000    0     1.008   28.226155  -60.595219    1.634290
  57 H     1.0000    0     1.008   38.161496  -67.830208   -9.037272
  58 H     1.0000    0     1.008   44.826250  -56.275490   -1.701719
  59 H     1.0000    0     1.008   46.533823  -58.685924    3.284259
  60 H     1.0000    0     1.008   49.143431  -54.773752   -0.282443
  61 H     1.0000    0     1.008   47.779988  -53.991130    2.698152
  62 H     1.0000    0     1.008   45.057435  -51.452822    0.285688
  63 H     1.0000    0     1.008   44.752797  -60.474525   -3.344727
  64 H     1.0000    0     1.008   40.167076  -64.787981    3.520319
  65 H     1.0000    0     1.008   43.424115  -61.592066    4.529304
  66 H     1.0000    0     1.008   41.744319  -56.301241    9.800155
  67 H     1.0000    0     1.008   38.589569  -55.687475    8.807316
  68 H     1.0000    0     1.008   39.792298  -58.842104    8.768543
  69 H     1.0000    0     1.008   38.878704  -58.743398   -5.347256
  70 H     1.0000    0     1.008   37.714046  -55.589853   -5.069203
  71 H     1.0000    0     1.008   40.668024  -56.153586   -6.568273
  72 H     1.0000    0     1.008   33.103784  -71.484056   -4.550945
  73 H     1.0000    0     1.008   36.163357  -72.876601   -4.678896
  74 H     1.0000    0     1.008   35.480159  -70.559963   -2.331076
  75 H     1.0000    0     1.008   48.430103  -59.675353   -1.578824
  76 H     1.0000    0     1.008   36.187770  -66.514418    1.642715
  77 H     1.0000    0     1.008   26.778367  -65.694058    1.676171
  78 H     1.0000    0     1.008   38.640362  -66.223184   -2.836484
  79 H     1.0000    0     1.008   44.600595  -63.704293   -6.716340
  80 H     1.0000    0     1.008   41.755167  -63.872725   -8.527898
  81 H     1.0000    0     1.008   42.615828  -60.989861   -7.023899

--------------------------------
INTERNAL COORDINATES (ANGSTROEM)
--------------------------------
 C      0   0   0     0.000000000000     0.00000000     0.00000000
 C      1   0   0     1.404344164750     0.00000000     0.00000000
 C      2   1   0     1.400128237832   119.19559918     0.00000000
 C      3   2   1     1.388437951819   119.46445930   359.50210357
 C      4   3   2     1.385582014986   121.20095287     1.80614889
 C      5   4   3     1.385441806561   119.51361232   358.39462197
 C      5   4   3     1.503033714513   119.06943838   179.32722112
 C      7   5   4     1.536030588908   110.83514952    74.96947962
 C      8   7   5     1.537784242666   114.15841920   201.68291285
 C      9   8   7     1.536292880173   111.96708602    78.31401556
 C     10   9   8     1.502847344625   114.02135569    56.67696052
 C     11  10   9     1.393363753787   120.48124306    52.87199281
 C     12  11  10     1.381763363879   120.76415944   179.09340119
 C     13  12  11     1.404976016368   119.96959476   358.33168287
 C     14  13  12     1.382265503141   119.27894425     2.05389904
 C     11  10   9     1.385902586770   120.83100664   231.96321669
 C      8   7   5     1.535713889615   110.66681306    76.45228614
 C      9   8   7     1.534601892117   113.60044884   313.80068880
 O      3   2   1     1.370030915596   117.25717382   179.37022947
 O      1   2   3     1.361863562545   115.00775648   178.91901906
 O      2   1   3     1.374020867542   115.84742700   174.66616362
 O     14  13  12     1.362499196724   120.17926266   182.11906423
 O     13  12  11     1.379364318190   125.49055147   178.36796657
 C     21   2   1     1.418962262678   120.57729300   132.17384523
 C     24  21   2     1.550251329364   111.63694897   293.25885048
 C     25  24  21     1.510631836471   110.42660712    68.85350442
 C     24  21   2     1.534423874191   104.49779407   173.21136992
 O     27  24  21     1.401661711976   111.26059381   294.89356540
 C     26  25  24     1.393206142729   119.45716070    66.23395078
 C     29  26  25     1.381748250870   120.50905152   182.01547161
 C     30  29  26     1.403029351473   119.55702667   359.31349600
 C     31  30  29     1.381993088983   119.82835203   358.69585982
 C     26  25  24     1.383980396603   121.15351148   246.01124134
 C     20   1   2     1.405699865222   118.39030723   179.07582139
 C     19   3   2     1.408104870980   118.15506899   184.97584884
 C     23  13  12     1.407508412612   118.02359341   357.86767675
 O     25  24  21     1.410128828568   110.99184336   193.89775074
 O     17   8   7     1.405088054518   112.35696291   189.22550719
 O     18   9   8     1.408674634703   112.21032765   191.42046750
 O     30  29  26     1.373284644416   125.72737239   179.41474008
 O     31  30  29     1.367274429621   119.73341894   179.32973834
 C     40  30  29     1.408682571462   118.43007510     8.11224459
 H      4   3   2     1.077527949404   120.34542930   180.70668714
 H      6   5   4     1.077903765587   119.06405930   180.05730396
 H      7   5   4     1.090655802227   108.69889883   315.27758234
 H      7   5   4     1.090418126622   110.27507010   196.77826535
 H      8   7   5     1.096483916749   107.77446607   320.13055470
 H      9   8   7     1.096891323856   105.97208725   196.51718076
 H     10   9   8     1.091590841661   109.23616375   294.29989611
 H     10   9   8     1.093922877461   107.75372960   178.24199741
 H     12  11  10     1.077247020372   119.28260629   359.09304930
 H     15  14  13     1.078539016743   118.67852321   179.89861869
 H     16  11  10     1.080268477732   119.74865874     0.83721950
 H     17   8   7     1.093272904571   110.75502262    71.13679004
 H     17   8   7     1.098380964393   108.70253398   312.31386478
 H     18   9   8     1.098493290002   110.02703885   314.33677235
 H     18   9   8     1.091859941914   110.84016158    74.23207058
 H     22  14  13     0.967075973588   107.50572298     1.17167032
 H     24  21   2     1.097465263592   110.39601055    55.97536679
 H     25  24  21     1.094539172497   107.93003580   308.82425525
 H     27  24  21     1.090815846115   110.32741025   176.26432584
 H     27  24  21     1.098377476909   108.19702465    57.00047228
 H     28  27  24     0.965512361335   106.78620245    51.98492285
 H     29  26  25     1.079548804889   119.77448536     0.85682001
 H     32  31  30     1.077899172602   119.01028493   182.68987220
 H     33  26  25     1.078409028820   119.67467002   358.68090848
 H     34  20   1     1.088936196036   105.59180221   180.03461627
 H     34  20   1     1.094766183879   111.67967476   298.61537524
 H     34  20   1     1.095359913056   111.66286009    61.38114063
 H     35  19   3     1.094673494304   111.77537851   296.85177659
 H     35  19   3     1.094090378324   111.37283918    59.41190806
 H     35  19   3     1.089685445820   105.53382070   177.58517479
 H     36  23  13     1.094019842173   111.32338109    63.76603487
 H     36  23  13     1.088797905513   105.61657018   182.26470909
 H     36  23  13     1.094068294052   111.34663046   301.02193645
 H     37  25  24     0.964158908378   108.67608881   292.27341779
 H     38  17   8     0.970214110416   107.90118027    61.80145919
 H     39  18   9     0.964008102813   108.41311156    60.08512115
 H     41  31  30     0.969062484965   107.61242143     1.17672353
 H     42  40  30     1.094484049204   111.08422545    60.57847304
 H     42  40  30     1.088591603615   105.28050216   179.49765001
 H     42  40  30     1.093257110840   111.62885714   298.01800322

---------------------------
INTERNAL COORDINATES (A.U.)
---------------------------
 C      0   0   0     0.000000000000     0.00000000     0.00000000
 C      1   0   0     2.653825869148     0.00000000     0.00000000
 C      2   1   0     2.645858921873   119.19559918     0.00000000
 C      3   2   1     2.623767482881   119.46445930   359.50210357
 C      4   3   2     2.618370544409   121.20095287     1.80614889
 C      5   4   3     2.618105588886   119.51361232   358.39462197
 C      5   4   3     2.840322090479   119.06943838   179.32722112
 C      7   5   4     2.902677146361   110.83514952    74.96947962
 C      8   7   5     2.905991071699   114.15841920   201.68291285
 C      9   8   7     2.903172805020   111.96708602    78.31401556
 C     10   9   8     2.839969902431   114.02135569    56.67696052
 C     11  10   9     2.633075899590   120.48124306    52.87199281
 C     12  11  10     2.611154339616   120.76415944   179.09340119
 C     13  12  11     2.655019895663   119.96959476   358.33168287
 C     14  13  12     2.612103245303   119.27894425     2.05389904
 C     11  10   9     2.618976337287   120.83100664   231.96321669
 C      8   7   5     2.902078671431   110.66681306    76.45228614
 C      9   8   7     2.899977300699   113.60044884   313.80068880
 O      3   2   1     2.588983225483   117.25717382   179.37022947
 O      1   2   3     2.573549164976   115.00775648   178.91901906
 O      2   1   3     2.596523141948   115.84742700   174.66616362
 O     14  13  12     2.574750339496   120.17926266   182.11906423
 O     13  12  11     2.606620800282   125.49055147   178.36796657
 C     21   2   1     2.681450070830   120.57729300   132.17384523
 C     24  21   2     2.929550451246   111.63694897   293.25885048
 C     25  24  21     2.854680460113   110.42660712    68.85350442
 C     24  21   2     2.899640895572   104.49779407   173.21136992
 O     27  24  21     2.648756768038   111.26059381   294.89356540
 C     26  25  24     2.632778057855   119.45716070    66.23395078
 C     29  26  25     2.611125780168   120.50905152   182.01547161
 C     30  29  26     2.651341232136   119.55702667   359.31349600
 C     31  30  29     2.611588457150   119.82835203   358.69585982
 C     26  25  24     2.615343924295   121.15351148   246.01124134
 C     20   1   2     2.656387771760   118.39030723   179.07582139
 C     19   3   2     2.660932573993   118.15506899   184.97584884
 C     23  13  12     2.659805431028   118.02359341   357.86767675
 O     25  24  21     2.664757299540   110.99184336   193.89775074
 O     17   8   7     2.655231617084   112.35696291   189.22550719
 O     18   9   8     2.662009271391   112.21032765   191.42046750
 O     30  29  26     2.595131881865   125.72737239   179.41474008
 O     31  30  29     2.583774221897   119.73341894   179.32973834
 C     40  30  29     2.662024269692   118.43007510     8.11224459
 H      4   3   2     2.036232726020   120.34542930   180.70668714
 H      6   5   4     2.036942915683   119.06405930   180.05730396
 H      7   5   4     2.061040772580   108.69889883   315.27758234
 H      7   5   4     2.060591630779   110.27507010   196.77826535
 H      8   7   5     2.072054312905   107.77446607   320.13055470
 H      9   8   7     2.072824200763   105.97208725   196.51718076
 H     10   9   8     2.062807741036   109.23616375   294.29989611
 H     10   9   8     2.067214650033   107.75372960   178.24199741
 H     12  11  10     2.035701847086   119.28260629   359.09304930
 H     15  14  13     2.038143366393   118.67852321   179.89861869
 H     16  11  10     2.041411574022   119.74865874     0.83721950
 H     17   8   7     2.065986379277   110.75502262    71.13679004
 H     17   8   7     2.075639213415   108.70253398   312.31386478
 H     18   9   8     2.075851478055   110.02703885   314.33677235
 H     18   9   8     2.063316266817   110.84016158    74.23207058
 H     22  14  13     1.827508740777   107.50572298     1.17167032
 H     24  21   2     2.073908789681   110.39601055    55.97536679
 H     25  24  21     2.068379278867   107.93003580   308.82425525
 H     27  24  21     2.061343211699   110.32741025   176.26432584
 H     27  24  21     2.075632623026   108.19702465    57.00047228
 H     28  27  24     1.824553941838   106.78620245    51.98492285
 H     29  26  25     2.040051589442   119.77448536     0.85682001
 H     32  31  30     2.036934236199   119.01028493   182.68987220
 H     33  26  25     2.037897724817   119.67467002   358.68090848
 H     34  20   1     2.057791187822   105.59180221   180.03461627
 H     34  20   1     2.068808268210   111.67967476   298.61537524
 H     34  20   1     2.069930253751   111.66286009    61.38114063
 H     35  19   3     2.068633110297   111.77537851   296.85177659
 H     35  19   3     2.067531180791   111.37283918    59.41190806
 H     35  19   3     2.059207064720   105.53382070   177.58517479
 H     36  23  13     2.067397886782   111.32338109    63.76603487
 H     36  23  13     2.057529856607   105.61657018   182.26470909
 H     36  23  13     2.067489447565   111.34663046   301.02193645
 H     37  25  24     1.821996286414   108.67608881   292.27341779
 H     38  17   8     1.833438959953   107.90118027    61.80145919
 H     39  18   9     1.821711305197   108.41311156    60.08512115
 H     41  31  30     1.831262703240   107.61242143     1.17672353
 H     42  40  30     2.068275110941   111.08422545    60.57847304
 H     42  40  30     2.057140002519   105.28050216   179.49765001
 H     42  40  30     2.065956533451   111.62885714   298.01800322

---------------------
BASIS SET INFORMATION
---------------------
There are 3 groups of distinct atoms

 Group   1 Type C   : 11s6p2d1f contracted to 5s3p2d1f pattern {62111/411/11/1}
 Group   2 Type O   : 11s6p2d1f contracted to 5s3p2d1f pattern {62111/411/11/1}
 Group   3 Type H   : 5s1p contracted to 3s1p pattern {311/1}

Atom   0C    basis set group =>   1
Atom   1C    basis set group =>   1
Atom   2C    basis set group =>   1
Atom   3C    basis set group =>   1
Atom   4C    basis set group =>   1
Atom   5C    basis set group =>   1
Atom   6C    basis set group =>   1
Atom   7C    basis set group =>   1
Atom   8C    basis set group =>   1
Atom   9C    basis set group =>   1
Atom  10C    basis set group =>   1
Atom  11C    basis set group =>   1
Atom  12C    basis set group =>   1
Atom  13C    basis set group =>   1
Atom  14C    basis set group =>   1
Atom  15C    basis set group =>   1
Atom  16C    basis set group =>   1
Atom  17C    basis set group =>   1
Atom  18O    basis set group =>   2
Atom  19O    basis set group =>   2
Atom  20O    basis set group =>   2
Atom  21O    basis set group =>   2
Atom  22O    basis set group =>   2
Atom  23C    basis set group =>   1
Atom  24C    basis set group =>   1
Atom  25C    basis set group =>   1
Atom  26C    basis set group =>   1
Atom  27O    basis set group =>   2
Atom  28C    basis set group =>   1
Atom  29C    basis set group =>   1
Atom  30C    basis set group =>   1
Atom  31C    basis set group =>   1
Atom  32C    basis set group =>   1
Atom  33C    basis set group =>   1
Atom  34C    basis set group =>   1
Atom  35C    basis set group =>   1
Atom  36O    basis set group =>   2
Atom  37O    basis set group =>   2
Atom  38O    basis set group =>   2
Atom  39O    basis set group =>   2
Atom  40O    basis set group =>   2
Atom  41C    basis set group =>   1
Atom  42H    basis set group =>   3
Atom  43H    basis set group =>   3
Atom  44H    basis set group =>   3
Atom  45H    basis set group =>   3
Atom  46H    basis set group =>   3
Atom  47H    basis set group =>   3
Atom  48H    basis set group =>   3
Atom  49H    basis set group =>   3
Atom  50H    basis set group =>   3
Atom  51H    basis set group =>   3
Atom  52H    basis set group =>   3
Atom  53H    basis set group =>   3
Atom  54H    basis set group =>   3
Atom  55H    basis set group =>   3
Atom  56H    basis set group =>   3
Atom  57H    basis set group =>   3
Atom  58H    basis set group =>   3
Atom  59H    basis set group =>   3
Atom  60H    basis set group =>   3
Atom  61H    basis set group =>   3
Atom  62H    basis set group =>   3
Atom  63H    basis set group =>   3
Atom  64H    basis set group =>   3
Atom  65H    basis set group =>   3
Atom  66H    basis set group =>   3
Atom  67H    basis set group =>   3
Atom  68H    basis set group =>   3
Atom  69H    basis set group =>   3
Atom  70H    basis set group =>   3
Atom  71H    basis set group =>   3
Atom  72H    basis set group =>   3
Atom  73H    basis set group =>   3
Atom  74H    basis set group =>   3
Atom  75H    basis set group =>   3
Atom  76H    basis set group =>   3
Atom  77H    basis set group =>   3
Atom  78H    basis set group =>   3
Atom  79H    basis set group =>   3
Atom  80H    basis set group =>   3
Atom  81H    basis set group =>   3
---------------------------------
AUXILIARY/J BASIS SET INFORMATION
---------------------------------
There are 3 groups of distinct atoms

 Group   1 Type C   : 12s5p4d2f1g contracted to 6s4p3d1f1g pattern {711111/2111/211/2/1}
 Group   2 Type O   : 12s5p4d2f1g contracted to 6s4p3d1f1g pattern {711111/2111/211/2/1}
 Group   3 Type H   : 5s2p1d contracted to 3s1p1d pattern {311/2/1}

Atom   0C    basis set group =>   1
Atom   1C    basis set group =>   1
Atom   2C    basis set group =>   1
Atom   3C    basis set group =>   1
Atom   4C    basis set group =>   1
Atom   5C    basis set group =>   1
Atom   6C    basis set group =>   1
Atom   7C    basis set group =>   1
Atom   8C    basis set group =>   1
Atom   9C    basis set group =>   1
Atom  10C    basis set group =>   1
Atom  11C    basis set group =>   1
Atom  12C    basis set group =>   1
Atom  13C    basis set group =>   1
Atom  14C    basis set group =>   1
Atom  15C    basis set group =>   1
Atom  16C    basis set group =>   1
Atom  17C    basis set group =>   1
Atom  18O    basis set group =>   2
Atom  19O    basis set group =>   2
Atom  20O    basis set group =>   2
Atom  21O    basis set group =>   2
Atom  22O    basis set group =>   2
Atom  23C    basis set group =>   1
Atom  24C    basis set group =>   1
Atom  25C    basis set group =>   1
Atom  26C    basis set group =>   1
Atom  27O    basis set group =>   2
Atom  28C    basis set group =>   1
Atom  29C    basis set group =>   1
Atom  30C    basis set group =>   1
Atom  31C    basis set group =>   1
Atom  32C    basis set group =>   1
Atom  33C    basis set group =>   1
Atom  34C    basis set group =>   1
Atom  35C    basis set group =>   1
Atom  36O    basis set group =>   2
Atom  37O    basis set group =>   2
Atom  38O    basis set group =>   2
Atom  39O    basis set group =>   2
Atom  40O    basis set group =>   2
Atom  41C    basis set group =>   1
Atom  42H    basis set group =>   3
Atom  43H    basis set group =>   3
Atom  44H    basis set group =>   3
Atom  45H    basis set group =>   3
Atom  46H    basis set group =>   3
Atom  47H    basis set group =>   3
Atom  48H    basis set group =>   3
Atom  49H    basis set group =>   3
Atom  50H    basis set group =>   3
Atom  51H    basis set group =>   3
Atom  52H    basis set group =>   3
Atom  53H    basis set group =>   3
Atom  54H    basis set group =>   3
Atom  55H    basis set group =>   3
Atom  56H    basis set group =>   3
Atom  57H    basis set group =>   3
Atom  58H    basis set group =>   3
Atom  59H    basis set group =>   3
Atom  60H    basis set group =>   3
Atom  61H    basis set group =>   3
Atom  62H    basis set group =>   3
Atom  63H    basis set group =>   3
Atom  64H    basis set group =>   3
Atom  65H    basis set group =>   3
Atom  66H    basis set group =>   3
Atom  67H    basis set group =>   3
Atom  68H    basis set group =>   3
Atom  69H    basis set group =>   3
Atom  70H    basis set group =>   3
Atom  71H    basis set group =>   3
Atom  72H    basis set group =>   3
Atom  73H    basis set group =>   3
Atom  74H    basis set group =>   3
Atom  75H    basis set group =>   3
Atom  76H    basis set group =>   3
Atom  77H    basis set group =>   3
Atom  78H    basis set group =>   3
Atom  79H    basis set group =>   3
Atom  80H    basis set group =>   3
Atom  81H    basis set group =>   3
--------------------------------------------------------------------------
WARNING: There is at least one non-excluded one OpenFabrics device found,
but there are no active ports detected (or Open MPI was unable to use
them).  This is most certainly not what you wanted.  Check your
cables, subnet manager configuration, etc.  The openib BTL will be
ignored for this job.

  Local host: c01b01n04
--------------------------------------------------------------------------
--------------------------------------------------------------------------
WARNING: There was an error initializing an OpenFabrics device.

  Local host:   c01b01n04
  Local device: mlx5_0
--------------------------------------------------------------------------


           ************************************************************
           *        Program running with 64 parallel MPI-processes    *
           *              working on a common directory               *
           ************************************************************
------------------------------------------------------------------------------
                             ORCA STARTUP CALCULATIONS
                           -- RI-GTO INTEGRALS CHOSEN --
------------------------------------------------------------------------------
------------------------------------------------------------------------------
                   ___                                                        
                  /   \      - P O W E R E D   B Y -                         
                 /     \                                                     
                 |  |  |   _    _      __       _____    __    __             
                 |  |  |  | |  | |    /  \     |  _  \  |  |  /  |          
                  \  \/   | |  | |   /    \    | | | |  |  | /  /          
                 / \  \   | |__| |  /  /\  \   | |_| |  |  |/  /          
                |  |  |   |  __  | /  /__\  \  |    /   |      \           
                |  |  |   | |  | | |   __   |  |    \   |  |\   \          
                \     /   | |  | | |  |  |  |  | |\  \  |  | \   \       
                 \___/    |_|  |_| |__|  |__|  |_| \__\ |__|  \__/        
                                                                              
                      - O R C A' S   B I G   F R I E N D -                    
                                      &                                       
                       - I N T E G R A L  F E E D E R -                       
                                                                              
 v1 FN, 2020, v2 2021, v3 2022-2024                                           
------------------------------------------------------------------------------


----------------------
SHARK INTEGRAL PACKAGE
----------------------

Number of atoms                             ...     82
Number of basis functions                   ...   1542
Number of shells                            ...    622
Maximum angular momentum                    ...      3
Integral batch strategy                     ... SHARK/LIBINT Hybrid
RI-J (if used) integral strategy            ... SPLIT-RIJ (Revised 2003 algorithm where possible)
Printlevel                                  ...      1
Contraction scheme used                     ... SEGMENTED contraction
Prescreening option                         ... SCHWARTZ
   Thresh                                   ... 2.500e-11
   Tcut                                     ... 2.500e-12
   Tpresel                                  ... 2.500e-12 
Coulomb Range Separation                    ... NOT USED
Exchange Range Separation                   ... NOT USED
Multipole approximations                    ... NOT USED
Finite Nucleus Model                        ... NOT USED
CABS basis                                  ... NOT available
Auxiliary Coulomb fitting basis             ... AVAILABLE
   # of basis functions in Aux-J            ...   2498
   # of shells in Aux-J                     ...    830
   Maximum angular momentum in Aux-J        ...      4
Auxiliary J/K fitting basis                 ... NOT available
Auxiliary Correlation fitting basis         ... NOT available
Auxiliary 'external' fitting basis          ... NOT available

Checking pre-screening integrals            ... done (  0.3 sec) Dimension = 622
   => SHARK Basis and OBASIS are compatible. Storing Pre-screening
Shell pair information
Shell pair cut-off parameter TPreSel        ...   2.5e-12
Total number of shell pairs                 ...    193753
Shell pairs after pre-screening             ...    116079
Total number of primitive shell pairs       ...    584784
Primitive shell pairs kept                  ...    218873
          la=0 lb=0:  32354 shell pairs
          la=1 lb=0:  34598 shell pairs
          la=1 lb=1:   9387 shell pairs
          la=2 lb=0:  15734 shell pairs
          la=2 lb=1:   8645 shell pairs
          la=2 lb=2:   1990 shell pairs
          la=3 lb=0:   7184 shell pairs
          la=3 lb=1:   4004 shell pairs
          la=3 lb=2:   1759 shell pairs
          la=3 lb=3:    424 shell pairs

Checking whether 4 symmetric matrices of dimension 1542 fit in memory
:Max Core in MB      =   6000.00
 MB in use           =    139.10
 MB left             =   5860.90
 MB needed           =     36.31
 Data fit in memory  = YES
Calculating RI/J V-Matrix + Cholesky decomp.... [c01b01n04:2107816] 5 more processes have sent help message help-mpi-btl-openib.txt / no active ports found
[c01b01n04:2107816] Set MCA parameter "orte_base_help_aggregate" to 0 to see all help / error messages
[c01b01n04:2107816] 57 more processes have sent help message help-mpi-btl-openib.txt / error in device init
done (  2.5 sec)
Calculating Nuclear repulsion               ... done (  0.1 sec) ENN=   5746.625744304716 Eh

Diagonalization of the overlap matrix:
Smallest eigenvalue                        ... 3.201e-06
Time for diagonalization                   ...    8.909 sec
Threshold for overlap eigenvalues          ... 1.000e-07
Number of eigenvalues below threshold      ... 0
Time for construction of square roots      ...    1.730 sec
Total time needed                          ...   10.942 sec

-------------------
DFT GRID GENERATION
-------------------

General Integration Accuracy     IntAcc      ... 4.388
Radial Grid Type                 RadialGrid  ... OptM3 with GC (2021)
Angular Grid (max. ang.)         AngularGrid ... 4 (Lebedev-302)
Angular grid pruning method      GridPruning ... 4 (adaptive)
Weight generation scheme         WeightScheme... mBecke (2022)
Basis function cutoff            BFCut       ... 1.0000e-11
Integration weight cutoff        WCut        ... 1.0000e-14
Partially contracted basis set               ... off
Rotationally invariant grid construction     ... off
Angular grids for H and He will be reduced by one unit

Total number of grid points                  ...   373586
Total number of batches                      ...     5881
Average number of points per batch           ...       63
Average number of grid points per atom       ...     4556

--------------------
COSX GRID GENERATION
--------------------

GRIDX 1
-------
General Integration Accuracy     IntAcc      ... 3.816
Radial Grid Type                 RadialGrid  ... OptM3 with GC (2021)
Angular Grid (max. ang.)         AngularGrid ... 1 (Lebedev-50)
Angular grid pruning method      GridPruning ... 4 (adaptive)
Weight generation scheme         WeightScheme... mBecke (2022)
Basis function cutoff            BFCut       ... 1.0000e-11
Integration weight cutoff        WCut        ... 1.0000e-14
Partially contracted basis set               ... on
Rotationally invariant grid construction     ... off
Angular grids for H and He will be reduced by one unit

Total number of grid points                  ...    47266
Total number of batches                      ...      413
Average number of points per batch           ...      114
Average number of grid points per atom       ...      576
UseSFitting                                  ... on

GRIDX 2
-------
General Integration Accuracy     IntAcc      ... 4.020
Radial Grid Type                 RadialGrid  ... OptM3 with GC (2021)
Angular Grid (max. ang.)         AngularGrid ... 2 (Lebedev-110)
Angular grid pruning method      GridPruning ... 4 (adaptive)
Weight generation scheme         WeightScheme... mBecke (2022)
Basis function cutoff            BFCut       ... 1.0000e-11
Integration weight cutoff        WCut        ... 1.0000e-14
Partially contracted basis set               ... on
Rotationally invariant grid construction     ... off
Angular grids for H and He will be reduced by one unit

[...]
freq.     627.40  E(vib)   ...       0.09 
freq.     637.33  E(vib)   ...       0.09 
freq.     658.12  E(vib)   ...       0.08 
freq.     665.37  E(vib)   ...       0.08 
freq.     701.03  E(vib)   ...       0.07 
freq.     730.77  E(vib)   ...       0.06 
freq.     745.35  E(vib)   ...       0.06 
freq.     748.36  E(vib)   ...       0.06 
freq.     757.25  E(vib)   ...       0.06 
freq.     759.87  E(vib)   ...       0.06 
freq.     791.12  E(vib)   ...       0.05 
freq.     805.10  E(vib)   ...       0.05 
freq.     814.68  E(vib)   ...       0.05 
freq.     818.88  E(vib)   ...       0.05 
freq.     832.56  E(vib)   ...       0.04 
freq.     843.31  E(vib)   ...       0.04 
freq.     849.37  E(vib)   ...       0.04 
freq.     855.07  E(vib)   ...       0.04 
freq.     871.56  E(vib)   ...       0.04 
freq.     879.59  E(vib)   ...       0.04 
freq.     883.43  E(vib)   ...       0.04 
freq.     901.96  E(vib)   ...       0.03 
freq.     910.10  E(vib)   ...       0.03 
freq.     932.01  E(vib)   ...       0.03 
freq.     941.09  E(vib)   ...       0.03 
freq.     949.38  E(vib)   ...       0.03 
freq.     949.98  E(vib)   ...       0.03 
freq.     959.88  E(vib)   ...       0.03 
freq.     961.65  E(vib)   ...       0.03 
freq.     970.73  E(vib)   ...       0.03 
freq.     998.30  E(vib)   ...       0.02 
freq.     999.62  E(vib)   ...       0.02 
freq.    1028.78  E(vib)   ...       0.02 
freq.    1030.95  E(vib)   ...       0.02 
freq.    1038.47  E(vib)   ...       0.02 
freq.    1048.37  E(vib)   ...       0.02 
freq.    1048.67  E(vib)   ...       0.02 
freq.    1051.26  E(vib)   ...       0.02 
freq.    1060.57  E(vib)   ...       0.02 
freq.    1069.91  E(vib)   ...       0.02 
freq.    1076.82  E(vib)   ...       0.02 
freq.    1081.21  E(vib)   ...       0.02 
freq.    1103.41  E(vib)   ...       0.02 
freq.    1105.59  E(vib)   ...       0.02 
freq.    1127.23  E(vib)   ...       0.01 
freq.    1140.06  E(vib)   ...       0.01 
freq.    1144.02  E(vib)   ...       0.01 
freq.    1148.20  E(vib)   ...       0.01 
freq.    1169.68  E(vib)   ...       0.01 
freq.    1170.15  E(vib)   ...       0.01 
freq.    1171.29  E(vib)   ...       0.01 
freq.    1171.59  E(vib)   ...       0.01 
freq.    1173.57  E(vib)   ...       0.01 
freq.    1176.10  E(vib)   ...       0.01 
freq.    1179.65  E(vib)   ...       0.01 
freq.    1181.58  E(vib)   ...       0.01 
freq.    1199.52  E(vib)   ...       0.01 
freq.    1203.52  E(vib)   ...       0.01 
freq.    1205.79  E(vib)   ...       0.01 
freq.    1206.99  E(vib)   ...       0.01 
freq.    1212.57  E(vib)   ...       0.01 
freq.    1216.07  E(vib)   ...       0.01 
freq.    1220.63  E(vib)   ...       0.01 
freq.    1227.81  E(vib)   ...       0.01 
freq.    1227.95  E(vib)   ...       0.01 
freq.    1243.30  E(vib)   ...       0.01 
freq.    1243.85  E(vib)   ...       0.01 
freq.    1250.85  E(vib)   ...       0.01 
freq.    1251.57  E(vib)   ...       0.01 
freq.    1261.20  E(vib)   ...       0.01 
freq.    1273.55  E(vib)   ...       0.01 
freq.    1281.27  E(vib)   ...       0.01 
freq.    1287.46  E(vib)   ...       0.01 
freq.    1295.62  E(vib)   ...       0.01 
freq.    1296.79  E(vib)   ...       0.01 
freq.    1314.90  E(vib)   ...       0.01 
freq.    1328.49  E(vib)   ...       0.01 
freq.    1336.81  E(vib)   ...       0.01 
freq.    1342.39  E(vib)   ...       0.01 
freq.    1343.96  E(vib)   ...       0.01 
freq.    1347.11  E(vib)   ...       0.01 
freq.    1355.61  E(vib)   ...       0.01 
freq.    1365.21  E(vib)   ...       0.01 
freq.    1373.13  E(vib)   ...       0.01 
freq.    1376.08  E(vib)   ...       0.01 
freq.    1388.35  E(vib)   ...       0.00 
freq.    1391.07  E(vib)   ...       0.00 
freq.    1397.44  E(vib)   ...       0.00 
freq.    1401.79  E(vib)   ...       0.00 
freq.    1406.41  E(vib)   ...       0.00 
freq.    1411.18  E(vib)   ...       0.00 
freq.    1411.89  E(vib)   ...       0.00 
freq.    1420.08  E(vib)   ...       0.00 
freq.    1427.32  E(vib)   ...       0.00 
freq.    1430.36  E(vib)   ...       0.00 
freq.    1452.24  E(vib)   ...       0.00 
freq.    1459.61  E(vib)   ...       0.00 
freq.    1467.31  E(vib)   ...       0.00 
freq.    1478.62  E(vib)   ...       0.00 
freq.    1479.02  E(vib)   ...       0.00 
freq.    1479.52  E(vib)   ...       0.00 
freq.    1479.91  E(vib)   ...       0.00 
freq.    1480.51  E(vib)   ...       0.00 
freq.    1482.64  E(vib)   ...       0.00 
freq.    1485.11  E(vib)   ...       0.00 
freq.    1485.40  E(vib)   ...       0.00 
freq.    1488.85  E(vib)   ...       0.00 
freq.    1490.44  E(vib)   ...       0.00 
freq.    1490.73  E(vib)   ...       0.00 
freq.    1491.44  E(vib)   ...       0.00 
freq.    1492.07  E(vib)   ...       0.00 
freq.    1496.28  E(vib)   ...       0.00 
freq.    1498.38  E(vib)   ...       0.00 
freq.    1498.69  E(vib)   ...       0.00 
freq.    1507.34  E(vib)   ...       0.00 
freq.    1535.24  E(vib)   ...       0.00 
freq.    1542.52  E(vib)   ...       0.00 
freq.    1548.98  E(vib)   ...       0.00 
freq.    1627.57  E(vib)   ...       0.00 
freq.    1634.19  E(vib)   ...       0.00 
freq.    1642.87  E(vib)   ...       0.00 
freq.    1646.84  E(vib)   ...       0.00 
freq.    1648.76  E(vib)   ...       0.00 
freq.    1652.23  E(vib)   ...       0.00 
freq.    2996.06  E(vib)   ...       0.00 
freq.    3014.48  E(vib)   ...       0.00 
freq.    3017.24  E(vib)   ...       0.00 
freq.    3018.83  E(vib)   ...       0.00 
freq.    3021.45  E(vib)   ...       0.00 
freq.    3023.32  E(vib)   ...       0.00 
freq.    3025.42  E(vib)   ...       0.00 
freq.    3025.94  E(vib)   ...       0.00 
freq.    3027.45  E(vib)   ...       0.00 
freq.    3028.71  E(vib)   ...       0.00 
freq.    3037.22  E(vib)   ...       0.00 
freq.    3060.10  E(vib)   ...       0.00 
freq.    3066.83  E(vib)   ...       0.00 
freq.    3070.18  E(vib)   ...       0.00 
freq.    3075.11  E(vib)   ...       0.00 
freq.    3077.79  E(vib)   ...       0.00 
freq.    3077.98  E(vib)   ...       0.00 
freq.    3081.45  E(vib)   ...       0.00 
freq.    3084.32  E(vib)   ...       0.00 
freq.    3087.03  E(vib)   ...       0.00 
freq.    3093.42  E(vib)   ...       0.00 
freq.    3129.62  E(vib)   ...       0.00 
freq.    3135.05  E(vib)   ...       0.00 
freq.    3138.82  E(vib)   ...       0.00 
freq.    3142.26  E(vib)   ...       0.00 
freq.    3164.43  E(vib)   ...       0.00 
freq.    3170.18  E(vib)   ...       0.00 
freq.    3181.41  E(vib)   ...       0.00 
freq.    3187.16  E(vib)   ...       0.00 
freq.    3195.26  E(vib)   ...       0.00 
freq.    3203.79  E(vib)   ...       0.00 
freq.    3204.50  E(vib)   ...       0.00 
freq.    3210.98  E(vib)   ...       0.00 
freq.    3212.25  E(vib)   ...       0.00 
freq.    3635.96  E(vib)   ...       0.00 
freq.    3709.55  E(vib)   ...       0.00 
freq.    3722.79  E(vib)   ...       0.00 
freq.    3751.14  E(vib)   ...       0.00 
freq.    3765.32  E(vib)   ...       0.00 
freq.    3770.58  E(vib)   ...       0.00 

------------
INNER ENERGY
------------

The inner energy is: U= E(el) + E(ZPE) + E(vib) + E(rot) + E(trans)
    E(el)   - is the total energy from the electronic structure calculation
              = E(kin-el) + E(nuc-el) + E(el-el) + E(nuc-nuc)
    E(ZPE)  - the the zero temperature vibrational energy from the frequency calculation
    E(vib)  - the the finite temperature correction to E(ZPE) due to population
              of excited vibrational states
    E(rot)  - is the rotational thermal energy
    E(trans)- is the translational thermal energy

Summary of contributions to the inner energy U:
Electronic energy                ...  -2032.63433140 Eh
Zero point energy                ...      0.67856049 Eh     425.80 kcal/mol
Thermal vibrational correction   ...      0.04072703 Eh      25.56 kcal/mol
Thermal rotational correction    ...      0.00141627 Eh       0.89 kcal/mol
Thermal translational correction ...      0.00141627 Eh       0.89 kcal/mol
-----------------------------------------------------------------------
Total thermal energy                  -2031.91221134 Eh


Summary of corrections to the electronic energy:
(perhaps to be used in another calculation)
Total thermal correction                  0.04355957 Eh      27.33 kcal/mol
Non-thermal (ZPE) correction              0.67856049 Eh     425.80 kcal/mol
-----------------------------------------------------------------------
Total correction                          0.72212006 Eh     453.14 kcal/mol


--------
ENTHALPY
--------

The enthalpy is H = U + kB*T
                kB is Boltzmann's constant
Total thermal energy              ...  -2031.91221134 Eh 
Thermal Enthalpy correction       ...      0.00094421 Eh       0.59 kcal/mol
-----------------------------------------------------------------------
Total Enthalpy                    ...  -2031.91126713 Eh


Note: Only C1 symmetry has been detected, increase convergence thresholds 
      if your molecule has a higher symmetry. Symmetry factor of 1.0 is   
      used for the rotational entropy correction. 
 

Note: Rotational entropy computed according to Herzberg 
Infrared and Raman Spectra, Chapter V,1, Van Nostrand Reinhold, 1945 
Point Group:  C1, Symmetry Number:   1  
Rotational constants in cm-1:     0.004029     0.002151     0.001817 

Vibrational entropy computed according to the QRRHO of S. Grimme
Chem.Eur.J. 2012 18 9955 using a reference frequency of 100.0 cm-1


-------
ENTROPY
-------

The entropy contributions are T*S = T*(S(el)+S(vib)+S(rot)+S(trans))
     S(el)   - electronic entropy
     S(vib)  - vibrational entropy
     S(rot)  - rotational entropy
     S(trans)- translational entropy
The entropies will be listed as multiplied by the temperature to get
units of energy

Electronic entropy                ...      0.00000000 Eh      0.00 kcal/mol
Vibrational entropy               ...      0.07331670 Eh     46.01 kcal/mol
Rotational entropy                ...      0.01799273 Eh     11.29 kcal/mol
Translational entropy             ...      0.02138181 Eh     13.42 kcal/mol
-----------------------------------------------------------------------
Final entropy term                ...      0.11269124 Eh     70.71 kcal/mol

In case the symmetry of your molecule has not been determined correctly
or in case you have a reason to use a different symmetry number we print 
out the resulting rotational entropy values for sn=1,12:

 non-linear molecules -----------------------------------
|  sn= 1 | S(rot)=       0.01799273 Eh     11.29 kcal/mol|
|  sn= 2 | S(rot)=       0.01733827 Eh     10.88 kcal/mol|
|  sn= 3 | S(rot)=       0.01695544 Eh     10.64 kcal/mol|
|  sn= 4 | S(rot)=       0.01668381 Eh     10.47 kcal/mol|
|  sn= 5 | S(rot)=       0.01647313 Eh     10.34 kcal/mol|
|  sn= 6 | S(rot)=       0.01630098 Eh     10.23 kcal/mol|
|  sn= 7 | S(rot)=       0.01615543 Eh     10.14 kcal/mol|
|  sn= 8 | S(rot)=       0.01602936 Eh     10.06 kcal/mol|
|  sn= 9 | S(rot)=       0.01591815 Eh      9.99 kcal/mol|
|  sn=10 | S(rot)=       0.01581867 Eh      9.93 kcal/mol|
|  sn=11 | S(rot)=       0.01572868 Eh      9.87 kcal/mol|
|  sn=12 | S(rot)=       0.01564652 Eh      9.82 kcal/mol|
 linear molecules ---------------------------------------
|  Dinfh | S(rot)=       0.01128430 Eh      7.08 kcal/mol|
|  Cinfv | S(rot)=       0.01193876 Eh      7.49 kcal/mol|
 --------------------------------------------------------


-------------------
GIBBS FREE ENERGY
-------------------

The Gibbs free energy is G = H - T*S

Total enthalpy                    ...  -2031.91126713 Eh 
Total entropy correction          ...     -0.11269124 Eh    -70.71 kcal/mol
-----------------------------------------------------------------------
Final Gibbs free energy         ...  -2032.02395837 Eh

For completeness - the Gibbs free energy minus the electronic energy
G-E(el)                           ...      0.61037303 Eh    383.01 kcal/mol


Maximum memory used throughout the entire PROP-calculation: 1820.0 MB
--------------------------------------------------------------------------
WARNING: There was an error initializing an OpenFabrics device.

  Local host:   c01b01n04
  Local device: mlx5_0
--------------------------------------------------------------------------
--------------------------------------------------------------------------
WARNING: There is at least one non-excluded one OpenFabrics device found,
but there are no active ports detected (or Open MPI was unable to use
them).  This is most certainly not what you wanted.  Check your
cables, subnet manager configuration, etc.  The openib BTL will be
ignored for this job.

  Local host: c01b01n04
--------------------------------------------------------------------------
[c01b01n04:2178599] 59 more processes have sent help message help-mpi-btl-openib.txt / error in device init
[c01b01n04:2178599] Set MCA parameter "orte_base_help_aggregate" to 0 to see all help / error messages
[c01b01n04:2178599] 3 more processes have sent help message help-mpi-btl-openib.txt / no active ports found

--------------------------------
SUGGESTED CITATIONS FOR THIS RUN
--------------------------------

Below you find a list of papers that are relevant to this ORCA run
We neither can nor want to force you to cite these papers, but we appreciate if you do
You receive ORCA, which is the product of decades of hard work by many enthusiastic individuals, for free
The only thing we kindly ask in return is that you cite our papers,
We deeply appreciate it, if you show your appreciation for ORCA by not just citing the generic ORCA reference.

Please note that relegating all ORCA citations to the supporting information does *not* help us.
SI sections are not indexed - citations you put there will not count into any citation statistics
But we need these citations in order to attract the funding resources that allow us to do what we are doing

Therefore, if you are a happy ORCA user, please consider citing a few of the papers listed below in the main body of your paper

In addition to the list printed below, the program has created the file opt-conf-6.bibtex that contains the list in bibtex format
You can import this file easily into all common literature databanks and citation aid programs


List of essential papers. We consider these as the minimum necessary citations

  1. Neese, F.
     Software update: the ORCA program system, version 6.0
     WIRES Comput. Molec. Sci. 2025 15(1), e70019
     doi.org/10.1002/wcms.7019

List of papers to cite with high priority. The work reported in these papers was absolutely
necessary for this run to complete.
Our perspective: the developers of density functionals and basis sets usually get cited in chemistry papers
Good! But without the algorithms to do something with them, the functionals or basis sets would not do anything.
Hence, in our opinion, the algorithm design and method developments papers are equally worthy of getting cited

  1. Neese, F.
     An improvement of the resolution of the identity approximation for the formation of the Coulomb matrix
     J. Comp. Chem. 2003 24(14), 1740-1747
     doi.org/10.1002/jcc.10318
  2. Neese, F.; Wennmohs, F.; Hansen, A.; Becker, U.
     Efficient, approximate and parallel Hartree-Fock and hybrid DFT calculations. A 'chain-of-spheres' algorithm for the Hartree-Fock exchange
     Chem. Phys. 2009 356(1-3), 98-109
     doi.org/10.1016/j.chemphys.2008.10.036
  3. Bykov, D.; Petrenko, T.; Izsak, R.; Kossmann, S.; Becker, U.; Valeev, E.; Neese, F.
     Efficient implementation of the analytic second derivatives of Hartree-Fock and hybrid DFT energies: a detailed analysis of different approximations
     Molec. Phys. 2015 113 , 1961-1977
     doi.org/10.1080/00268976.2015.1025114
  4. Caldeweyher, E.; Bannwarth, C.; Grimme, S.
     Extension of the D3 dispersion coefficient model
     J. Chem. Phys. 2017 147 , 034112
     doi.org/10.1063/1.4993215
  5. Caldeweyher, E.; Ehlert, S.; Hansen, A.; Neugebauer, H.; Spicher, S.; Bannwarth, C.; Grimme, S.
     A generally applicable atomic-charge dependent London dispersion correction
     J. Chem. Phys. 2019 150 , 154122
     doi.org/10.1063/1.5090222
  6. Garcia-Rates, M.; Neese, F.
     Efficient implementation of the analytical second derivatives of hartree-fock and hybrid DFT energies within the framework of the conductor-like polarizable continuum model
     J. Comput. Chem. 2019 40 , 1816-1828
     doi.org/10.1002/jcc.25833
  7. Caldeweyher, E.; Mewes, J.; Ehlert, S.; Grimme, S.
     Extension and evaluation of the D4 London-dispersion model for periodic systems
     Phys. Chem. Chem. Phys. 2020 22(16), 8499-8512
     doi.org/10.1039/D0CP00502A
  8. Garcia-Rates, M.; Neese, F.
     Effect of the Solute Cavity on the Solvation Energy and its Derivatives within the Framework of the Gaussian Charge Scheme
     J. Comput. Chem. 2020 41 , 922-939
     doi.org/10.1002/jcc.26139
  9. Helmich-Paris, B.; de Souza, B.; Neese, F.; Izsák, R.
     An improved chain of spheres for exchange algorithm
     J. Chem. Phys. 2021 155(10), 104109
     doi.org/10.1063/5.0058766
 10. Neese, F.
     The SHARK Integral Generation and Digestion System
     J. Comp. Chem. 2022 44(3), 381
     doi.org/10.1002/jcc.26942
 11. Wittmann, L.; Gordiy, I.; Friede, M.; Helmich-Paris, B.; Grimme, S.; Hansen, A.; Bursch, M.
     Extension of the D3 and D4 London Dispersion Corrections to the full Actinides Series
     Phys. Chem. Chem. Phys. 2024 26(32), 21379-21394
     doi.org/10.1039/D4CP01514B

List of suggested additional citations. These are papers that are important in the 'surrounding' of 
of this run, or papers that preceded the highly important papers. If you like your results we are grateful for a citation.

  1. Izsak, R.; Neese, F.
     An overlap fitted chain of spheres exchange method
     J. Chem. Phys. 2011 135 , 144105
     doi.org/10.1063/1.3646921
  2. Izsak, R.; Hansen, A.; Neese, F.
     The resolution of identity and chain of spheres approximations for the LPNO-CCSD singles Fock term
     Molec. Phys. 2012 110 , 2413-2417
     doi.org/10.1080/00268976.2012.687466
  3. Neese, F.
     The ORCA program system
     WIRES Comput. Molec. Sci. 2012 2(1), 73-78
     doi.org/10.1002/wcms.81
  4. Izsak, R.; Neese, F.; Klopper, W.
     Robust fitting techniques in the chain of spheres approximation to the Fock exchange: The role of the complementary space
     J. Chem. Phys. 2013 139 , 
     doi.org/10.1063/1.4819264
  5. Neese, F.
     Software update: the ORCA program system, version 4.0
     WIRES Comput. Molec. Sci. 2018 8(1), 1-6
     doi.org/10.1002/wcms.1327
  6. Neese, F.; Wennmohs, F.; Becker, U.; Riplinger, C.
     The ORCA quantum chemistry program package
     J. Chem. Phys. 2020 152(22), 224108
     doi.org/10.1063/5.0004608
  7. Neese, F.
     Software update: The ORCA program system—Version 5.0
     WIRES Comput. Molec. Sci. 2022 12(1), e1606
     doi.org/10.1002/wcms.1606

List of optional additional citations

  1. Neese, F.
     Approximate second-order SCF convergence for spin unrestricted wavefunctions
     Chem. Phys. Lett. 2000 325(1-3), 93-98
     doi.org/10.1016/s0009-2614(00)00662-x

Timings for individual modules:

Sum of individual times          ...    16572.706 sec (= 276.212 min)
Startup calculation              ...     1403.400 sec (=  23.390 min)   8.5 %
SCF iterations                   ...     9102.565 sec (= 151.709 min)  54.9 %
Property integrals               ...     1455.480 sec (=  24.258 min)   8.8 %
SCF Response                     ...     3059.353 sec (=  50.989 min)  18.5 %
Property calculations            ...      647.543 sec (=  10.792 min)   3.9 %
SCF Gradient evaluation          ...      898.650 sec (=  14.978 min)   5.4 %
Geometry relaxation              ...        5.715 sec (=   0.095 min)   0.0 %
                             ****ORCA TERMINATED NORMALLY****
TOTAL RUN TIME: 0 days 4 hours 41 minutes 41 seconds 645 msec
