
                                 *****************
                                 * O   R   C   A *
                                 *****************

                                            #,                                       
                                            ###                                      
                                            ####                                     
                                            #####                                    
                                            ######                                   
                                           ########,                                 
                                     ,,################,,,,,                         
                               ,,#################################,,                 
                          ,,##########################################,,             
                       ,#########################################, ''#####,          
                    ,#############################################,,   '####,        
                  ,##################################################,,,,####,       
                ,###########''''           ''''###############################       
              ,#####''   ,,,,##########,,,,          '''####'''          '####       
            ,##' ,,,,###########################,,,                        '##       
           ' ,,###''''                  '''############,,,                           
         ,,##''                                '''############,,,,        ,,,,,,###''
      ,#''                                            '''#######################'''  
     '                                                          ''''####''''         
             ,#######,   #######,   ,#######,      ##                                
            ,#'     '#,  ##    ##  ,#'     '#,    #''#        ,####,    ,#,          
            ##       ##  ##   ,#'  ##            #'  '#       #'       ,# #          
            ##       ##  #######   ##           ,######,      #####,      #          
            '#,     ,#'  ##    ##  '#,     ,#' ,#      #,     #,   #      #          
             '#######'   ##     ##  '#######'  #'      '#     '####' #    #          



                #########################################################
                #                        -***-                          #
                #          Department of theory and spectroscopy        #
                #                                                       #
                #                      Frank Neese                      #
                #                                                       #
                #     Directorship, Architecture, Infrastructure        #
                #                    SHARK, DRIVERS                     #
                #        Core code/Algorithms in most modules           #
                #                                                       #
                #        Max Planck Institute fuer Kohlenforschung      #
                #                Kaiser Wilhelm Platz 1                 #
                #                 D-45470 Muelheim/Ruhr                 #
                #                      Germany                          #
                #                                                       #
                #                  All rights reserved                  #
                #                        -***-                          #
                #########################################################


                         Program Version 6.1.0-f.0  -   RELEASE   -


 With contributions from (in alphabetic order):
[Max-Planck-Institut fuer Kohlenforschung]                               
  Daniel Aravena         : Magnetic Suceptibility                        
  Michael Atanasov       : Ab Initio Ligand Field Theory (pilot matlab implementation)
  Alexander A. Auer      : GIAO ZORA, VPT2 properties, NMR spectrum      
  Ute Becker             : All parallelization in ORCA, NUMFREQ, NUMCALC 
  Giovanni Bistoni       : ED, misc. LED, open-shell LED, HFLD           
  Dmytro Bykov           : pre 5.0 version of the SCF Hessian            
  Marcos Casanova-Páez   : Triplet and SCS-CIS(D). UHF-(DLPNO)-IP/EA/STEOM-CCSD. UHF-CVS-IP/STEOM-CCSD   
  Vijay G. Chilkuri      : MRCI spin determinant printing, contributions to CSF-ICE 
  Pauline Colinet        : FMM embedding                                 
  Dipayan Datta          : RHF DLPNO-CCSD density                        
  Achintya Kumar Dutta   : EOM-CC, STEOM-CC                              
  Nicolas Foglia         : Exact transition moments, OPA infrastructure, MCD improvements    
  Dmitry Ganyushin       : Spin-Orbit,Spin-Spin,Magnetic field MRCI      
  Miquel Garcia-Rates    : C-PCM and meta-GGA Hessian, CCSD/C-PCM, Gaussian charge scheme 
  Tiago L. C. Gouveia    : GS-ROHF, GS-ROCIS                             
  Yang Guo               : DLPNO-NEVPT2, F12-NEVPT2, CIM, IAO-localization        
  Andreas Hansen         : Spin unrestricted coupled pair/coupled cluster methods 
  Ingolf Harden          : AUTO-CI MPn and infrastructure                
  Benjamin Helmich-Paris : MC-RPA, TRAH-(SCF,CASSCF), AVAS, COSX integrals, SCF dyn. polar., MC-PDFT, srDFT 
  Lee Huntington         : MR-EOM, pCC                                   
  Robert Izsak           : Overlap fitted RIJCOSX, COSX-SCS-MP3, EOM     
  Riya Kayal             : Wick's Theorem for AUTO-CI, AUTO-CI UHF-CCSDT 
  Emily Kempfer          : AUTO-CI RHF CISDT and CCSDT, approximate NEVPT4
  Christian Kollmar      : KDIIS, OOCD, Brueckner-CCSD(T), CCSD density, CASPT2, CASPT2-K, improved NEVPT2 
  Axel Koslowski         : Symmetry handling                             
  Simone Kossmann        : meta-GGA functionals, TD-DFT gradient, OOMP2, (MP2 Hessian; deprecated post 5.0) 
  Lucas Lang             : DCDCAS, Hyperfine gauge corrections, ICE-SOC+SSC
  Marvin Lechner         : AUTO-CI (C++ implementation), FIC-MRCC        
  Spencer Leger          : CASSCF response                               
  Dagmar Lenk            : GEPOL surface, SMD, ORCA-2-JSON               
  Dimitrios Liakos       : Extrapolation schemes; Compound Job, Property file
  Dimitrios Manganas     : Further ROCIS development; embedding schemes. LFT, Crystal Embedding 
  Dimitrios Pantazis     : SARC Basis sets                               
  Anastasios Papadopoulos: AUTO-CI, single reference methods and gradients 
  Taras Petrenko         : pre 6.0 DFT Hessian and TD-DFT gradient,  ECA, NRVS 
  Petra Pikulova         : Analytic Raman intensities                    
  Peter Pinski           : DLPNO-MP2, DLPNO-MP2 Gradient                 
  Shashank Vittal Rao    : ES-AILFT, MagRelax                            
  Christoph Reimann      : Effective Core Potentials                     
  Marius Retegan         : Local ZFS, SOC                                
  Christoph Riplinger    : Optimizer, TS searches, QM/MM, DLPNO-CCSD(T), (RO)-DLPNO pert. Triples 
  Michael Roemelt        : Original ROCIS implementation, recursive CI coupling coefficients
  Masaaki Saitow         : Open-shell DLPNO-CCSD energy and density      
  Barbara Sandhoefer     : DKH picture change effects                    
  Yorick L. A. Schmerwitz: GMF and freeze-and-release deltaSCF, NEB S-IDPP initial path                    
  Kantharuban Sivalingam : CASSCF convergence/infrastructure, NEVPT2, NEVPT3, NEVPT4(SD), FIC-MRCI and CEPA variants
  Bernardo de Souza      : ESD, SOC TD-DFT                               
  Georgi L. Stoychev     : AutoAux, RI-MP2 NMR, DLPNO-MP2 response, X2C  
  Van Anh Tran           : RI-MP2 g-tensors                              
  Willem Van den Heuvel  : Paramagnetic NMR                              
  Zikuan Wang            : NOTCH, Electric field optimization            
  Frank Wennmohs         : Technical directorship and infrastructure     
  Hang Xu                : AUTO-CI-Response properties                   
                                                                         
[FACCTs GmbH]                                                            
  Markus Bursch, Nicolas Foglia, Miquel Garcia-Rates, Ingolf Harden, Hagen Neugebauer, Anastasios Papadopoulos, 
  Christoph Riplinger, Bernardo de Souza, Georgi L. Stoychev                                                    
                                                                 
  APM, various basis sets, CI-OPT, improved COSX, DLPNO-Multilevel,           
  DOCKER, DRACO, updates on ESD, Fragmentator, GOAT, IRC, LR-CPCM, L-BFGS, MBIS, meta-GGA TD-DFT gradient, ML-optimized integration grids, 
  MM, NACMEs, nearIR, NEB, NEB-TS, NL-DFT gradient (VV10), 2- and 3-layer-ONIOM, interface openCOSMO-RS, QMMM,   
  Crystal-QMMM, RESP, rigid body optimization, SF, symmetry and pop. for TD-DFT, various functionals, SOLVATOR                                   
                                                                         
[Other institutions]                                                     
  V. Asgeirsson          : NEB                                           
  Christoph Bannwarth    : sTDA-DFT, sTD-DFT, PBEh-3c, B97-3c, D3        
  Giovanni Bistoni       : ETS/NOCV, ADLD/ADEX, COVALED                  
  Martin Brehm           : Molecular dynamics                            
  Ronald Cardenas        : ETS/NOCV                                      
  Martina Colucci        : COVALED                                       
  Sebastian Ehlert       : rSCAN, r2SCAN, r2SCAN-3c, D4, dhf basis sets  
  Marvin Friede          : D4 for Fr, Ra, Ac-Lr                          
  Lars Goerigk           : TD-DFT with DH, B97 family of functionals     
  Stefan Grimme          : VdW corrections, initial TS optimization, DFT functionals, gCP, sTDA/sTD-DF 
  Waldemar Hujo          : DFT-NL                                        
  H. Jonsson             : NEB                                           
  Holger Kruse           : gCP                                           
  Marcel Mueller         : wB97X-3c, vDZP basis set                      
  Hagen Neugebauer       : wr2SCAN, Native XTB                           
  Gianluca Regni         : ADLD/ADEX                                     
  Tobias Risthaus        : pre 6.0 range-separated hybrid DFT and stability analysis
  Lukas Wittmann         : regularized MP2, r2SCAN double-hybrids, wr2SCAN        
                                                                         
We gratefully acknowledge several colleagues who have allowed us to      
interface, adapt or use parts of their codes:                            
  Ed Valeev, F. Pavosevic, A. Kumar             : LibInt (2-el integral package), F12 methods 
  Garnet Chan, S. Sharma, J. Yang, R. Olivares  : DMRG                   
  Ulf Ekstrom                                   : XCFun DFT Library      
  Mihaly Kallay                                 : mrcc  (arbitrary order and MRCC methods)
  Frank Weinhold                                : gennbo (NPA and NBO analysis)           
  Simon Mueller                                 : openCOSMO-RS                            
  Christopher J. Cramer and Donald G. Truhlar   : smd solvation model                     
  S Lehtola, MJT Oliveira, MAL Marques          : LibXC Library                           
  Liviu Ungur et al                             : ANISO software                          


 Your calculation uses the libint2 library for the computation of 2-el integrals
 For citations please refer to: http://libint.valeyev.net

 Your ORCA version has been built with support for libXC version: 7.0.0
 For citations please refer to: https://libxc.gitlab.io

 This ORCA versions uses:
   CBLAS   interface :  Fast vector & matrix operations
   LAPACKE interface :  Fast linear algebra routines
   SCALAPACK package :  Parallel linear algebra routines
   Shared memory     :  Shared parallel matrices
   BLAS/LAPACK       :  OpenBLAS 0.3.29  USE64BITINT DYNAMIC_ARCH NO_AFFINITY Cooperlake SINGLE_THREADED
        Core in use  :  Cooperlake
   Copyright (c) 2011-2014, The OpenBLAS Project


  ***********************************
  * Starting time: Wed Mar  4 06:23:57 2026
  * Host name:     c09b01n01
  * Process ID:    2011702
  * Working dir.:  /lustre1/jiangy/jiangy_liuxy/NMR/B9D7C2-SRSR
  ***********************************

NOTE: MaxCore=6000 MB was set to SCF,MP2,MDCI,CIPSI,MRCI,RASCI and CIS
      => If you want to overwrite this, your respective input block should be placed after the MaxCore statement


***************************************
The coordinates will be read from file: conf-5.xyz
***************************************


Your calculation utilizes the atom-pairwise dispersion correction
based on EEQ partial charges (D4)


Warning: RI is on but no J-basis has been assigned. Assigning Def2/J (nothing to worry about!)
================================================================================

----- Orbital basis set information -----
Your calculation utilizes the basis: def2-TZVP
   F. Weigend and R. Ahlrichs, Phys. Chem. Chem. Phys. 7, 3297 (2005).

----- AuxJ basis set information -----
Your calculation utilizes the auxiliary basis: def2/J
   H-Rn: F. Weigend, Phys. Chem. Chem. Phys. 8, 1057 (2006).
   Fr-Lr: K. Eichkorn, F. Weigend, O. Treutler, R. Ahlrichs; Theor. Chem. Acc. 97, 119 (1997).

================================================================================
                                        WARNINGS
                       Please study these warnings very carefully!
================================================================================


WARNING: Geometry Optimization
  ===> : Switching off AutoStart
         For restart on a previous wavefunction, please use MOREAD

================================================================================
                                       INPUT FILE
================================================================================
NAME = opt-conf-5.inp
|  1> ! B3LYP OPT FREQ DEF2-TZVP D4 CPCM(Methanol) 
|  2> ! TightOpt
|  3> %pal nprocs 64 end
|  4> %maxcore 6000
|  5> 
|  6> %cpcm
|  7> end
|  8> 
|  9> %freq
| 10>    Temp 298.15
| 11> end
| 12> 
| 13> * xyzfile 0 1 conf-5.xyz
| 14> 
| 15> 
| 16>                          ****END OF INPUT****
================================================================================

                       *****************************
                       * Geometry Optimization Run *
                       *****************************

Geometry optimization settings:
Update method            Update   .... BFGS
Choice of coordinates    CoordSys .... (2022) Redundant Internals
Initial Hessian          InHess   .... Almloef's Model
Max. no of cycles        MaxIter  .... 246

Convergence Tolerances:
Energy Change            TolE     ....  1.0000e-06 Eh
Max. Gradient            TolMAXG  ....  1.0000e-04 Eh/bohr
RMS Gradient             TolRMSG  ....  3.0000e-05 Eh/bohr
Max. Displacement        TolMAXD  ....  1.0000e-03 bohr
RMS Displacement         TolRMSD  ....  6.0000e-04 bohr
Strict Convergence                .... False

------------------------------------------------------------------------------
                        ORCA OPTIMIZATION COORDINATE SETUP
------------------------------------------------------------------------------

The optimization will be done in redundant internal coordinates (2022)
Making redundant internal coordinates   ...  (2022 redundants) done
Evaluating the initial hessian          ...  (Almloef) done
Evaluating the coordinates              ...  done
Calculating the B-matrix                .... done
Calculating the G-matrix                .... done
The number of degrees of freedom        ....  405

    -----------------------------------------------------------------
                    Redundant Internal Coordinates


    -----------------------------------------------------------------
         Definition                    Initial Value    Approx d2E/dq
    -----------------------------------------------------------------
      1. B(C   1,C   0)                  1.4054         0.590442   
      2. B(C   2,C   1)                  1.4002         0.601829   
      3. B(C   3,C   2)                  1.3888         0.627526   
      4. B(C   4,C   3)                  1.3854         0.635419   
      5. B(C   5,C   4)                  1.3856         0.634956   
      6. B(C   5,C   0)                  1.3874         0.630855   
      7. B(C   6,C   4)                  1.5023         0.413537   
      8. B(C   7,C   6)                  1.5354         0.366275   
      9. B(C   8,C   7)                  1.5407         0.359120   
     10. B(C   9,C   8)                  1.5374         0.363606   
     11. B(C  10,C   9)                  1.5043         0.410499   
     12. B(C  11,C  10)                  1.3933         0.617163   
     13. B(C  12,C  11)                  1.3816         0.644456   
     14. B(C  13,C  12)                  1.4052         0.590855   
     15. B(C  14,C  13)                  1.3823         0.642769   
     16. B(C  15,C  10)                  1.3855         0.635302   
     17. B(C  15,C  14)                  1.3862         0.633657   
     18. B(C  16,C   7)                  1.5359         0.365561   
     19. B(C  17,C   8)                  1.5358         0.365705   
     20. B(O  18,C   2)                  1.3717         0.598582   
     21. B(O  19,C   0)                  1.3621         0.619886   
     22. B(O  20,C   1)                  1.3741         0.593206   
     23. B(O  21,C  13)                  1.3620         0.620328   
     24. B(O  22,C  12)                  1.3790         0.582676   
     25. B(C  23,O  20)                  1.4123         0.515636   
     26. B(C  24,C  23)                  1.5550         0.340855   
     27. B(C  25,C  24)                  1.5087         0.403956   
     28. B(C  26,C  23)                  1.5404         0.359614   
     29. B(O  27,C  26)                  1.4004         0.538605   
     30. B(C  28,C  25)                  1.3936         0.616599   
     31. B(C  29,C  28)                  1.3816         0.644435   
     32. B(C  30,C  29)                  1.4032         0.595250   
     33. B(C  31,C  30)                  1.3822         0.643052   
     34. B(C  32,C  31)                  1.3845         0.637566   
     35. B(C  32,C  25)                  1.3838         0.639198   
     36. B(C  33,O  19)                  1.4059         0.527856   
     37. B(C  34,O  18)                  1.4077         0.524369   
     38. B(C  35,O  22)                  1.4078         0.524179   
     39. B(O  36,C  24)                  1.4180         0.504876   
     40. B(O  37,C  16)                  1.4084         0.523116   
     41. B(O  38,C  17)                  1.4059         0.527890   
     42. B(O  39,C  29)                  1.3734         0.594884   
     43. B(O  40,C  30)                  1.3669         0.609091   
     44. B(C  41,O  39)                  1.4088         0.522307   
     45. B(H  42,C   3)                  1.0777         0.376697   
     46. B(H  43,C   5)                  1.0778         0.376609   
     47. B(H  44,C   6)                  1.0913         0.358426   
     48. B(H  45,C   6)                  1.0900         0.360137   
     49. B(H  46,C   7)                  1.0970         0.350998   
     50. B(H  47,C   8)                  1.0969         0.351072   
     51. B(H  48,C   9)                  1.0915         0.358105   
     52. B(H  49,C   9)                  1.0945         0.354184   
     53. B(H  50,C  11)                  1.0773         0.377318   
     54. B(H  51,C  14)                  1.0785         0.375636   
     55. B(H  52,C  15)                  1.0801         0.373378   
     56. B(H  53,C  16)                  1.0914         0.358298   
     57. B(H  54,C  16)                  1.0978         0.349927   
     58. B(H  55,C  17)                  1.0915         0.358139   
     59. B(H  56,C  17)                  1.1021         0.344395   
     60. B(H  57,O  21)                  0.9671         0.506498   
     61. B(H  57,O  22)                  2.1117         0.010000   
     62. B(H  58,C  23)                  1.0972         0.350758   
     63. B(H  59,C  24)                  1.0951         0.353481   
     64. B(H  60,C  26)                  1.0982         0.349376   
     65. B(H  61,C  26)                  1.0920         0.357475   
     66. B(H  62,O  36)                  1.9917         0.011748   
     67. B(H  62,O  27)                  0.9697         0.501736   
     68. B(H  63,C  28)                  1.0799         0.373740   
     69. B(H  64,C  31)                  1.0780         0.376397   
     70. B(H  65,C  32)                  1.0783         0.375853   
     71. B(H  66,C  33)                  1.0890         0.361442   
     72. B(H  67,C  33)                  1.0946         0.354079   
     73. B(H  68,H  64)                  4.2033         0.010000   
     74. B(H  68,C  33)                  1.0955         0.352887   
     75. B(H  69,C  34)                  1.0898         0.360330   
     76. B(H  70,C  34)                  1.0951         0.353463   
     77. B(H  71,C  34)                  1.0941         0.354677   
     78. B(H  72,C  35)                  1.0940         0.354881   
     79. B(H  73,C  35)                  1.0888         0.361736   
     80. B(H  74,H  64)                  4.9653         0.010000   
     81. B(H  74,C  35)                  1.0940         0.354900   
     82. B(H  75,O  36)                  0.9647         0.511136   
     83. B(H  76,O  40)                  1.9746         0.012510   
     84. B(H  76,O  37)                  0.9695         0.502160   
     85. B(H  77,O  38)                  0.9645         0.511369   
     86. B(H  78,O  39)                  2.1020         0.010000   
     87. B(H  78,O  40)                  0.9689         0.503161   
     88. B(H  79,H  70)                  2.4514         0.010000   
     89. B(H  79,C  41)                  1.0931         0.356077   
     90. B(H  80,C  41)                  1.0946         0.354009   
     91. B(H  81,O  21)                  2.3484         0.010000   
     92. B(H  81,C  41)                  1.0886         0.362022   
     93. A(C   1,C   0,O  19)          115.0003         0.427450   
     94. A(C   5,C   0,O  19)          124.5931         0.432559   
     95. A(C   1,C   0,C   5)          120.4059         0.431615   
     96. A(C   0,C   1,O  20)          115.6133         0.424096   
     97. A(C   0,C   1,C   2)          119.0229         0.427982   
     98. A(C   2,C   1,O  20)          125.1131         0.425548   
     99. A(C   3,C   2,O  18)          123.0942         0.429443   
    100. A(C   1,C   2,C   3)          119.5390         0.432688   
    101. A(C   1,C   2,O  18)          117.3666         0.426236   
    102. A(C   4,C   3,H  42)          118.4312         0.357101   
    103. A(C   2,C   3,H  42)          120.3199         0.356343   
    104. A(C   2,C   3,C   4)          121.2412         0.436939   
    105. A(C   5,C   4,C   6)          121.2712         0.405547   
    106. A(C   3,C   4,C   6)          119.2697         0.405599   
    107. A(C   3,C   4,C   5)          119.4458         0.437867   
    108. A(C   4,C   5,H  43)          118.9620         0.357042   
    109. A(C   0,C   5,H  43)          120.7294         0.356650   
    110. A(C   0,C   5,C   4)          120.3084         0.437298   
    111. A(C   4,C   6,H  44)          108.7690         0.329541   
    112. A(C   7,C   6,H  45)          109.4011         0.323276   
    113. A(C   4,C   6,C   7)          110.6541         0.368484   
    114. A(H  44,C   6,H  45)          108.6110         0.290631   
    115. A(C   4,C   6,H  45)          110.3233         0.329800   
    116. A(C   7,C   6,H  44)          109.0409         0.323023   
    117. A(C   6,C   7,C  16)          110.1100         0.360792   
    118. A(C   8,C   7,C  16)          110.6868         0.359581   
    119. A(C  16,C   7,H  46)          106.8536         0.321814   
    120. A(C   8,C   7,H  46)          106.7845         0.320879   
    121. A(C   6,C   7,H  46)          107.8841         0.321917   
    122. A(C   6,C   7,C   8)          114.1693         0.359700   
    123. A(C   7,C   8,C  17)          114.4826         0.359605   
    124. A(C  17,C   8,H  47)          107.2647         0.321846   
    125. A(C   7,C   8,C   9)          111.3855         0.359252   
    126. A(C   9,C   8,H  47)          108.5949         0.321542   
    127. A(C   7,C   8,H  47)          106.0229         0.320890   
    128. A(C   9,C   8,C  17)          108.8362         0.360366   
    129. A(H  48,C   9,H  49)          107.2178         0.289831   
    130. A(C  10,C   9,H  48)          109.1801         0.329091   
    131. A(C  10,C   9,H  49)          108.5939         0.328493   
    132. A(C   8,C   9,C  10)          113.9082         0.367557   
    133. A(C   8,C   9,H  48)          109.2962         0.322589   
    134. A(C   8,C   9,H  49)          108.4303         0.322007   
    135. A(C   9,C  10,C  11)          120.1875         0.402992   
    136. A(C  11,C  10,C  15)          118.7852         0.435615   
    137. A(C   9,C  10,C  15)          121.0146         0.405058   
    138. A(C  10,C  11,C  12)          120.7252         0.436740   
    139. A(C  10,C  11,H  50)          119.2161         0.355437   
    140. A(C  12,C  11,H  50)          120.0586         0.358059   
    141. A(C  11,C  12,C  13)          119.9436         0.433328   
    142. A(C  13,C  12,O  22)          114.5488         0.422793   
    143. A(C  11,C  12,O  22)          125.5076         0.429419   
    144. A(C  12,C  13,O  21)          120.1552         0.427558   
    145. A(C  12,C  13,C  14)          119.3027         0.433124   
    146. A(C  14,C  13,O  21)          120.5421         0.434073   
    147. A(C  13,C  14,H  51)          118.6732         0.357628   
    148. A(C  13,C  14,C  15)          120.1517         0.438614   
    149. A(C  15,C  14,H  51)          121.1710         0.356761   
    150. A(C  14,C  15,H  52)          119.1642         0.356396   
    151. A(C  10,C  15,H  52)          119.7730         0.356553   
    152. A(C  10,C  15,C  14)          121.0505         0.437691   
    153. A(O  37,C  16,H  54)          110.7032         0.339234   
    154. A(C   7,C  16,H  54)          108.4792         0.321653   
    155. A(O  37,C  16,H  53)          106.3855         0.340577   
    156. A(C   7,C  16,H  53)          110.3951         0.322901   
    157. A(C   7,C  16,O  37)          112.3593         0.381202   
    158. A(H  53,C  16,H  54)          108.4505         0.289307   
    159. A(O  38,C  17,H  56)          109.7655         0.338847   
    160. A(C   8,C  17,O  38)          114.3361         0.381829   
    161. A(H  55,C  17,H  56)          107.7702         0.288566   
    162. A(C   8,C  17,H  56)          108.3016         0.320836   
    163. A(O  38,C  17,H  55)          105.5152         0.341069   
    164. A(C   8,C  17,H  55)          110.9608         0.322898   
    165. A(C   2,O  18,C  34)          118.0899         0.413192   
    166. A(C   0,O  19,C  33)          118.3260         0.416259   
    167. A(C   1,O  20,C  23)          120.7386         0.411303   
    168. A(C  13,O  21,H  57)          107.5446         0.368486   
    169. A(C  12,O  22,C  35)          118.0387         0.411196   
    170. A(C  26,C  23,H  58)          108.8667         0.320915   
    171. A(C  24,C  23,H  58)          109.7436         0.318120   
    172. A(O  20,C  23,H  58)          111.3725         0.338554   
    173. A(C  24,C  23,C  26)          111.2762         0.355412   
    174. A(O  20,C  23,C  26)          104.8687         0.379171   
    175. A(O  20,C  23,C  24)          110.6252         0.375674   
    176. A(C  23,C  24,O  36)          111.4029         0.374309   
    177. A(O  36,C  24,H  59)          105.4633         0.337800   
    178. A(C  25,C  24,H  59)          109.9220         0.327517   
    179. A(C  23,C  24,H  59)          107.6521         0.318521   
    180. A(C  25,C  24,O  36)          111.4971         0.385491   
    181. A(C  23,C  24,C  25)          110.6977         0.362516   
    182. A(C  28,C  25,C  32)          119.4560         0.436024   
    183. A(C  24,C  25,C  32)          121.3684         0.404346   
    184. A(C  24,C  25,C  28)          119.1720         0.401788   
    185. A(O  27,C  26,H  61)          106.8517         0.342112   
    186. A(H  60,C  26,H  61)          108.4616         0.289131   
    187. A(C  23,C  26,H  61)          108.1919         0.321913   
    188. A(O  27,C  26,H  60)          111.4265         0.340802   
    189. A(C  23,C  26,H  60)          108.4832         0.320708   
    190. A(C  23,C  26,O  27)          113.2709         0.382048   
    191. A(C  26,O  27,H  62)          106.8280         0.359113   
    192. A(C  29,C  28,H  63)          119.6604         0.357478   
    193. A(C  25,C  28,H  63)          119.8325         0.354808   
    194. A(C  25,C  28,C  29)          120.4888         0.436665   
    195. A(C  30,C  29,O  39)          114.7819         0.424927   
    196. A(C  28,C  29,O  39)          125.6763         0.431018   
    197. A(C  28,C  29,C  30)          119.5413         0.433903   
    198. A(C  31,C  30,O  40)          120.4589         0.432682   
    199. A(C  29,C  30,O  40)          119.7026         0.426726   
    200. A(C  29,C  30,C  31)          119.8351         0.433736   
    201. A(C  32,C  31,H  64)          120.8756         0.357257   
    202. A(C  30,C  31,H  64)          118.9893         0.357778   
    203. A(C  30,C  31,C  32)          120.1289         0.439136   
    204. A(C  31,C  32,H  65)          119.7684         0.357169   
    205. A(C  25,C  32,H  65)          119.7301         0.357325   
    206. A(C  25,C  32,C  31)          120.5007         0.438660   
    207. A(H  67,C  33,H  68)          109.2995         0.289152   
    208. A(H  66,C  33,H  68)          109.2789         0.290086   
    209. A(O  19,C  33,H  68)          111.6896         0.340224   
    210. A(H  66,C  33,H  67)          109.2030         0.290240   
    211. A(O  19,C  33,H  67)          111.6837         0.340416   
    212. A(O  19,C  33,H  66)          105.5848         0.341590   
    213. A(H  69,C  34,H  71)          109.0483         0.290176   
    214. A(O  18,C  34,H  71)          111.3851         0.340135   
    215. A(H  69,C  34,H  70)          109.6787         0.290020   
    216. A(O  18,C  34,H  70)          111.8294         0.339940   
    217. A(O  18,C  34,H  69)          105.5668         0.341035   
    218. A(H  70,C  34,H  71)          109.2414         0.289302   
    219. A(H  73,C  35,H  74)          109.4921         0.290382   
    220. A(H  72,C  35,H  74)          109.6890         0.289512   
    221. A(O  22,C  35,H  74)          111.3501         0.340150   
    222. A(H  72,C  35,H  73)          109.2851         0.290380   
    223. A(O  22,C  35,H  73)          105.6075         0.341237   
    224. A(O  22,C  35,H  72)          111.3174         0.340147   
    225. A(C  24,O  36,H  75)          108.2768         0.356309   
    226. A(C  16,O  37,H  76)          107.6778         0.357386   
    227. A(C  17,O  38,H  77)          108.3892         0.359047   
    228. A(C  29,O  39,C  41)          118.3713         0.412449   
    229. A(C  30,O  40,H  78)          107.5350         0.366916   
    230. A(H  80,C  41,H  81)          109.8478         0.290304   
    231. A(H  79,C  41,H  81)          109.3316         0.290569   
    232. A(O  39,C  41,H  81)          105.3278         0.341078   
    233. A(H  79,C  41,H  80)          109.5260         0.289551   
    234. A(O  39,C  41,H  80)          111.0760         0.339804   
    235. A(O  39,C  41,H  79)          111.6428         0.340135   
    236. D(O  20,C   1,C   0,O  19)     -6.9682         0.023993   
    237. D(C   2,C   1,C   0,O  19)    178.4891         0.023993   
    238. D(C   2,C   1,C   0,C   5)     -1.1974         0.023993   
    239. D(O  20,C   1,C   0,C   5)    173.3453         0.023993   
    240. D(O  18,C   2,C   1,C   0)    179.7041         0.024977   
    241. D(C   3,C   2,C   1,C   0)     -0.4456         0.024977   
    242. D(C   3,C   2,C   1,O  20)   -174.4279         0.024977   
    243. D(O  18,C   2,C   1,O  20)      5.7217         0.024977   
    244. D(C   4,C   3,C   2,C   1)      1.8685         0.027290   
    245. D(H  42,C   3,C   2,O  18)      0.6857         0.027290   
    246. D(C   4,C   3,C   2,O  18)   -178.2901         0.027290   
    247. D(H  42,C   3,C   2,C   1)   -179.1557         0.027290   
    248. D(C   6,C   4,C   3,H  42)      0.6867         0.028026   
    249. D(C   5,C   4,C   3,H  42)    179.3822         0.028026   
    250. D(C   5,C   4,C   3,C   2)     -1.6232         0.028026   
    251. D(C   6,C   4,C   3,C   2)    179.6813         0.028026   
    252. D(H  43,C   5,C   4,C   6)     -1.2300         0.027982   
    253. D(H  43,C   5,C   4,C   3)   -179.8986         0.027982   
    254. D(C   0,C   5,C   4,C   3)     -0.0545         0.027982   
    255. D(C   4,C   5,C   0,O  19)   -178.1968         0.027599   
    256. D(H  43,C   5,C   0,C   1)   -178.7007         0.027599   
    257. D(H  43,C   5,C   0,O  19)      1.6444         0.027599   
    258. D(C   0,C   5,C   4,C   6)    178.6141         0.027982   
    259. D(C   4,C   5,C   0,C   1)      1.4580         0.027599   
    260. D(H  45,C   6,C   4,C   3)   -162.9790         0.012658   
    261. D(H  44,C   6,C   4,C   5)    137.3825         0.012658   
    262. D(H  44,C   6,C   4,C   3)    -43.9466         0.012658   
    263. D(C   7,C   6,C   4,C   5)   -102.8600         0.012658   
    264. D(C   7,C   6,C   4,C   3)     75.8109         0.012658   
    265. D(C   8,C   7,C   6,H  44)    -41.0093         0.010738   
    266. D(C   8,C   7,C   6,C   4)   -160.6034         0.010738   
    267. D(C  16,C   7,C   6,H  45)    -47.5733         0.010738   
    268. D(C  16,C   7,C   6,H  44)   -166.2251         0.010738   
    269. D(C   8,C   7,C   6,H  45)     77.6424         0.010738   
    270. D(C  16,C   7,C   6,C   4)     74.1808         0.010738   
    271. D(C  17,C   8,C   7,H  46)   -163.9834         0.010350   
    272. D(C  17,C   8,C   7,C  16)     80.0662         0.010350   
    273. D(C  17,C   8,C   7,C   6)    -44.8439         0.010350   
    274. D(C   9,C   8,C   7,C  16)   -155.9253         0.010350   
    275. D(C   9,C   8,C   7,H  46)    -39.9750         0.010350   
    276. D(C   9,C   8,C   7,C   6)     79.1645         0.010350   
    277. D(H  48,C   9,C   8,C  17)     59.3717         0.010592   
    278. D(H  48,C   9,C   8,C   7)    -67.7732         0.010592   
    279. D(C  10,C   9,C   8,H  47)    -61.7551         0.010592   
    280. D(C  10,C   9,C   8,C  17)   -178.2182         0.010592   
    281. D(H  48,C   9,C   8,H  47)    175.8349         0.010592   
    282. D(C  10,C   9,C   8,C   7)     54.6369         0.010592   
    283. D(C  15,C  10,C   9,H  48)     -4.7309         0.012479   
    284. D(C  15,C  10,C   9,C   8)   -127.2047         0.012479   
    285. D(C  11,C  10,C   9,H  49)    -66.8214         0.012479   
    286. D(C  11,C  10,C   9,H  48)    176.5835         0.012479   
    287. D(C  11,C  10,C   9,C   8)     54.1097         0.012479   
    288. D(H  50,C  11,C  10,C  15)    179.8062         0.026342   
    289. D(H  50,C  11,C  10,C   9)     -1.4792         0.026342   
    290. D(C  12,C  11,C  10,C  15)     -0.0999         0.026342   
    291. D(C  12,C  11,C  10,C   9)    178.6148         0.026342   
    292. D(O  22,C  12,C  11,H  50)     -1.4797         0.028883   
    293. D(C  13,C  12,C  11,H  50)    178.4107         0.028883   
    294. D(O  22,C  12,C  11,C  10)    178.4255         0.028883   
    295. D(C  13,C  12,C  11,C  10)     -1.6840         0.028883   
    296. D(O  21,C  13,C  12,C  11)   -177.6853         0.024028   
    297. D(C  14,C  13,C  12,O  22)   -177.8945         0.024028   
    298. D(C  14,C  13,C  12,C  11)      2.2036         0.024028   
    299. D(O  21,C  13,C  12,O  22)      2.2166         0.024028   
    300. D(H  51,C  14,C  13,O  21)     -0.3331         0.028722   
    301. D(H  51,C  14,C  13,C  12)    179.7785         0.028722   
    302. D(C  15,C  14,C  13,O  21)    178.9390         0.028722   
    303. D(C  15,C  14,C  13,C  12)     -0.9494         0.028722   
    304. D(H  52,C  15,C  14,H  51)     -0.3170         0.027860   
    305. D(H  52,C  15,C  14,C  13)   -179.5706         0.027860   
    306. D(C  10,C  15,C  14,H  51)    178.4051         0.027860   
    307. D(C  10,C  15,C  14,C  13)     -0.8486         0.027860   
    308. D(H  52,C  15,C  10,C  11)   -179.9077         0.028015   
    309. D(H  52,C  15,C  10,C   9)      1.3886         0.028015   
    310. D(C  14,C  15,C  10,C  11)      1.3779         0.028015   
    311. D(C  14,C  15,C  10,C   9)   -177.3257         0.028015   
    312. D(H  53,C  16,C   7,H  46)   -174.6790         0.010699   
    313. D(H  53,C  16,C   7,C   8)    -58.7716         0.010699   
    314. D(H  53,C  16,C   7,C   6)     68.4087         0.010699   
    315. D(O  37,C  16,C   7,H  46)    -56.1000         0.010699   
    316. D(O  37,C  16,C   7,C   8)     59.8074         0.010699   
    317. D(O  37,C  16,C   7,C   6)   -173.0124         0.010699   
    318. D(H  55,C  17,C   8,H  47)    175.3567         0.010707   
    319. D(H  55,C  17,C   8,C   9)    -67.3313         0.010707   
    320. D(H  55,C  17,C   8,C   7)     58.0262         0.010707   
    321. D(O  38,C  17,C   8,H  47)     56.1710         0.010707   
    322. D(O  38,C  17,C   8,C   9)    173.4830         0.010707   
    323. D(O  38,C  17,C   8,C   7)    -61.1595         0.010707   
    324. D(C  34,O  18,C   2,C   3)      6.9117         0.026161   
    325. D(C  34,O  18,C   2,C   1)   -173.2437         0.026161   
    326. D(C  33,O  19,C   0,C   5)     -2.5586         0.028191   
    327. D(C  33,O  19,C   0,C   1)    177.7699         0.028191   
    328. D(C  23,O  20,C   1,C   2)    -52.1107         0.025663   
    329. D(C  23,O  20,C   1,C   0)    133.7241         0.025663   
    330. D(H  57,O  21,C  13,C  14)   -178.9276         0.031162   
    331. D(H  57,O  21,C  13,C  12)      0.9599         0.031162   
    332. D(C  35,O  22,C  12,C  13)    177.9960         0.027247   
    333. D(C  35,O  22,C  12,C  11)     -2.1084         0.027247   
    334. D(H  58,C  23,O  20,C   1)     54.1431         0.021065   
    335. D(C  26,C  23,O  20,C   1)    171.7353         0.021065   
    336. D(C  24,C  23,O  20,C   1)    -68.1936         0.021065   
    337. D(O  36,C  24,C  23,H  58)     69.7492         0.010000   
    338. D(O  36,C  24,C  23,C  26)    -50.8118         0.010000   
    339. D(O  36,C  24,C  23,O  20)   -166.9665         0.010000   
    340. D(C  25,C  24,C  23,H  58)    -54.9204         0.010000   
    341. D(C  25,C  24,C  23,C  26)   -175.4814         0.010000   
    342. D(C  25,C  24,C  23,O  20)     68.3639         0.010000   
    343. D(C  32,C  25,C  24,O  36)    120.7784         0.012100   
    344. D(C  32,C  25,C  24,C  23)   -114.6055         0.012100   
    345. D(C  28,C  25,C  24,H  59)   -175.1154         0.012100   
    346. D(C  28,C  25,C  24,O  36)    -58.5296         0.012100   
    347. D(C  28,C  25,C  24,C  23)     66.0864         0.012100   
    348. D(H  60,C  26,C  23,H  58)   -175.6559         0.010377   
    349. D(H  60,C  26,C  23,C  24)    -54.5800         0.010377   
    350. D(H  60,C  26,C  23,O  20)     65.0568         0.010377   
    351. D(O  27,C  26,C  23,H  58)    -51.3893         0.010377   
    352. D(O  27,C  26,C  23,C  24)     69.6866         0.010377   
    353. D(O  27,C  26,C  23,O  20)   -170.6766         0.010377   
    354. D(H  62,O  27,C  26,H  61)   -179.6395         0.023072   
    355. D(H  62,O  27,C  26,H  60)     62.0460         0.023072   
    356. D(H  62,O  27,C  26,C  23)    -60.6032         0.023072   
    357. D(H  63,C  28,C  25,C  32)   -179.2856         0.026291   
    358. D(H  63,C  28,C  25,C  24)      0.0359         0.026291   
    359. D(C  29,C  28,C  25,C  32)      2.2773         0.026291   
    360. D(C  29,C  28,C  25,C  24)   -178.4012         0.026291   
    361. D(C  30,C  29,C  28,H  63)   -179.2951         0.028881   
    362. D(C  30,C  29,C  28,C  25)     -0.8553         0.028881   
    363. D(O  39,C  29,C  28,H  63)      0.9756         0.028881   
    364. D(O  39,C  29,C  28,C  25)    179.4154         0.028881   
    365. D(O  40,C  30,C  29,O  39)     -0.7162         0.024406   
    366. D(O  40,C  30,C  29,C  28)    179.5261         0.024406   
    367. D(C  31,C  30,C  29,O  39)    178.6146         0.024406   
    368. D(C  31,C  30,C  29,C  28)     -1.1432         0.024406   
    369. D(H  64,C  31,C  30,O  40)      1.9357         0.028749   
    370. D(H  64,C  31,C  30,C  29)   -177.3899         0.028749   
    371. D(C  32,C  31,C  30,O  40)   -178.9630         0.028749   
    372. D(C  32,C  31,C  30,C  29)      1.7114         0.028749   
    373. D(H  65,C  32,C  31,H  64)     -1.5179         0.028228   
    374. D(H  65,C  32,C  31,C  30)    179.3980         0.028228   
    375. D(C  25,C  32,C  31,H  64)    178.8058         0.028228   
    376. D(C  25,C  32,C  31,C  30)     -0.2782         0.028228   
    377. D(H  65,C  32,C  25,C  28)    178.6124         0.028382   
    378. D(H  65,C  32,C  25,C  24)     -0.6938         0.028382   
    379. D(C  31,C  32,C  25,C  28)     -1.7113         0.028382   
    380. D(C  31,C  32,C  25,C  24)    178.9826         0.028382   
    381. D(H  68,C  33,O  19,C   0)     62.2534         0.022119   
    382. D(H  67,C  33,O  19,C   0)    -60.4931         0.022119   
    383. D(H  66,C  33,O  19,C   0)   -179.0727         0.022119   
    384. D(H  71,C  34,O  18,C   2)     58.2317         0.021815   
    385. D(H  70,C  34,O  18,C   2)    -64.3236         0.021815   
    386. D(H  69,C  34,O  18,C   2)    176.4567         0.021815   
    387. D(H  74,C  35,O  22,C  12)    -59.0678         0.023663   
    388. D(H  73,C  35,O  22,C  12)   -177.8298         0.023663   
    389. D(H  72,C  35,O  22,C  12)     63.6735         0.023663   
    390. D(H  75,O  36,C  24,H  59)    166.3760         0.021879   
    391. D(H  75,O  36,C  24,C  25)     47.1062         0.021879   
    392. D(H  75,O  36,C  24,C  23)    -77.1138         0.021879   
    393. D(H  76,O  37,C  16,H  54)    -57.1848         0.021706   
    394. D(H  76,O  37,C  16,H  53)   -174.8163         0.021706   
    395. D(H  76,O  37,C  16,C   7)     64.2714         0.021706   
    396. D(H  77,O  38,C  17,H  56)     67.8529         0.022122   
    397. D(H  77,O  38,C  17,H  55)   -176.2772         0.022122   
    398. D(H  77,O  38,C  17,C   8)    -54.0675         0.022122   
    399. D(C  41,O  39,C  29,C  30)   -172.2284         0.028481   
    400. D(C  41,O  39,C  29,C  28)      7.5121         0.028481   
    401. D(H  78,O  40,C  30,C  31)   -178.4172         0.029960   
    402. D(H  78,O  40,C  30,C  29)      0.9093         0.029960   
    403. D(H  81,C  41,O  39,C  29)   -179.8807         0.023486   
    404. D(H  80,C  41,O  39,C  29)     61.2434         0.023486   
    405. D(H  79,C  41,O  39,C  29)    -61.3235         0.023486   
    -----------------------------------------------------------------

Number of atoms                         .... 82
Number of degrees of freedom            .... 405


         *************************************************************
         *                GEOMETRY OPTIMIZATION CYCLE   1            *
         *************************************************************
---------------------------------
CARTESIAN COORDINATES (ANGSTROEM)
---------------------------------
  C     20.913417  -30.089570    2.076633
  C     21.556616  -29.824689    0.855459
  C     20.889835  -30.116215   -0.340769
  C     19.615819  -30.667426   -0.297752
  C     18.973919  -30.900113    0.907728
  C     19.627010  -30.608840    2.094550
  C     17.592944  -31.491628    0.902363
  C     17.648723  -32.994520    0.593218
  C     16.313170  -33.588282    0.105742
  C     16.069529  -33.275447   -1.379605
  C     17.190478  -33.706880   -2.285357
  C     17.641664  -35.024960   -2.262780
  C     18.651013  -35.440142   -3.109872
  C     19.209120  -34.537699   -4.031128
  C     18.769429  -33.227296   -4.045760
  C     17.774171  -32.817042   -3.172484
  C     18.171900  -33.765727    1.814088
  C     15.085746  -33.142662    0.914148
  O     21.546523  -29.838427   -1.512549
  O     21.648128  -29.805136    3.187823
  O     22.767356  -29.181594    0.949016
  O     20.171305  -34.954621   -4.900205
  O     19.192593  -36.707720   -3.149571
  C     23.882891  -29.631758    0.209122
  C     24.366617  -31.013376    0.733542
  C     23.351032  -32.085843    0.425930
  C     24.957748  -28.547921    0.415791
  O     26.075853  -28.712761   -0.411138
  C     23.104798  -32.427215   -0.902581
  C     22.156982  -33.381999   -1.216879
  C     21.452335  -34.022792   -0.186447
  C     21.727940  -33.711834    1.131777
  C     22.671522  -32.745161    1.435118
  C     21.054627  -29.998678    4.447521
  C     20.839217  -29.988384   -2.720378
  C     18.717178  -37.659644   -2.227770
  O     25.644825  -31.344486    0.216524
  O     18.391524  -35.128218    1.533308
  O     15.123297  -33.505592    2.271853
  O     21.821403  -33.790609   -2.484367
  O     20.506963  -34.960965   -0.494021
  C     22.593848  -33.322009   -3.565284
  H     19.096567  -30.909341   -1.210641
  H     19.120974  -30.794462    3.027888
  H     16.999938  -30.991983    0.134531
  H     17.111670  -31.338277    1.868229
  H     18.375982  -33.145635   -0.213999
  H     16.403858  -34.675021    0.224011
  H     15.903689  -32.203338   -1.499924
  H     15.151943  -33.782515   -1.694037
  H     17.194851  -35.721955   -1.573505
  H     19.207292  -32.542427   -4.754560
  H     17.437747  -31.791062   -3.202379
  H     17.443302  -33.732241    2.625938
  H     19.097612  -33.286224    2.158036
  H     14.985836  -32.055796    0.905118
  H     14.186084  -33.567109    0.439635
  H     20.321281  -35.896404   -4.739244
  H     23.651010  -29.701979   -0.860948
  H     24.502915  -30.928227    1.816735
  H     25.241508  -28.536798    1.476670
  H     24.518569  -27.580066    0.165139
  H     26.462204  -29.574844   -0.192316
  H     23.640092  -31.924674   -1.694448
  H     21.208852  -34.242657    1.913285
  H     22.874977  -32.500250    2.465386
  H     21.806658  -29.696369    5.174812
  H     20.161850  -29.378051    4.573617
  H     20.791895  -31.049069    4.614217
  H     21.522429  -29.657643   -3.502396
  H     20.552436  -31.030253   -2.897661
  H     19.943883  -29.359775   -2.739091
  H     17.657461  -37.876691   -2.391082
  H     19.300928  -38.560515   -2.409646
  H     18.870697  -37.327114   -1.196944
  H     25.535213  -31.639212   -0.695443
  H     19.097463  -35.182248    0.871023
  H     15.270597  -34.457127    2.328501
  H     20.484928  -35.047807   -1.458808
  H     22.552392  -32.232887   -3.648173
  H     23.636398  -33.642432   -3.472202
  H     22.147879  -33.768152   -4.452421

----------------------------
CARTESIAN COORDINATES (A.U.)
----------------------------
  NO LB      ZA    FRAG     MASS         X           Y           Z
   0 C     6.0000    0    12.011   39.520630  -56.861047    3.924268
   1 C     6.0000    0    12.011   40.736101  -56.360494    1.616583
   2 C     6.0000    0    12.011   39.476068  -56.911398   -0.643961
   3 C     6.0000    0    12.011   37.068526  -57.953036   -0.562670
   4 C     6.0000    0    12.011   35.855510  -58.392751    1.715358
   5 C     6.0000    0    12.011   37.089674  -57.842325    3.958125
   6 C     6.0000    0    12.011   33.245845  -59.510553    1.705218
   7 C     6.0000    0    12.011   33.351253  -62.350607    1.121020
   8 C     6.0000    0    12.011   30.827424  -63.472654    0.199824
   9 C     6.0000    0    12.011   30.367009  -62.881483   -2.607076
  10 C     6.0000    0    12.011   32.485295  -63.696772   -4.318700
  11 C     6.0000    0    12.011   33.337914  -66.187582   -4.276034
  12 C     6.0000    0    12.011   35.245307  -66.972163   -5.876806
  13 C     6.0000    0    12.011   36.299977  -65.266793   -7.617728
  14 C     6.0000    0    12.011   35.469081  -62.790490   -7.645378
  15 C     6.0000    0    12.011   33.588316  -62.015222   -5.995125
  16 C     6.0000    0    12.011   34.339914  -63.807977    3.428129
  17 C     6.0000    0    12.011   28.507928  -62.630555    1.727489
  18 O     8.0000    0    15.999   40.717027  -56.386456   -2.858304
  19 O     8.0000    0    15.999   40.909033  -56.323544    6.024113
  20 O     8.0000    0    15.999   43.024068  -55.145220    1.793381
  21 O     8.0000    0    15.999   38.118242  -66.054660   -9.260046
  22 O     8.0000    0    15.999   36.268744  -69.367538   -5.951827
  23 C     6.0000    0    12.011   45.132124  -55.995908    0.395184
  24 C     6.0000    0    12.011   46.046233  -58.606786    1.386193
  25 C     6.0000    0    12.011   44.127056  -60.633456    0.804891
  26 C     6.0000    0    12.011   47.163308  -53.947752    0.785730
  27 O     8.0000    0    15.999   49.276221  -54.259255   -0.776939
  28 C     6.0000    0    12.011   43.661741  -61.278556   -1.705631
  29 C     6.0000    0    12.011   41.870628  -63.082835   -2.299568
  30 C     6.0000    0    12.011   40.539037  -64.293759   -0.352334
  31 C     6.0000    0    12.011   41.059856  -63.706134    2.138749
  32 C     6.0000    0    12.011   42.842968  -61.879386    2.711979
  33 C     6.0000    0    12.011   39.787478  -56.689285    8.404597
  34 C     6.0000    0    12.011   39.380412  -56.669833   -5.140769
  35 C     6.0000    0    12.011   35.370340  -71.166414   -4.209876
  36 O     8.0000    0    15.999   48.461696  -59.232494    0.409171
  37 O     8.0000    0    15.999   34.754943  -66.382711    2.897532
  38 O     8.0000    0    15.999   28.578889  -63.316393    4.293180
  39 O     8.0000    0    15.999   41.236475  -63.854996   -4.694774
  40 O     8.0000    0    15.999   38.752543  -66.066649   -0.933564
  41 C     6.0000    0    12.011   42.696185  -62.969472   -6.737411
  42 H     1.0000    0     1.008   36.087282  -58.410190   -2.287779
  43 H     1.0000    0     1.008   36.133404  -58.193099    5.721879
  44 H     1.0000    0     1.008   32.125227  -58.566359    0.254227
  45 H     1.0000    0     1.008   32.336371  -59.220761    3.530441
  46 H     1.0000    0     1.008   34.725573  -62.636173   -0.404399
  47 H     1.0000    0     1.008   30.998800  -65.526294    0.423320
  48 H     1.0000    0     1.008   30.053617  -60.855489   -2.834446
  49 H     1.0000    0     1.008   28.633022  -63.839702   -3.201266
  50 H     1.0000    0     1.008   32.493559  -67.504713   -2.973493
  51 H     1.0000    0     1.008   36.296522  -61.496276   -8.984817
  52 H     1.0000    0     1.008   32.952566  -60.076400   -6.051618
  53 H     1.0000    0     1.008   32.963063  -63.744696    4.962304
  54 H     1.0000    0     1.008   36.089256  -62.901848    4.078097
  55 H     1.0000    0     1.008   28.319125  -60.576675    1.710425
  56 H     1.0000    0     1.008   26.807814  -63.432642    0.830789
  57 H     1.0000    0     1.008   38.401655  -67.834372   -8.955873
  58 H     1.0000    0     1.008   44.693931  -56.128607   -1.626955
  59 H     1.0000    0     1.008   46.303799  -58.445878    3.433132
  60 H     1.0000    0     1.008   47.699538  -53.926733    2.790502
  61 H     1.0000    0     1.008   46.333381  -52.118772    0.312068
  62 H     1.0000    0     1.008   50.006318  -55.888356   -0.363425
  63 H     1.0000    0     1.008   44.673300  -60.328892   -3.202044
  64 H     1.0000    0     1.008   40.078922  -64.709244    3.615585
  65 H     1.0000    0     1.008   43.227442  -61.416572    4.658904
  66 H     1.0000    0     1.008   41.208611  -56.118005    9.778978
  67 H     1.0000    0     1.008   38.100375  -55.516471    8.642883
  68 H     1.0000    0     1.008   39.290987  -58.674237    8.719607
  69 H     1.0000    0     1.008   40.671497  -56.044823   -6.618569
  70 H     1.0000    0     1.008   38.838476  -58.638681   -5.475787
  71 H     1.0000    0     1.008   37.688478  -55.481934   -5.176132
  72 H     1.0000    0     1.008   33.367766  -71.576573   -4.518490
  73 H     1.0000    0     1.008   36.473468  -72.868814   -4.553570
  74 H     1.0000    0     1.008   35.660450  -70.538024   -2.261896
  75 H     1.0000    0     1.008   48.254559  -59.789446   -1.314198
  76 H     1.0000    0     1.008   36.088975  -66.484813    1.645995
  77 H     1.0000    0     1.008   28.857245  -65.114533    4.400230
  78 H     1.0000    0     1.008   38.710904  -66.230758   -2.756747
  79 H     1.0000    0     1.008   42.617844  -60.911329   -6.894047
  80 H     1.0000    0     1.008   44.666319  -63.574984   -6.561511
  81 H     1.0000    0     1.008   41.853426  -63.812559   -8.413857

--------------------------------
INTERNAL COORDINATES (ANGSTROEM)
--------------------------------
 C      0   0   0     0.000000000000     0.00000000     0.00000000
 C      1   0   0     1.405394702765     0.00000000     0.00000000
 C      2   1   0     1.400194996442   119.02293290     0.00000000
 C      3   2   1     1.388813181812   119.53902197   359.55444207
 C      4   3   2     1.385410743484   121.24122249     1.86852417
 C      5   4   3     1.385609161970   119.44583674   358.37683880
 C      5   4   3     1.502335269999   119.26972870   179.68134908
 C      7   5   4     1.535371594307   110.65414494    75.81092081
 C      8   7   5     1.540742052571   114.16934090   199.39656341
 C      9   8   7     1.537362428195   111.38549633    79.16451645
 C     10   9   8     1.504342900260   113.90816668    54.63685320
 C     11  10   9     1.393346159437   120.18749341    54.10971253
 C     12  11  10     1.381566726574   120.72517922   178.61480934
 C     13  12  11     1.405204515611   119.94355093   358.31595012
 C     14  13  12     1.382280109603   119.30268403     2.20357145
 C     11  10   9     1.385461181034   121.01459863   232.79528609
 C      8   7   5     1.535902691923   110.10999697    74.18083543
 C      9   8   7     1.535795364759   114.48259601   315.15610357
 O      3   2   1     1.371667580863   117.36663282   179.70405890
 O      1   2   3     1.362147743058   115.00026803   178.48907508
 O      2   1   3     1.374123420229   115.61327314   174.54276277
 O     14  13  12     1.361953933149   120.15516503   182.31466850
 O     13  12  11     1.378999047005   125.50756774   178.42554567
 C     21   2   1     1.412271244162   120.73860853   133.72409620
 C     24  21   2     1.554951045034   110.62522402   291.80638496
 C     25  24  21     1.508716176838   110.69771787    68.36390740
 C     24  21   2     1.540367364566   104.86869957   171.73532608
 O     27  24  21     1.400408107483   113.27090800   189.32336623
 C     26  25  24     1.393595108520   119.17202036    66.08641198
 C     29  26  25     1.381575489737   120.48883421   181.59876181
 C     30  29  26     1.403187238328   119.54130208   359.14468807
 C     31  30  29     1.382160526320   119.83505875   358.85680789
 C     26  25  24     1.383796948102   121.36841081   245.39448208
 C     20   1   2     1.405895106786   118.32602204   177.76988526
 C     19   3   2     1.407699547107   118.08988871   186.75628372
 C     23  13  12     1.407798261877   118.03871119   357.89164082
 O     25  24  21     1.418011662595   111.40291793   193.03349091
 O     17   8   7     1.408350883223   112.35930961   186.98763430
 O     18   9   8     1.405877577825   114.33609203   298.84050289
 O     30  29  26     1.373354307543   125.67634361   179.41544914
 O     31  30  29     1.366930160991   119.70260970   179.52605458
 C     40  30  29     1.408772104079   118.37131773     7.51213676
 H      4   3   2     1.077734248158   120.31993102   180.84434950
 H      6   5   4     1.077797653591   118.96199421   180.10141767
 H      7   5   4     1.091268260948   108.76896152   316.05338813
 H      7   5   4     1.089971852409   110.32334922   197.02101346
 H      8   7   5     1.096968829208   107.88409342   317.91242566
 H      9   8   7     1.096911444961   106.02291023   197.11803681
 H     10   9   8     1.091512083733   109.29616960   292.22678334
 H     10   9   8     1.094508987111   108.43032579   175.65915197
 H     12  11  10     1.077285816138   119.21613062   358.52084918
 H     15  14  13     1.078502478686   118.67315203   179.77845411
 H     16  11  10     1.080143557461   119.77300448     1.38860965
 H     17   8   7     1.091365253099   110.39508086    68.40867829
 H     17   8   7     1.097800639445   108.47917981   309.70632712
 H     18   9   8     1.091486051740   110.96080318    58.02622329
 H     18   9   8     1.102138278407   108.30156569   176.12179892
 H     22  14  13     0.967138236226   107.54456626     0.95988563
 H     24  21   2     1.097155331575   111.37248647    54.14309835
 H     25  24  21     1.095050289515   107.65207174   308.19978202
 H     27  24  21     1.098229968326   108.48322425    65.05679985
 H     27  24  21     1.091991713023   108.19185799   307.58523186
 H     28  27  24     0.969709750677   106.82796725   299.39683546
 H     29  26  25     1.079879850869   119.83246413     0.03590635
 H     32  31  30     1.077951592036   118.98930460   182.61009210
 H     33  26  25     1.078344841864   119.73014600   359.30623749
 H     34  20   1     1.088987345594   105.58482790   180.92731328
 H     34  20   1     1.094589925223   111.68370211   299.50685289
 H     34  20   1     1.095507818547   111.68960608    62.25338765
 H     35  19   3     1.089826528355   105.56680365   176.45666741
 H     35  19   3     1.095063776694   111.82937805   295.67636744
 H     35  19   3     1.094130229434   111.38512102    58.23173179
 H     36  23  13     1.093973805225   111.31738072    63.67353670
 H     36  23  13     1.088766278979   105.60752438   182.17019381
 H     36  23  13     1.093959572119   111.35008025   300.93224607
 H     37  25  24     0.964657010647   108.27679660   282.88623497
 H     38  17   8     0.969479686922   107.67777457    64.27136922
 H     39  18   9     0.964533286171   108.38921944   305.93252666
 H     41  31  30     0.968937881468   107.53499362     0.90930370
 H     42  40  30     1.093058574647   111.64284541   298.67651111
 H     42  40  30     1.094644103936   111.07596204    61.24335150
 H     42  40  30     1.088551254475   105.32781294   180.11931171

---------------------------
INTERNAL COORDINATES (A.U.)
---------------------------
 C      0   0   0     0.000000000000     0.00000000     0.00000000
 C      1   0   0     2.655811098290     0.00000000     0.00000000
 C      2   1   0     2.645985077362   119.02293290     0.00000000
 C      3   2   1     2.624476564805   119.53902197   359.55444207
 C      4   3   2     2.618046888176   121.24122249     1.86852417
 C      5   4   3     2.618421844776   119.44583674   358.37683880
 C      5   4   3     2.839002221629   119.26972870   179.68134908
 C      7   5   4     2.901431827043   110.65414494    75.81092081
 C      8   7   5     2.911580522375   114.16934090   199.39656341
 C      9   8   7     2.905193957868   111.38549633    79.16451645
 C     10   9   8     2.842796093000   113.90816668    54.63685320
 C     11  10   9     2.633042651087   120.18749341    54.10971253
 C     12  11  10     2.610782748963   120.72517922   178.61480934
 C     13  12  11     2.655451696655   119.94355093   358.31595012
 C     14  13  12     2.612130847516   119.30268403     2.20357145
 C     11  10   9     2.618142201332   121.01459863   232.79528609
 C      8   7   5     2.902435456086   110.10999697    74.18083543
 C      9   8   7     2.902232637140   114.48259601   315.15610357
 O      3   2   1     2.592076074610   117.36663282   179.70405890
 O      1   2   3     2.574086188318   115.00026803   178.48907508
 O      2   1   3     2.596716938440   115.61327314   174.54276277
 O     14  13  12     2.573719940669   120.15516503   182.31466850
 O     13  12  11     2.605930537777   125.50756774   178.42554567
 C     21   2   1     2.668805878279   120.73860853   133.72409620
 C     24  21   2     2.938431626769   110.62522402   291.80638496
 C     25  24  21     2.851060388041   110.69771787    68.36390740
 C     24  21   2     2.910872464659   104.86869957   171.73532608
 O     27  24  21     2.646387798865   113.27090800   189.32336623
 C     26  25  24     2.633513096675   119.17202036    66.08641198
 C     29  26  25     2.610799308940   120.48883421   181.59876181
 C     30  29  26     2.651639595053   119.54130208   359.14468807
 C     31  30  29     2.611904867862   119.83505875   358.85680789
 C     26  25  24     2.614997256870   121.36841081   245.39448208
 C     20   1   2     2.656756724846   118.32602204   177.76988526
 C     19   3   2     2.660166622877   118.08988871   186.75628372
 C     23  13  12     2.660353166758   118.03871119   357.89164082
 O     25  24  21     2.679653697011   111.40291793   193.03349091
 O     17   8   7     2.661397469758   112.35930961   186.98763430
 O     18   9   8     2.656723599911   114.33609203   298.84050289
 O     30  29  26     2.595263526097   125.67634361   179.41544914
 O     31  30  29     2.583123648470   119.70260970   179.52605458
 C     40  30  29     2.662193461818   118.37131773     7.51213676
 H      4   3   2     2.036622574167   120.31993102   180.84434950
 H      6   5   4     2.036742393070   118.96199421   180.10141767
 H      7   5   4     2.062198151832   108.76896152   316.05338813
 H      7   5   4     2.059748294736   110.32334922   197.02101346
 H      8   7   5     2.072970664652   107.88409342   317.91242566
 H      9   8   7     2.072862224141   106.02291023   197.11803681
 H     10   9   8     2.062658910121   109.29616960   292.22678334
 H     10   9   8     2.068322236755   108.43032579   175.65915197
 H     12  11  10     2.035775160458   119.21613062   358.52084918
 H     15  14  13     2.038074319473   118.67315203   179.77845411
 H     16  11  10     2.041175508920   119.77300448     1.38860965
 H     17   8   7     2.062381440436   110.39508086    68.40867829
 H     17   8   7     2.074542558195   108.47917981   309.70632712
 H     18   9   8     2.062609716783   110.96080318    58.02622329
 H     18   9   8     2.082739507900   108.30156569   176.12179892
 H     22  14  13     1.827626400111   107.54456626     0.95988563
 H     24  21   2     2.073323103048   111.37248647    54.14309835
 H     25  24  21     2.069345150055   107.65207174   308.19978202
 H     27  24  21     2.075353872201   108.48322425    65.05679985
 H     27  24  21     2.063565278125   108.19185799   307.58523186
 H     28  27  24     1.832485858172   106.82796725   299.39683546
 H     29  26  25     2.040677175682   119.83246413     0.03590635
 H     32  31  30     2.037033294572   118.98930460   182.61009210
 H     33  26  25     2.037776429049   119.73014600   359.30623749
 H     34  20   1     2.057887846478   105.58482790   180.92731328
 H     34  20   1     2.068475187621   111.68370211   299.50685289
 H     34  20   1     2.070209754623   111.68960608    62.25338765
 H     35  19   3     2.059473672074   105.56680365   176.45666741
 H     35  19   3     2.069370637128   111.82937805   295.67636744
 H     35  19   3     2.067606488476   111.38512102    58.23173179
 H     36  23  13     2.067310889559   111.31738072    63.67353670
 H     36  23  13     2.057470091119   105.60752438   182.17019381
 H     36  23  13     2.067283992887   111.35008025   300.93224607
 H     37  25  24     1.822937563290   108.27679660   282.88623497
 H     38  17   8     1.832051100683   107.67777457    64.27136922
 H     39  18   9     1.822703757914   108.38921944   305.93252666
 H     41  31  30     1.831027236756   107.53499362     0.90930370
 H     42  40  30     2.065581354417   111.64284541   298.67651111
 H     42  40  30     2.068577570551   111.07596204    61.24335150
 H     42  40  30     2.057063753694   105.32781294   180.11931171

---------------------
BASIS SET INFORMATION
---------------------
There are 3 groups of distinct atoms

 Group   1 Type C   : 11s6p2d1f contracted to 5s3p2d1f pattern {62111/411/11/1}
 Group   2 Type O   : 11s6p2d1f contracted to 5s3p2d1f pattern {62111/411/11/1}
 Group   3 Type H   : 5s1p contracted to 3s1p pattern {311/1}

Atom   0C    basis set group =>   1
Atom   1C    basis set group =>   1
Atom   2C    basis set group =>   1
Atom   3C    basis set group =>   1
Atom   4C    basis set group =>   1
Atom   5C    basis set group =>   1
Atom   6C    basis set group =>   1
Atom   7C    basis set group =>   1
Atom   8C    basis set group =>   1
Atom   9C    basis set group =>   1
Atom  10C    basis set group =>   1
Atom  11C    basis set group =>   1
Atom  12C    basis set group =>   1
Atom  13C    basis set group =>   1
Atom  14C    basis set group =>   1
Atom  15C    basis set group =>   1
Atom  16C    basis set group =>   1
Atom  17C    basis set group =>   1
Atom  18O    basis set group =>   2
Atom  19O    basis set group =>   2
Atom  20O    basis set group =>   2
Atom  21O    basis set group =>   2
Atom  22O    basis set group =>   2
Atom  23C    basis set group =>   1
Atom  24C    basis set group =>   1
Atom  25C    basis set group =>   1
Atom  26C    basis set group =>   1
Atom  27O    basis set group =>   2
Atom  28C    basis set group =>   1
Atom  29C    basis set group =>   1
Atom  30C    basis set group =>   1
Atom  31C    basis set group =>   1
Atom  32C    basis set group =>   1
Atom  33C    basis set group =>   1
Atom  34C    basis set group =>   1
Atom  35C    basis set group =>   1
Atom  36O    basis set group =>   2
Atom  37O    basis set group =>   2
Atom  38O    basis set group =>   2
Atom  39O    basis set group =>   2
Atom  40O    basis set group =>   2
Atom  41C    basis set group =>   1
Atom  42H    basis set group =>   3
Atom  43H    basis set group =>   3
Atom  44H    basis set group =>   3
Atom  45H    basis set group =>   3
Atom  46H    basis set group =>   3
Atom  47H    basis set group =>   3
Atom  48H    basis set group =>   3
Atom  49H    basis set group =>   3
Atom  50H    basis set group =>   3
Atom  51H    basis set group =>   3
Atom  52H    basis set group =>   3
Atom  53H    basis set group =>   3
Atom  54H    basis set group =>   3
Atom  55H    basis set group =>   3
Atom  56H    basis set group =>   3
Atom  57H    basis set group =>   3
Atom  58H    basis set group =>   3
Atom  59H    basis set group =>   3
Atom  60H    basis set group =>   3
Atom  61H    basis set group =>   3
Atom  62H    basis set group =>   3
Atom  63H    basis set group =>   3
Atom  64H    basis set group =>   3
Atom  65H    basis set group =>   3
Atom  66H    basis set group =>   3
Atom  67H    basis set group =>   3
Atom  68H    basis set group =>   3
Atom  69H    basis set group =>   3
Atom  70H    basis set group =>   3
Atom  71H    basis set group =>   3
Atom  72H    basis set group =>   3
Atom  73H    basis set group =>   3
Atom  74H    basis set group =>   3
Atom  75H    basis set group =>   3
Atom  76H    basis set group =>   3
Atom  77H    basis set group =>   3
Atom  78H    basis set group =>   3
Atom  79H    basis set group =>   3
Atom  80H    basis set group =>   3
Atom  81H    basis set group =>   3
---------------------------------
AUXILIARY/J BASIS SET INFORMATION
---------------------------------
There are 3 groups of distinct atoms

 Group   1 Type C   : 12s5p4d2f1g contracted to 6s4p3d1f1g pattern {711111/2111/211/2/1}
 Group   2 Type O   : 12s5p4d2f1g contracted to 6s4p3d1f1g pattern {711111/2111/211/2/1}
 Group   3 Type H   : 5s2p1d contracted to 3s1p1d pattern {311/2/1}

Atom   0C    basis set group =>   1
Atom   1C    basis set group =>   1
Atom   2C    basis set group =>   1
Atom   3C    basis set group =>   1
Atom   4C    basis set group =>   1
Atom   5C    basis set group =>   1
Atom   6C    basis set group =>   1
Atom   7C    basis set group =>   1
Atom   8C    basis set group =>   1
Atom   9C    basis set group =>   1
Atom  10C    basis set group =>   1
Atom  11C    basis set group =>   1
Atom  12C    basis set group =>   1
Atom  13C    basis set group =>   1
Atom  14C    basis set group =>   1
Atom  15C    basis set group =>   1
Atom  16C    basis set group =>   1
Atom  17C    basis set group =>   1
Atom  18O    basis set group =>   2
Atom  19O    basis set group =>   2
Atom  20O    basis set group =>   2
Atom  21O    basis set group =>   2
Atom  22O    basis set group =>   2
Atom  23C    basis set group =>   1
Atom  24C    basis set group =>   1
Atom  25C    basis set group =>   1
Atom  26C    basis set group =>   1
Atom  27O    basis set group =>   2
Atom  28C    basis set group =>   1
Atom  29C    basis set group =>   1
Atom  30C    basis set group =>   1
Atom  31C    basis set group =>   1
Atom  32C    basis set group =>   1
Atom  33C    basis set group =>   1
Atom  34C    basis set group =>   1
Atom  35C    basis set group =>   1
Atom  36O    basis set group =>   2
Atom  37O    basis set group =>   2
Atom  38O    basis set group =>   2
Atom  39O    basis set group =>   2
Atom  40O    basis set group =>   2
Atom  41C    basis set group =>   1
Atom  42H    basis set group =>   3
Atom  43H    basis set group =>   3
Atom  44H    basis set group =>   3
Atom  45H    basis set group =>   3
Atom  46H    basis set group =>   3
Atom  47H    basis set group =>   3
Atom  48H    basis set group =>   3
Atom  49H    basis set group =>   3
Atom  50H    basis set group =>   3
Atom  51H    basis set group =>   3
Atom  52H    basis set group =>   3
Atom  53H    basis set group =>   3
Atom  54H    basis set group =>   3
Atom  55H    basis set group =>   3
Atom  56H    basis set group =>   3
Atom  57H    basis set group =>   3
Atom  58H    basis set group =>   3
Atom  59H    basis set group =>   3
Atom  60H    basis set group =>   3
Atom  61H    basis set group =>   3
Atom  62H    basis set group =>   3
Atom  63H    basis set group =>   3
Atom  64H    basis set group =>   3
Atom  65H    basis set group =>   3
Atom  66H    basis set group =>   3
Atom  67H    basis set group =>   3
Atom  68H    basis set group =>   3
Atom  69H    basis set group =>   3
Atom  70H    basis set group =>   3
Atom  71H    basis set group =>   3
Atom  72H    basis set group =>   3
Atom  73H    basis set group =>   3
Atom  74H    basis set group =>   3
Atom  75H    basis set group =>   3
Atom  76H    basis set group =>   3
Atom  77H    basis set group =>   3
Atom  78H    basis set group =>   3
Atom  79H    basis set group =>   3
Atom  80H    basis set group =>   3
Atom  81H    basis set group =>   3
--------------------------------------------------------------------------
WARNING: There was an error initializing an OpenFabrics device.

  Local host:   c09b01n01
  Local device: mlx5_0
--------------------------------------------------------------------------
--------------------------------------------------------------------------
WARNING: There is at least one non-excluded one OpenFabrics device found,
but there are no active ports detected (or Open MPI was unable to use
them).  This is most certainly not what you wanted.  Check your
cables, subnet manager configuration, etc.  The openib BTL will be
ignored for this job.

  Local host: c09b01n01
--------------------------------------------------------------------------


           ************************************************************
           *        Program running with 64 parallel MPI-processes    *
           *              working on a common directory               *
           ************************************************************
------------------------------------------------------------------------------
                             ORCA STARTUP CALCULATIONS
                           -- RI-GTO INTEGRALS CHOSEN --
------------------------------------------------------------------------------
------------------------------------------------------------------------------
                   ___                                                        
                  /   \      - P O W E R E D   B Y -                         
                 /     \                                                     
                 |  |  |   _    _      __       _____    __    __             
                 |  |  |  | |  | |    /  \     |  _  \  |  |  /  |          
                  \  \/   | |  | |   /    \    | | | |  |  | /  /          
                 / \  \   | |__| |  /  /\  \   | |_| |  |  |/  /          
                |  |  |   |  __  | /  /__\  \  |    /   |      \           
                |  |  |   | |  | | |   __   |  |    \   |  |\   \          
                \     /   | |  | | |  |  |  |  | |\  \  |  | \   \       
                 \___/    |_|  |_| |__|  |__|  |_| \__\ |__|  \__/        
                                                                              
                      - O R C A' S   B I G   F R I E N D -                    
                                      &                                       
                       - I N T E G R A L  F E E D E R -                       
                                                                              
 v1 FN, 2020, v2 2021, v3 2022-2024                                           
------------------------------------------------------------------------------


[c09b01n01:2011703] 60 more processes have sent help message help-mpi-btl-openib.txt / error in device init
[c09b01n01:2011703] Set MCA parameter "orte_base_help_aggregate" to 0 to see all help / error messages
[c09b01n01:2011703] 2 more processes have sent help message help-mpi-btl-openib.txt / no active ports found
----------------------
SHARK INTEGRAL PACKAGE
----------------------

Number of atoms                             ...     82
Number of basis functions                   ...   1542
Number of shells                            ...    622
Maximum angular momentum                    ...      3
Integral batch strategy                     ... SHARK/LIBINT Hybrid
RI-J (if used) integral strategy            ... SPLIT-RIJ (Revised 2003 algorithm where possible)
Printlevel                                  ...      1
Contraction scheme used                     ... SEGMENTED contraction
Prescreening option                         ... SCHWARTZ
   Thresh                                   ... 2.500e-11
   Tcut                                     ... 2.500e-12
   Tpresel                                  ... 2.500e-12 
Coulomb Range Separation                    ... NOT USED
Exchange Range Separation                   ... NOT USED
Multipole approximations                    ... NOT USED
Finite Nucleus Model                        ... NOT USED
CABS basis                                  ... NOT available
Auxiliary Coulomb fitting basis             ... AVAILABLE
   # of basis functions in Aux-J            ...   2498
   # of shells in Aux-J                     ...    830
   Maximum angular momentum in Aux-J        ...      4
Auxiliary J/K fitting basis                 ... NOT available
Auxiliary Correlation fitting basis         ... NOT available
Auxiliary 'external' fitting basis          ... NOT available

Checking pre-screening integrals            ... done (  0.0 sec) Dimension = 622
   => SHARK Basis and OBASIS are compatible. Storing Pre-screening
Shell pair information
Shell pair cut-off parameter TPreSel        ...   2.5e-12
Total number of shell pairs                 ...    193753
Shell pairs after pre-screening             ...    116186
Total number of primitive shell pairs       ...    584784
Primitive shell pairs kept                  ...    219297
          la=0 lb=0:  32356 shell pairs
          la=1 lb=0:  34660 shell pairs
          la=1 lb=1:   9404 shell pairs
          la=2 lb=0:  15752 shell pairs
          la=2 lb=1:   8654 shell pairs
          la=2 lb=2:   1989 shell pairs
          la=3 lb=0:   7179 shell pairs
          la=3 lb=1:   4011 shell pairs
          la=3 lb=2:   1756 shell pairs
          la=3 lb=3:    425 shell pairs

Checking whether 4 symmetric matrices of dimension 1542 fit in memory
:Max Core in MB      =   6000.00
 MB in use           =    139.27
 MB left             =   5860.73
 MB needed           =     36.31
 Data fit in memory  = YES
Calculating RI/J V-Matrix + Cholesky decomp.... done (  0.9 sec)
Calculating Nuclear repulsion               ... done (  0.0 sec) ENN=   5758.161484179180 Eh

Diagonalization of the overlap matrix:
Smallest eigenvalue                        ... 3.241e-06
Time for diagonalization                   ...    0.759 sec
Threshold for overlap eigenvalues          ... 1.000e-07
Number of eigenvalues below threshold      ... 0
Time for construction of square roots      ...    0.274 sec
Total time needed                          ...    1.107 sec

-------------------
DFT GRID GENERATION
-------------------

General Integration Accuracy     IntAcc      ... 4.388
Radial Grid Type                 RadialGrid  ... OptM3 with GC (2021)
Angular Grid (max. ang.)         AngularGrid ... 4 (Lebedev-302)
Angular grid pruning method      GridPruning ... 4 (adaptive)
Weight generation scheme         WeightScheme... mBecke (2022)
Basis function cutoff            BFCut       ... 1.0000e-11
Integration weight cutoff        WCut        ... 1.0000e-14
Partially contracted basis set               ... off
Rotationally invariant grid construction     ... off
Angular grids for H and He will be reduced by one unit

Total number of grid points                  ...   373519
Total number of batches                      ...     5875
Average number of points per batch           ...       63
Average number of grid points per atom       ...     4555

--------------------
COSX GRID GENERATION
--------------------

GRIDX 1
-------
General Integration Accuracy     IntAcc      ... 3.816
Radial Grid Type                 RadialGrid  ... OptM3 with GC (2021)
Angular Grid (max. ang.)         AngularGrid ... 1 (Lebedev-50)
Angular grid pruning method      GridPruning ... 4 (adaptive)
Weight generation scheme         WeightScheme... mBecke (2022)
Basis function cutoff            BFCut       ... 1.0000e-11
Integration weight cutoff        WCut        ... 1.0000e-14
Partially contracted basis set               ... on
Rotationally invariant grid construction     ... off
Angular grids for H and He will be reduced by one unit

Total number of grid points                  ...    47285
Total number of batches                      ...      415
Average number of points per batch           ...      113
Average number of grid points per atom       ...      577
UseSFitting                                  ... on

GRIDX 2
-------
General Integration Accuracy     IntAcc      ... 4.020
Radial Grid Type                 RadialGrid  ... OptM3 with GC (2021)
Angular Grid (max. ang.)         AngularGrid ... 2 (Lebedev-110)
Angular grid pruning method      GridPruning ... 4 (adaptive)
Weight generation scheme         WeightScheme... mBecke (2022)
Basis function cutoff            BFCut       ... 1.0000e-11
Integration weight cutoff        WCut        ... 1.0000e-14
Partially contracted basis set               ... on
Rotationally invariant grid construction     ... off
[...]
freq.     628.38  E(vib)   ...       0.09 
freq.     643.44  E(vib)   ...       0.09 
freq.     659.50  E(vib)   ...       0.08 
freq.     666.05  E(vib)   ...       0.08 
freq.     685.14  E(vib)   ...       0.07 
freq.     732.80  E(vib)   ...       0.06 
freq.     745.00  E(vib)   ...       0.06 
freq.     745.46  E(vib)   ...       0.06 
freq.     755.57  E(vib)   ...       0.06 
freq.     769.61  E(vib)   ...       0.05 
freq.     783.98  E(vib)   ...       0.05 
freq.     812.25  E(vib)   ...       0.05 
freq.     817.36  E(vib)   ...       0.05 
freq.     820.59  E(vib)   ...       0.05 
freq.     830.99  E(vib)   ...       0.04 
freq.     841.13  E(vib)   ...       0.04 
freq.     849.23  E(vib)   ...       0.04 
freq.     855.03  E(vib)   ...       0.04 
freq.     873.62  E(vib)   ...       0.04 
freq.     874.57  E(vib)   ...       0.04 
freq.     878.95  E(vib)   ...       0.04 
freq.     903.61  E(vib)   ...       0.03 
freq.     914.11  E(vib)   ...       0.03 
freq.     931.25  E(vib)   ...       0.03 
freq.     942.84  E(vib)   ...       0.03 
freq.     949.02  E(vib)   ...       0.03 
freq.     953.63  E(vib)   ...       0.03 
freq.     964.09  E(vib)   ...       0.03 
freq.     969.82  E(vib)   ...       0.03 
freq.     983.32  E(vib)   ...       0.02 
freq.     987.05  E(vib)   ...       0.02 
freq.    1002.60  E(vib)   ...       0.02 
freq.    1024.57  E(vib)   ...       0.02 
freq.    1027.85  E(vib)   ...       0.02 
freq.    1034.25  E(vib)   ...       0.02 
freq.    1047.87  E(vib)   ...       0.02 
freq.    1048.25  E(vib)   ...       0.02 
freq.    1056.36  E(vib)   ...       0.02 
freq.    1057.31  E(vib)   ...       0.02 
freq.    1061.11  E(vib)   ...       0.02 
freq.    1086.09  E(vib)   ...       0.02 
freq.    1090.06  E(vib)   ...       0.02 
freq.    1092.70  E(vib)   ...       0.02 
freq.    1116.22  E(vib)   ...       0.01 
freq.    1136.22  E(vib)   ...       0.01 
freq.    1140.84  E(vib)   ...       0.01 
freq.    1144.49  E(vib)   ...       0.01 
freq.    1149.07  E(vib)   ...       0.01 
freq.    1170.07  E(vib)   ...       0.01 
freq.    1170.91  E(vib)   ...       0.01 
freq.    1171.04  E(vib)   ...       0.01 
freq.    1172.40  E(vib)   ...       0.01 
freq.    1173.79  E(vib)   ...       0.01 
freq.    1176.62  E(vib)   ...       0.01 
freq.    1179.40  E(vib)   ...       0.01 
freq.    1180.95  E(vib)   ...       0.01 
freq.    1195.69  E(vib)   ...       0.01 
freq.    1201.80  E(vib)   ...       0.01 
freq.    1205.42  E(vib)   ...       0.01 
freq.    1206.98  E(vib)   ...       0.01 
freq.    1211.30  E(vib)   ...       0.01 
freq.    1213.04  E(vib)   ...       0.01 
freq.    1220.60  E(vib)   ...       0.01 
freq.    1228.10  E(vib)   ...       0.01 
freq.    1230.31  E(vib)   ...       0.01 
freq.    1237.87  E(vib)   ...       0.01 
freq.    1243.79  E(vib)   ...       0.01 
freq.    1250.23  E(vib)   ...       0.01 
freq.    1251.53  E(vib)   ...       0.01 
freq.    1261.56  E(vib)   ...       0.01 
freq.    1272.89  E(vib)   ...       0.01 
freq.    1288.48  E(vib)   ...       0.01 
freq.    1295.87  E(vib)   ...       0.01 
freq.    1304.97  E(vib)   ...       0.01 
freq.    1309.28  E(vib)   ...       0.01 
freq.    1312.00  E(vib)   ...       0.01 
freq.    1313.44  E(vib)   ...       0.01 
freq.    1320.19  E(vib)   ...       0.01 
freq.    1338.55  E(vib)   ...       0.01 
freq.    1343.55  E(vib)   ...       0.01 
freq.    1347.34  E(vib)   ...       0.01 
freq.    1357.81  E(vib)   ...       0.01 
freq.    1366.24  E(vib)   ...       0.01 
freq.    1376.84  E(vib)   ...       0.01 
freq.    1379.59  E(vib)   ...       0.01 
freq.    1386.68  E(vib)   ...       0.00 
freq.    1391.21  E(vib)   ...       0.00 
freq.    1396.33  E(vib)   ...       0.00 
freq.    1401.76  E(vib)   ...       0.00 
freq.    1403.40  E(vib)   ...       0.00 
freq.    1407.78  E(vib)   ...       0.00 
freq.    1421.98  E(vib)   ...       0.00 
freq.    1424.80  E(vib)   ...       0.00 
freq.    1429.52  E(vib)   ...       0.00 
freq.    1432.35  E(vib)   ...       0.00 
freq.    1452.04  E(vib)   ...       0.00 
freq.    1459.42  E(vib)   ...       0.00 
freq.    1467.50  E(vib)   ...       0.00 
freq.    1477.79  E(vib)   ...       0.00 
freq.    1479.14  E(vib)   ...       0.00 
freq.    1479.19  E(vib)   ...       0.00 
freq.    1479.82  E(vib)   ...       0.00 
freq.    1481.41  E(vib)   ...       0.00 
freq.    1482.96  E(vib)   ...       0.00 
freq.    1484.52  E(vib)   ...       0.00 
freq.    1485.21  E(vib)   ...       0.00 
freq.    1487.82  E(vib)   ...       0.00 
freq.    1490.25  E(vib)   ...       0.00 
freq.    1491.55  E(vib)   ...       0.00 
freq.    1491.72  E(vib)   ...       0.00 
freq.    1494.64  E(vib)   ...       0.00 
freq.    1500.66  E(vib)   ...       0.00 
freq.    1500.80  E(vib)   ...       0.00 
freq.    1502.09  E(vib)   ...       0.00 
freq.    1508.06  E(vib)   ...       0.00 
freq.    1534.36  E(vib)   ...       0.00 
freq.    1542.44  E(vib)   ...       0.00 
freq.    1548.05  E(vib)   ...       0.00 
freq.    1626.87  E(vib)   ...       0.00 
freq.    1633.76  E(vib)   ...       0.00 
freq.    1642.74  E(vib)   ...       0.00 
freq.    1646.37  E(vib)   ...       0.00 
freq.    1648.89  E(vib)   ...       0.00 
freq.    1651.28  E(vib)   ...       0.00 
freq.    2991.92  E(vib)   ...       0.00 
freq.    2994.49  E(vib)   ...       0.00 
freq.    3010.73  E(vib)   ...       0.00 
freq.    3017.09  E(vib)   ...       0.00 
freq.    3020.20  E(vib)   ...       0.00 
freq.    3022.89  E(vib)   ...       0.00 
freq.    3023.18  E(vib)   ...       0.00 
freq.    3025.11  E(vib)   ...       0.00 
freq.    3027.19  E(vib)   ...       0.00 
freq.    3027.97  E(vib)   ...       0.00 
freq.    3036.38  E(vib)   ...       0.00 
freq.    3053.55  E(vib)   ...       0.00 
freq.    3063.41  E(vib)   ...       0.00 
freq.    3073.43  E(vib)   ...       0.00 
freq.    3077.34  E(vib)   ...       0.00 
freq.    3077.54  E(vib)   ...       0.00 
freq.    3077.68  E(vib)   ...       0.00 
freq.    3086.10  E(vib)   ...       0.00 
freq.    3086.69  E(vib)   ...       0.00 
freq.    3088.21  E(vib)   ...       0.00 
freq.    3092.04  E(vib)   ...       0.00 
freq.    3102.95  E(vib)   ...       0.00 
freq.    3135.05  E(vib)   ...       0.00 
freq.    3138.63  E(vib)   ...       0.00 
freq.    3142.97  E(vib)   ...       0.00 
freq.    3164.94  E(vib)   ...       0.00 
freq.    3170.69  E(vib)   ...       0.00 
freq.    3183.50  E(vib)   ...       0.00 
freq.    3188.00  E(vib)   ...       0.00 
freq.    3197.51  E(vib)   ...       0.00 
freq.    3205.89  E(vib)   ...       0.00 
freq.    3205.98  E(vib)   ...       0.00 
freq.    3210.35  E(vib)   ...       0.00 
freq.    3212.08  E(vib)   ...       0.00 
freq.    3647.22  E(vib)   ...       0.00 
freq.    3667.66  E(vib)   ...       0.00 
freq.    3704.67  E(vib)   ...       0.00 
freq.    3723.64  E(vib)   ...       0.00 
freq.    3761.54  E(vib)   ...       0.00 
freq.    3771.98  E(vib)   ...       0.00 

------------
INNER ENERGY
------------

The inner energy is: U= E(el) + E(ZPE) + E(vib) + E(rot) + E(trans)
    E(el)   - is the total energy from the electronic structure calculation
              = E(kin-el) + E(nuc-el) + E(el-el) + E(nuc-nuc)
    E(ZPE)  - the the zero temperature vibrational energy from the frequency calculation
    E(vib)  - the the finite temperature correction to E(ZPE) due to population
              of excited vibrational states
    E(rot)  - is the rotational thermal energy
    E(trans)- is the translational thermal energy

Summary of contributions to the inner energy U:
Electronic energy                ...  -2032.63331193 Eh
Zero point energy                ...      0.67884299 Eh     425.98 kcal/mol
Thermal vibrational correction   ...      0.04047092 Eh      25.40 kcal/mol
Thermal rotational correction    ...      0.00141627 Eh       0.89 kcal/mol
Thermal translational correction ...      0.00141627 Eh       0.89 kcal/mol
-----------------------------------------------------------------------
Total thermal energy                  -2031.91116548 Eh


Summary of corrections to the electronic energy:
(perhaps to be used in another calculation)
Total thermal correction                  0.04330347 Eh      27.17 kcal/mol
Non-thermal (ZPE) correction              0.67884299 Eh     425.98 kcal/mol
-----------------------------------------------------------------------
Total correction                          0.72214645 Eh     453.15 kcal/mol


--------
ENTHALPY
--------

The enthalpy is H = U + kB*T
                kB is Boltzmann's constant
Total thermal energy              ...  -2031.91116548 Eh 
Thermal Enthalpy correction       ...      0.00094421 Eh       0.59 kcal/mol
-----------------------------------------------------------------------
Total Enthalpy                    ...  -2031.91022127 Eh


Note: Only C1 symmetry has been detected, increase convergence thresholds 
      if your molecule has a higher symmetry. Symmetry factor of 1.0 is   
      used for the rotational entropy correction. 
 

Note: Rotational entropy computed according to Herzberg 
Infrared and Raman Spectra, Chapter V,1, Van Nostrand Reinhold, 1945 
Point Group:  C1, Symmetry Number:   1  
Rotational constants in cm-1:     0.003946     0.002241     0.001821 

Vibrational entropy computed according to the QRRHO of S. Grimme
Chem.Eur.J. 2012 18 9955 using a reference frequency of 100.0 cm-1


-------
ENTROPY
-------

The entropy contributions are T*S = T*(S(el)+S(vib)+S(rot)+S(trans))
     S(el)   - electronic entropy
     S(vib)  - vibrational entropy
     S(rot)  - rotational entropy
     S(trans)- translational entropy
The entropies will be listed as multiplied by the temperature to get
units of energy

Electronic entropy                ...      0.00000000 Eh      0.00 kcal/mol
Vibrational entropy               ...      0.07242801 Eh     45.45 kcal/mol
Rotational entropy                ...      0.01798221 Eh     11.28 kcal/mol
Translational entropy             ...      0.02138181 Eh     13.42 kcal/mol
-----------------------------------------------------------------------
Final entropy term                ...      0.11179203 Eh     70.15 kcal/mol

In case the symmetry of your molecule has not been determined correctly
or in case you have a reason to use a different symmetry number we print 
out the resulting rotational entropy values for sn=1,12:

 non-linear molecules -----------------------------------
|  sn= 1 | S(rot)=       0.01798221 Eh     11.28 kcal/mol|
|  sn= 2 | S(rot)=       0.01732775 Eh     10.87 kcal/mol|
|  sn= 3 | S(rot)=       0.01694492 Eh     10.63 kcal/mol|
|  sn= 4 | S(rot)=       0.01667330 Eh     10.46 kcal/mol|
|  sn= 5 | S(rot)=       0.01646261 Eh     10.33 kcal/mol|
|  sn= 6 | S(rot)=       0.01629047 Eh     10.22 kcal/mol|
|  sn= 7 | S(rot)=       0.01614492 Eh     10.13 kcal/mol|
|  sn= 8 | S(rot)=       0.01601884 Eh     10.05 kcal/mol|
|  sn= 9 | S(rot)=       0.01590763 Eh      9.98 kcal/mol|
|  sn=10 | S(rot)=       0.01580815 Eh      9.92 kcal/mol|
|  sn=11 | S(rot)=       0.01571816 Eh      9.86 kcal/mol|
|  sn=12 | S(rot)=       0.01563601 Eh      9.81 kcal/mol|
 linear molecules ---------------------------------------
|  Dinfh | S(rot)=       0.01128229 Eh      7.08 kcal/mol|
|  Cinfv | S(rot)=       0.01193674 Eh      7.49 kcal/mol|
 --------------------------------------------------------


-------------------
GIBBS FREE ENERGY
-------------------

The Gibbs free energy is G = H - T*S

Total enthalpy                    ...  -2031.91022127 Eh 
Total entropy correction          ...     -0.11179203 Eh    -70.15 kcal/mol
-----------------------------------------------------------------------
Final Gibbs free energy         ...  -2032.02201330 Eh

For completeness - the Gibbs free energy minus the electronic energy
G-E(el)                           ...      0.61129864 Eh    383.59 kcal/mol


Maximum memory used throughout the entire PROP-calculation: 1820.8 MB
--------------------------------------------------------------------------
WARNING: There was an error initializing an OpenFabrics device.

  Local host:   c09b01n01
  Local device: mlx5_0
--------------------------------------------------------------------------
--------------------------------------------------------------------------
WARNING: There is at least one non-excluded one OpenFabrics device found,
but there are no active ports detected (or Open MPI was unable to use
them).  This is most certainly not what you wanted.  Check your
cables, subnet manager configuration, etc.  The openib BTL will be
ignored for this job.

  Local host: c09b01n01
--------------------------------------------------------------------------
[c09b01n01:2126492] 58 more processes have sent help message help-mpi-btl-openib.txt / error in device init
[c09b01n01:2126492] Set MCA parameter "orte_base_help_aggregate" to 0 to see all help / error messages
[c09b01n01:2126492] 4 more processes have sent help message help-mpi-btl-openib.txt / no active ports found

--------------------------------
SUGGESTED CITATIONS FOR THIS RUN
--------------------------------

Below you find a list of papers that are relevant to this ORCA run
We neither can nor want to force you to cite these papers, but we appreciate if you do
You receive ORCA, which is the product of decades of hard work by many enthusiastic individuals, for free
The only thing we kindly ask in return is that you cite our papers,
We deeply appreciate it, if you show your appreciation for ORCA by not just citing the generic ORCA reference.

Please note that relegating all ORCA citations to the supporting information does *not* help us.
SI sections are not indexed - citations you put there will not count into any citation statistics
But we need these citations in order to attract the funding resources that allow us to do what we are doing

Therefore, if you are a happy ORCA user, please consider citing a few of the papers listed below in the main body of your paper

In addition to the list printed below, the program has created the file opt-conf-5.bibtex that contains the list in bibtex format
You can import this file easily into all common literature databanks and citation aid programs


List of essential papers. We consider these as the minimum necessary citations

  1. Neese, F.
     Software update: the ORCA program system, version 6.0
     WIRES Comput. Molec. Sci. 2025 15(1), e70019
     doi.org/10.1002/wcms.7019

List of papers to cite with high priority. The work reported in these papers was absolutely
necessary for this run to complete.
Our perspective: the developers of density functionals and basis sets usually get cited in chemistry papers
Good! But without the algorithms to do something with them, the functionals or basis sets would not do anything.
Hence, in our opinion, the algorithm design and method developments papers are equally worthy of getting cited

  1. Neese, F.
     An improvement of the resolution of the identity approximation for the formation of the Coulomb matrix
     J. Comp. Chem. 2003 24(14), 1740-1747
     doi.org/10.1002/jcc.10318
  2. Neese, F.; Wennmohs, F.; Hansen, A.; Becker, U.
     Efficient, approximate and parallel Hartree-Fock and hybrid DFT calculations. A 'chain-of-spheres' algorithm for the Hartree-Fock exchange
     Chem. Phys. 2009 356(1-3), 98-109
     doi.org/10.1016/j.chemphys.2008.10.036
  3. Bykov, D.; Petrenko, T.; Izsak, R.; Kossmann, S.; Becker, U.; Valeev, E.; Neese, F.
     Efficient implementation of the analytic second derivatives of Hartree-Fock and hybrid DFT energies: a detailed analysis of different approximations
     Molec. Phys. 2015 113 , 1961-1977
     doi.org/10.1080/00268976.2015.1025114
  4. Caldeweyher, E.; Bannwarth, C.; Grimme, S.
     Extension of the D3 dispersion coefficient model
     J. Chem. Phys. 2017 147 , 034112
     doi.org/10.1063/1.4993215
  5. Caldeweyher, E.; Ehlert, S.; Hansen, A.; Neugebauer, H.; Spicher, S.; Bannwarth, C.; Grimme, S.
     A generally applicable atomic-charge dependent London dispersion correction
     J. Chem. Phys. 2019 150 , 154122
     doi.org/10.1063/1.5090222
  6. Garcia-Rates, M.; Neese, F.
     Efficient implementation of the analytical second derivatives of hartree-fock and hybrid DFT energies within the framework of the conductor-like polarizable continuum model
     J. Comput. Chem. 2019 40 , 1816-1828
     doi.org/10.1002/jcc.25833
  7. Caldeweyher, E.; Mewes, J.; Ehlert, S.; Grimme, S.
     Extension and evaluation of the D4 London-dispersion model for periodic systems
     Phys. Chem. Chem. Phys. 2020 22(16), 8499-8512
     doi.org/10.1039/D0CP00502A
  8. Garcia-Rates, M.; Neese, F.
     Effect of the Solute Cavity on the Solvation Energy and its Derivatives within the Framework of the Gaussian Charge Scheme
     J. Comput. Chem. 2020 41 , 922-939
     doi.org/10.1002/jcc.26139
  9. Helmich-Paris, B.; de Souza, B.; Neese, F.; Izsák, R.
     An improved chain of spheres for exchange algorithm
     J. Chem. Phys. 2021 155(10), 104109
     doi.org/10.1063/5.0058766
 10. Neese, F.
     The SHARK Integral Generation and Digestion System
     J. Comp. Chem. 2022 44(3), 381
     doi.org/10.1002/jcc.26942
 11. Wittmann, L.; Gordiy, I.; Friede, M.; Helmich-Paris, B.; Grimme, S.; Hansen, A.; Bursch, M.
     Extension of the D3 and D4 London Dispersion Corrections to the full Actinides Series
     Phys. Chem. Chem. Phys. 2024 26(32), 21379-21394
     doi.org/10.1039/D4CP01514B

List of suggested additional citations. These are papers that are important in the 'surrounding' of 
of this run, or papers that preceded the highly important papers. If you like your results we are grateful for a citation.

  1. Izsak, R.; Neese, F.
     An overlap fitted chain of spheres exchange method
     J. Chem. Phys. 2011 135 , 144105
     doi.org/10.1063/1.3646921
  2. Izsak, R.; Hansen, A.; Neese, F.
     The resolution of identity and chain of spheres approximations for the LPNO-CCSD singles Fock term
     Molec. Phys. 2012 110 , 2413-2417
     doi.org/10.1080/00268976.2012.687466
  3. Neese, F.
     The ORCA program system
     WIRES Comput. Molec. Sci. 2012 2(1), 73-78
     doi.org/10.1002/wcms.81
  4. Izsak, R.; Neese, F.; Klopper, W.
     Robust fitting techniques in the chain of spheres approximation to the Fock exchange: The role of the complementary space
     J. Chem. Phys. 2013 139 , 
     doi.org/10.1063/1.4819264
  5. Neese, F.
     Software update: the ORCA program system, version 4.0
     WIRES Comput. Molec. Sci. 2018 8(1), 1-6
     doi.org/10.1002/wcms.1327
  6. Neese, F.; Wennmohs, F.; Becker, U.; Riplinger, C.
     The ORCA quantum chemistry program package
     J. Chem. Phys. 2020 152(22), 224108
     doi.org/10.1063/5.0004608
  7. Neese, F.
     Software update: The ORCA program system—Version 5.0
     WIRES Comput. Molec. Sci. 2022 12(1), e1606
     doi.org/10.1002/wcms.1606

List of optional additional citations

  1. Neese, F.
     Approximate second-order SCF convergence for spin unrestricted wavefunctions
     Chem. Phys. Lett. 2000 325(1-3), 93-98
     doi.org/10.1016/s0009-2614(00)00662-x

Timings for individual modules:

Sum of individual times          ...     6963.302 sec (= 116.055 min)
Startup calculation              ...      324.350 sec (=   5.406 min)   4.7 %
SCF iterations                   ...     2111.678 sec (=  35.195 min)  30.3 %
Property integrals               ...     1041.152 sec (=  17.353 min)  15.0 %
SCF Response                     ...     2249.304 sec (=  37.488 min)  32.3 %
Property calculations            ...      559.424 sec (=   9.324 min)   8.0 %
SCF Gradient evaluation          ...      673.824 sec (=  11.230 min)   9.7 %
Geometry relaxation              ...        3.570 sec (=   0.059 min)   0.1 %
                             ****ORCA TERMINATED NORMALLY****
TOTAL RUN TIME: 0 days 1 hours 58 minutes 31 seconds 289 msec
