
                                 *****************
                                 * O   R   C   A *
                                 *****************

                                            #,                                       
                                            ###                                      
                                            ####                                     
                                            #####                                    
                                            ######                                   
                                           ########,                                 
                                     ,,################,,,,,                         
                               ,,#################################,,                 
                          ,,##########################################,,             
                       ,#########################################, ''#####,          
                    ,#############################################,,   '####,        
                  ,##################################################,,,,####,       
                ,###########''''           ''''###############################       
              ,#####''   ,,,,##########,,,,          '''####'''          '####       
            ,##' ,,,,###########################,,,                        '##       
           ' ,,###''''                  '''############,,,                           
         ,,##''                                '''############,,,,        ,,,,,,###''
      ,#''                                            '''#######################'''  
     '                                                          ''''####''''         
             ,#######,   #######,   ,#######,      ##                                
            ,#'     '#,  ##    ##  ,#'     '#,    #''#        ,####,    ,#,          
            ##       ##  ##   ,#'  ##            #'  '#       #'       ,# #          
            ##       ##  #######   ##           ,######,      #####,      #          
            '#,     ,#'  ##    ##  '#,     ,#' ,#      #,     #,   #      #          
             '#######'   ##     ##  '#######'  #'      '#     '####' #    #          



                #########################################################
                #                        -***-                          #
                #          Department of theory and spectroscopy        #
                #                                                       #
                #                      Frank Neese                      #
                #                                                       #
                #     Directorship, Architecture, Infrastructure        #
                #                    SHARK, DRIVERS                     #
                #        Core code/Algorithms in most modules           #
                #                                                       #
                #        Max Planck Institute fuer Kohlenforschung      #
                #                Kaiser Wilhelm Platz 1                 #
                #                 D-45470 Muelheim/Ruhr                 #
                #                      Germany                          #
                #                                                       #
                #                  All rights reserved                  #
                #                        -***-                          #
                #########################################################


                         Program Version 6.1.0-f.0  -   RELEASE   -


 With contributions from (in alphabetic order):
[Max-Planck-Institut fuer Kohlenforschung]                               
  Daniel Aravena         : Magnetic Suceptibility                        
  Michael Atanasov       : Ab Initio Ligand Field Theory (pilot matlab implementation)
  Alexander A. Auer      : GIAO ZORA, VPT2 properties, NMR spectrum      
  Ute Becker             : All parallelization in ORCA, NUMFREQ, NUMCALC 
  Giovanni Bistoni       : ED, misc. LED, open-shell LED, HFLD           
  Dmytro Bykov           : pre 5.0 version of the SCF Hessian            
  Marcos Casanova-Páez   : Triplet and SCS-CIS(D). UHF-(DLPNO)-IP/EA/STEOM-CCSD. UHF-CVS-IP/STEOM-CCSD   
  Vijay G. Chilkuri      : MRCI spin determinant printing, contributions to CSF-ICE 
  Pauline Colinet        : FMM embedding                                 
  Dipayan Datta          : RHF DLPNO-CCSD density                        
  Achintya Kumar Dutta   : EOM-CC, STEOM-CC                              
  Nicolas Foglia         : Exact transition moments, OPA infrastructure, MCD improvements    
  Dmitry Ganyushin       : Spin-Orbit,Spin-Spin,Magnetic field MRCI      
  Miquel Garcia-Rates    : C-PCM and meta-GGA Hessian, CCSD/C-PCM, Gaussian charge scheme 
  Tiago L. C. Gouveia    : GS-ROHF, GS-ROCIS                             
  Yang Guo               : DLPNO-NEVPT2, F12-NEVPT2, CIM, IAO-localization        
  Andreas Hansen         : Spin unrestricted coupled pair/coupled cluster methods 
  Ingolf Harden          : AUTO-CI MPn and infrastructure                
  Benjamin Helmich-Paris : MC-RPA, TRAH-(SCF,CASSCF), AVAS, COSX integrals, SCF dyn. polar., MC-PDFT, srDFT 
  Lee Huntington         : MR-EOM, pCC                                   
  Robert Izsak           : Overlap fitted RIJCOSX, COSX-SCS-MP3, EOM     
  Riya Kayal             : Wick's Theorem for AUTO-CI, AUTO-CI UHF-CCSDT 
  Emily Kempfer          : AUTO-CI RHF CISDT and CCSDT, approximate NEVPT4
  Christian Kollmar      : KDIIS, OOCD, Brueckner-CCSD(T), CCSD density, CASPT2, CASPT2-K, improved NEVPT2 
  Axel Koslowski         : Symmetry handling                             
  Simone Kossmann        : meta-GGA functionals, TD-DFT gradient, OOMP2, (MP2 Hessian; deprecated post 5.0) 
  Lucas Lang             : DCDCAS, Hyperfine gauge corrections, ICE-SOC+SSC
  Marvin Lechner         : AUTO-CI (C++ implementation), FIC-MRCC        
  Spencer Leger          : CASSCF response                               
  Dagmar Lenk            : GEPOL surface, SMD, ORCA-2-JSON               
  Dimitrios Liakos       : Extrapolation schemes; Compound Job, Property file
  Dimitrios Manganas     : Further ROCIS development; embedding schemes. LFT, Crystal Embedding 
  Dimitrios Pantazis     : SARC Basis sets                               
  Anastasios Papadopoulos: AUTO-CI, single reference methods and gradients 
  Taras Petrenko         : pre 6.0 DFT Hessian and TD-DFT gradient,  ECA, NRVS 
  Petra Pikulova         : Analytic Raman intensities                    
  Peter Pinski           : DLPNO-MP2, DLPNO-MP2 Gradient                 
  Shashank Vittal Rao    : ES-AILFT, MagRelax                            
  Christoph Reimann      : Effective Core Potentials                     
  Marius Retegan         : Local ZFS, SOC                                
  Christoph Riplinger    : Optimizer, TS searches, QM/MM, DLPNO-CCSD(T), (RO)-DLPNO pert. Triples 
  Michael Roemelt        : Original ROCIS implementation, recursive CI coupling coefficients
  Masaaki Saitow         : Open-shell DLPNO-CCSD energy and density      
  Barbara Sandhoefer     : DKH picture change effects                    
  Yorick L. A. Schmerwitz: GMF and freeze-and-release deltaSCF, NEB S-IDPP initial path                    
  Kantharuban Sivalingam : CASSCF convergence/infrastructure, NEVPT2, NEVPT3, NEVPT4(SD), FIC-MRCI and CEPA variants
  Bernardo de Souza      : ESD, SOC TD-DFT                               
  Georgi L. Stoychev     : AutoAux, RI-MP2 NMR, DLPNO-MP2 response, X2C  
  Van Anh Tran           : RI-MP2 g-tensors                              
  Willem Van den Heuvel  : Paramagnetic NMR                              
  Zikuan Wang            : NOTCH, Electric field optimization            
  Frank Wennmohs         : Technical directorship and infrastructure     
  Hang Xu                : AUTO-CI-Response properties                   
                                                                         
[FACCTs GmbH]                                                            
  Markus Bursch, Nicolas Foglia, Miquel Garcia-Rates, Ingolf Harden, Hagen Neugebauer, Anastasios Papadopoulos, 
  Christoph Riplinger, Bernardo de Souza, Georgi L. Stoychev                                                    
                                                                 
  APM, various basis sets, CI-OPT, improved COSX, DLPNO-Multilevel,           
  DOCKER, DRACO, updates on ESD, Fragmentator, GOAT, IRC, LR-CPCM, L-BFGS, MBIS, meta-GGA TD-DFT gradient, ML-optimized integration grids, 
  MM, NACMEs, nearIR, NEB, NEB-TS, NL-DFT gradient (VV10), 2- and 3-layer-ONIOM, interface openCOSMO-RS, QMMM,   
  Crystal-QMMM, RESP, rigid body optimization, SF, symmetry and pop. for TD-DFT, various functionals, SOLVATOR                                   
                                                                         
[Other institutions]                                                     
  V. Asgeirsson          : NEB                                           
  Christoph Bannwarth    : sTDA-DFT, sTD-DFT, PBEh-3c, B97-3c, D3        
  Giovanni Bistoni       : ETS/NOCV, ADLD/ADEX, COVALED                  
  Martin Brehm           : Molecular dynamics                            
  Ronald Cardenas        : ETS/NOCV                                      
  Martina Colucci        : COVALED                                       
  Sebastian Ehlert       : rSCAN, r2SCAN, r2SCAN-3c, D4, dhf basis sets  
  Marvin Friede          : D4 for Fr, Ra, Ac-Lr                          
  Lars Goerigk           : TD-DFT with DH, B97 family of functionals     
  Stefan Grimme          : VdW corrections, initial TS optimization, DFT functionals, gCP, sTDA/sTD-DF 
  Waldemar Hujo          : DFT-NL                                        
  H. Jonsson             : NEB                                           
  Holger Kruse           : gCP                                           
  Marcel Mueller         : wB97X-3c, vDZP basis set                      
  Hagen Neugebauer       : wr2SCAN, Native XTB                           
  Gianluca Regni         : ADLD/ADEX                                     
  Tobias Risthaus        : pre 6.0 range-separated hybrid DFT and stability analysis
  Lukas Wittmann         : regularized MP2, r2SCAN double-hybrids, wr2SCAN        
                                                                         
We gratefully acknowledge several colleagues who have allowed us to      
interface, adapt or use parts of their codes:                            
  Ed Valeev, F. Pavosevic, A. Kumar             : LibInt (2-el integral package), F12 methods 
  Garnet Chan, S. Sharma, J. Yang, R. Olivares  : DMRG                   
  Ulf Ekstrom                                   : XCFun DFT Library      
  Mihaly Kallay                                 : mrcc  (arbitrary order and MRCC methods)
  Frank Weinhold                                : gennbo (NPA and NBO analysis)           
  Simon Mueller                                 : openCOSMO-RS                            
  Christopher J. Cramer and Donald G. Truhlar   : smd solvation model                     
  S Lehtola, MJT Oliveira, MAL Marques          : LibXC Library                           
  Liviu Ungur et al                             : ANISO software                          


 Your calculation uses the libint2 library for the computation of 2-el integrals
 For citations please refer to: http://libint.valeyev.net

 Your ORCA version has been built with support for libXC version: 7.0.0
 For citations please refer to: https://libxc.gitlab.io

 This ORCA versions uses:
   CBLAS   interface :  Fast vector & matrix operations
   LAPACKE interface :  Fast linear algebra routines
   SCALAPACK package :  Parallel linear algebra routines
   Shared memory     :  Shared parallel matrices
   BLAS/LAPACK       :  OpenBLAS 0.3.29  USE64BITINT DYNAMIC_ARCH NO_AFFINITY Cooperlake SINGLE_THREADED
        Core in use  :  Cooperlake
   Copyright (c) 2011-2014, The OpenBLAS Project


  ***********************************
  * Starting time: Wed Mar  4 07:59:55 2026
  * Host name:     c03b01n07
  * Process ID:    2925626
  * Working dir.:  /lustre1/jiangy/jiangy_liuxy/NMR/B9D7C2-SRSR
  ***********************************

NOTE: MaxCore=6000 MB was set to SCF,MP2,MDCI,CIPSI,MRCI,RASCI and CIS
      => If you want to overwrite this, your respective input block should be placed after the MaxCore statement


***************************************
The coordinates will be read from file: conf-13.xyz
***************************************


Your calculation utilizes the atom-pairwise dispersion correction
based on EEQ partial charges (D4)


Warning: RI is on but no J-basis has been assigned. Assigning Def2/J (nothing to worry about!)
================================================================================

----- Orbital basis set information -----
Your calculation utilizes the basis: def2-TZVP
   F. Weigend and R. Ahlrichs, Phys. Chem. Chem. Phys. 7, 3297 (2005).

----- AuxJ basis set information -----
Your calculation utilizes the auxiliary basis: def2/J
   H-Rn: F. Weigend, Phys. Chem. Chem. Phys. 8, 1057 (2006).
   Fr-Lr: K. Eichkorn, F. Weigend, O. Treutler, R. Ahlrichs; Theor. Chem. Acc. 97, 119 (1997).

================================================================================
                                        WARNINGS
                       Please study these warnings very carefully!
================================================================================


WARNING: Geometry Optimization
  ===> : Switching off AutoStart
         For restart on a previous wavefunction, please use MOREAD

================================================================================
                                       INPUT FILE
================================================================================
NAME = opt-conf-13.inp
|  1> ! B3LYP OPT FREQ DEF2-TZVP D4 CPCM(Methanol) 
|  2> ! TightOpt
|  3> %pal nprocs 64 end
|  4> %maxcore 6000
|  5> 
|  6> %cpcm
|  7> end
|  8> 
|  9> %freq
| 10>    Temp 298.15
| 11> end
| 12> 
| 13> * xyzfile 0 1 conf-13.xyz
| 14> 
| 15> 
| 16>                          ****END OF INPUT****
================================================================================

                       *****************************
                       * Geometry Optimization Run *
                       *****************************

Geometry optimization settings:
Update method            Update   .... BFGS
Choice of coordinates    CoordSys .... (2022) Redundant Internals
Initial Hessian          InHess   .... Almloef's Model
Max. no of cycles        MaxIter  .... 246

Convergence Tolerances:
Energy Change            TolE     ....  1.0000e-06 Eh
Max. Gradient            TolMAXG  ....  1.0000e-04 Eh/bohr
RMS Gradient             TolRMSG  ....  3.0000e-05 Eh/bohr
Max. Displacement        TolMAXD  ....  1.0000e-03 bohr
RMS Displacement         TolRMSD  ....  6.0000e-04 bohr
Strict Convergence                .... False

------------------------------------------------------------------------------
                        ORCA OPTIMIZATION COORDINATE SETUP
------------------------------------------------------------------------------

The optimization will be done in redundant internal coordinates (2022)
Making redundant internal coordinates   ...  (2022 redundants) done
Evaluating the initial hessian          ...  (Almloef) done
Evaluating the coordinates              ...  done
Calculating the B-matrix                .... done
Calculating the G-matrix                .... done
The number of degrees of freedom        ....  406

    -----------------------------------------------------------------
                    Redundant Internal Coordinates


    -----------------------------------------------------------------
         Definition                    Initial Value    Approx d2E/dq
    -----------------------------------------------------------------
      1. B(C   1,C   0)                  1.3982         0.606250   
      2. B(C   2,C   1)                  1.3994         0.603684   
      3. B(C   3,C   2)                  1.3854         0.635426   
      4. B(C   4,C   3)                  1.3890         0.627143   
      5. B(C   5,C   0)                  1.3894         0.626263   
      6. B(C   5,C   4)                  1.3873         0.630998   
      7. B(C   6,C   4)                  1.5009         0.415673   
      8. B(C   7,C   6)                  1.5432         0.355887   
      9. B(C   8,C   7)                  1.5432         0.355937   
     10. B(C   9,C   8)                  1.5411         0.358641   
     11. B(C  10,C   9)                  1.5045         0.410245   
     12. B(C  11,C  10)                  1.3928         0.618339   
     13. B(C  12,C  11)                  1.3826         0.642123   
     14. B(C  13,C  12)                  1.4040         0.593486   
     15. B(C  14,C  13)                  1.3819         0.643718   
     16. B(C  15,C  14)                  1.3853         0.635642   
     17. B(C  15,C  10)                  1.3854         0.635423   
     18. B(C  16,C   7)                  1.5332         0.369256   
     19. B(C  17,C   8)                  1.5381         0.362571   
     20. B(O  18,C   2)                  1.3653         0.612791   
     21. B(O  19,C   0)                  1.3650         0.613425   
     22. B(O  20,C   1)                  1.3777         0.585530   
     23. B(O  21,C  13)                  1.3610         0.622617   
     24. B(O  22,C  12)                  1.3742         0.593071   
     25. B(C  23,O  20)                  1.4294         0.484129   
     26. B(C  24,C  23)                  1.5494         0.347861   
     27. B(C  25,C  24)                  1.5157         0.393697   
     28. B(C  26,C  23)                  1.5389         0.361621   
     29. B(O  27,C  26)                  1.4082         0.523334   
     30. B(C  28,C  25)                  1.3934         0.617154   
     31. B(C  29,C  28)                  1.3811         0.645628   
     32. B(C  30,C  29)                  1.4068         0.587350   
     33. B(C  31,C  30)                  1.3816         0.644398   
     34. B(C  32,C  31)                  1.3859         0.634215   
     35. B(C  32,C  25)                  1.3829         0.641205   
     36. B(C  33,O  19)                  1.4071         0.525475   
     37. B(C  34,O  18)                  1.4104         0.519111   
     38. B(C  35,O  22)                  1.4058         0.528025   
     39. B(O  36,C  24)                  1.4075         0.524666   
     40. B(O  37,C  16)                  1.4086         0.522603   
     41. B(O  38,C  17)                  1.4058         0.528013   
     42. B(O  39,C  29)                  1.3753         0.590663   
     43. B(O  40,C  30)                  1.3594         0.626103   
     44. B(C  41,O  39)                  1.4095         0.521008   
     45. B(H  42,C   3)                  1.0767         0.378162   
     46. B(H  43,C   5)                  1.0777         0.376694   
     47. B(H  44,C   6)                  1.0909         0.358967   
     48. B(H  45,C   6)                  1.0918         0.357699   
     49. B(H  46,C   7)                  1.0969         0.351144   
     50. B(H  47,C   8)                  1.0952         0.353333   
     51. B(H  48,C   9)                  1.0893         0.360966   
     52. B(H  49,C   9)                  1.0913         0.358378   
     53. B(H  50,C  11)                  1.0780         0.376311   
     54. B(H  51,C  14)                  1.0792         0.374709   
     55. B(H  52,C  15)                  1.0799         0.373690   
     56. B(H  53,C  16)                  1.0993         0.347964   
     57. B(H  54,C  16)                  1.0917         0.357806   
     58. B(H  55,C  17)                  1.0944         0.354386   
     59. B(H  56,C  17)                  1.0958         0.352537   
     60. B(H  57,O  21)                  0.9678         0.505347   
     61. B(H  57,O  22)                  2.1048         0.010000   
     62. B(H  58,C  23)                  1.0976         0.350140   
     63. B(H  59,C  24)                  1.0976         0.350227   
     64. B(H  60,C  26)                  1.0973         0.350551   
     65. B(H  61,C  26)                  1.0922         0.357245   
     66. B(H  62,O  20)                  2.2381         0.010000   
     67. B(H  62,O  18)                  2.1187         0.010000   
     68. B(H  62,O  27)                  0.9751         0.491818   
     69. B(H  63,C  28)                  1.0783         0.375870   
     70. B(H  64,C  31)                  1.0781         0.376154   
     71. B(H  65,C  32)                  1.0788         0.375215   
     72. B(H  66,C  33)                  1.0891         0.361296   
     73. B(H  67,H  51)                  2.4095         0.010000   
     74. B(H  67,C  33)                  1.0941         0.354757   
     75. B(H  68,C  33)                  1.0943         0.354416   
     76. B(H  69,C  34)                  1.0940         0.354894   
     77. B(H  70,C  34)                  1.0889         0.361538   
     78. B(H  71,C  34)                  1.0941         0.354722   
     79. B(H  72,C  35)                  1.0948         0.353750   
     80. B(H  73,C  35)                  1.0885         0.362048   
     81. B(H  74,C  32)                  2.9848         0.010000   
     82. B(H  74,C  35)                  1.0933         0.355703   
     83. B(H  75,O  27)                  1.8612         0.018972   
     84. B(H  75,O  36)                  0.9775         0.487590   
     85. B(H  76,O  37)                  0.9641         0.512225   
     86. B(H  77,O  36)                  1.9115         0.015773   
     87. B(H  77,O  38)                  0.9715         0.498418   
     88. B(H  78,O  39)                  2.1114         0.010000   
     89. B(H  78,O  40)                  0.9671         0.506551   
     90. B(H  79,O  21)                  2.3635         0.010000   
     91. B(H  79,C  41)                  1.0927         0.356485   
     92. B(H  80,C  41)                  1.0941         0.354753   
     93. B(H  81,C  41)                  1.0889         0.361624   
     94. A(C   1,C   0,O  19)          115.6101         0.428673   
     95. A(C   5,C   0,O  19)          125.1409         0.431179   
     96. A(C   1,C   0,C   5)          119.1069         0.433101   
     97. A(C   0,C   1,O  20)          121.4519         0.425114   
     98. A(C   0,C   1,C   2)          120.2638         0.430253   
     99. A(C   2,C   1,O  20)          118.2434         0.424791   
    100. A(C   3,C   2,O  18)          125.0532         0.432226   
    101. A(C   1,C   2,C   3)          119.4556         0.433903   
    102. A(C   1,C   2,O  18)          115.4021         0.428268   
    103. A(C   4,C   3,H  42)          119.2491         0.356541   
    104. A(C   2,C   3,H  42)          120.3434         0.357337   
    105. A(C   2,C   3,C   4)          120.2310         0.436892   
    106. A(C   5,C   4,C   6)          120.2459         0.405468   
    107. A(C   3,C   4,C   6)          119.2750         0.405029   
    108. A(C   3,C   4,C   5)          119.9035         0.436341   
    109. A(C   4,C   5,H  43)          119.0770         0.356677   
    110. A(C   0,C   5,H  43)          120.3567         0.356221   
    111. A(C   0,C   5,C   4)          120.4807         0.436231   
    112. A(C   4,C   6,H  44)          110.1446         0.329904   
    113. A(C   7,C   6,H  45)          108.2156         0.321397   
    114. A(C   4,C   6,C   7)          109.1513         0.366994   
    115. A(H  44,C   6,H  45)          108.0443         0.290390   
    116. A(C   4,C   6,H  45)          111.5256         0.329711   
    117. A(C   7,C   6,H  44)          109.7225         0.321584   
    118. A(C   6,C   7,C  16)          110.4563         0.359643   
    119. A(C   8,C   7,C  16)          114.0647         0.359651   
    120. A(C  16,C   7,H  46)          106.9041         0.322366   
    121. A(C   8,C   7,H  46)          105.2717         0.320434   
    122. A(C   6,C   7,H  46)          107.1119         0.320426   
    123. A(C   6,C   7,C   8)          112.4975         0.357402   
    124. A(C   7,C   8,C  17)          109.1507         0.358534   
    125. A(C  17,C   8,H  47)          105.8063         0.321730   
    126. A(C   7,C   8,C   9)          115.1342         0.357870   
    127. A(C   9,C   8,H  47)          107.3805         0.321157   
    128. A(C   7,C   8,H  47)          106.9886         0.320760   
    129. A(C   9,C   8,C  17)          111.8344         0.358997   
    130. A(H  48,C   9,H  49)          108.1138         0.290730   
    131. A(C  10,C   9,H  48)          108.4248         0.329490   
    132. A(C  10,C   9,H  49)          110.5442         0.329099   
    133. A(C   8,C   9,C  10)          110.5671         0.366652   
    134. A(C   8,C   9,H  48)          109.2665         0.322283   
    135. A(C   8,C   9,H  49)          109.8667         0.321903   
    136. A(C   9,C  10,C  11)          121.1748         0.403084   
    137. A(C  11,C  10,C  15)          118.8002         0.435780   
    138. A(C   9,C  10,C  15)          119.9979         0.405027   
    139. A(C  10,C  11,C  12)          120.8410         0.436604   
    140. A(C  10,C  11,H  50)          119.1478         0.355391   
    141. A(C  12,C  11,H  50)          120.0051         0.357676   
    142. A(C  11,C  12,C  13)          119.6714         0.433391   
    143. A(C  13,C  12,O  22)          114.3800         0.424469   
    144. A(C  11,C  12,O  22)          125.9395         0.430504   
    145. A(C  12,C  13,O  21)          120.2230         0.428181   
    146. A(C  12,C  13,C  14)          119.5740         0.433585   
    147. A(C  14,C  13,O  21)          120.1991         0.434476   
    148. A(C  13,C  14,H  51)          118.4446         0.357567   
    149. A(C  13,C  14,C  15)          120.0795         0.438979   
    150. A(C  15,C  14,H  51)          121.4688         0.356801   
    151. A(C  14,C  15,H  52)          119.4116         0.356636   
    152. A(C  10,C  15,H  52)          119.5617         0.356615   
    153. A(C  10,C  15,C  14)          121.0159         0.437953   
    154. A(O  37,C  16,H  54)          104.8276         0.340443   
    155. A(C   7,C  16,H  54)          111.3143         0.323361   
    156. A(O  37,C  16,H  53)          110.2171         0.338860   
    157. A(C   7,C  16,H  53)          109.7338         0.321886   
    158. A(C   7,C  16,O  37)          112.2028         0.381802   
    159. A(H  53,C  16,H  54)          108.3952         0.288990   
    160. A(O  38,C  17,H  56)          109.9772         0.340185   
    161. A(C   8,C  17,O  38)          111.8052         0.381275   
    162. A(H  55,C  17,H  56)          108.4470         0.289146   
    163. A(C   8,C  17,H  56)          109.6958         0.321612   
    164. A(O  38,C  17,H  55)          106.2538         0.340482   
    165. A(C   8,C  17,H  55)          110.5613         0.321887   
    166. A(C   2,O  18,C  34)          117.9409         0.414176   
    167. A(C   0,O  19,C  33)          118.1948         0.415150   
    168. A(C   1,O  20,C  23)          117.1070         0.405801   
    169. A(C  13,O  21,H  57)          107.4837         0.368575   
    170. A(C  12,O  22,C  35)          118.2515         0.413023   
    171. A(C  26,C  23,H  58)          109.8487         0.321115   
    172. A(C  24,C  23,H  58)          108.3082         0.319086   
    173. A(O  20,C  23,H  58)          108.8114         0.334919   
    174. A(C  24,C  23,C  26)          110.7103         0.356979   
    175. A(O  20,C  23,C  26)          104.1433         0.375420   
    176. A(O  20,C  23,C  24)          114.9148         0.372917   
    177. A(C  23,C  24,O  36)          111.8459         0.378131   
    178. A(O  36,C  24,H  59)          105.8158         0.339450   
    179. A(C  25,C  24,H  59)          107.7186         0.325636   
    180. A(C  23,C  24,H  59)          109.2881         0.319099   
    181. A(C  25,C  24,O  36)          112.7812         0.386346   
    182. A(C  23,C  24,C  25)          109.2157         0.362183   
    183. A(C  28,C  25,C  32)          119.6105         0.436341   
    184. A(C  24,C  25,C  32)          121.4265         0.402738   
    185. A(C  24,C  25,C  28)          118.9627         0.400035   
    186. A(O  27,C  26,H  61)          107.3036         0.340433   
    187. A(H  60,C  26,H  61)          109.2726         0.289254   
    188. A(C  23,C  26,H  61)          110.6885         0.322173   
    189. A(O  27,C  26,H  60)          110.2539         0.339359   
    190. A(C  23,C  26,H  60)          108.6129         0.321176   
    191. A(C  23,C  26,O  27)          110.6996         0.380513   
    192. A(C  26,O  27,H  62)          106.5420         0.356150   
    193. A(C  29,C  28,H  63)          120.5707         0.357936   
    194. A(C  25,C  28,H  63)          119.1121         0.355204   
    195. A(C  25,C  28,C  29)          120.3113         0.436882   
    196. A(C  30,C  29,O  39)          114.4412         0.423373   
    197. A(C  28,C  29,O  39)          125.7612         0.430610   
    198. A(C  28,C  29,C  30)          119.7976         0.433006   
    199. A(C  31,C  30,O  40)          120.2642         0.434996   
    200. A(C  29,C  30,O  40)          120.2023         0.427812   
    201. A(C  29,C  30,C  31)          119.5331         0.432857   
    202. A(C  32,C  31,H  64)          121.0865         0.356898   
    203. A(C  30,C  31,H  64)          118.6455         0.357866   
    204. A(C  30,C  31,C  32)          120.2678         0.438884   
    205. A(C  31,C  32,H  65)          119.5634         0.356747   
    206. A(C  25,C  32,H  65)          119.9625         0.357412   
    207. A(C  25,C  32,C  31)          120.4690         0.438491   
    208. A(H  67,C  33,H  68)          109.7232         0.289435   
    209. A(H  66,C  33,H  68)          109.2389         0.290265   
    210. A(O  19,C  33,H  68)          111.4557         0.340213   
    211. A(H  66,C  33,H  67)          109.4082         0.290309   
    212. A(O  19,C  33,H  67)          111.2995         0.340268   
    213. A(O  19,C  33,H  66)          105.6095         0.341308   
    214. A(H  69,C  34,H  71)          109.8560         0.289491   
    215. A(O  18,C  34,H  71)          111.3554         0.339570   
    216. A(H  69,C  34,H  70)          109.5655         0.290357   
    217. A(O  18,C  34,H  70)          105.6349         0.340652   
    218. A(O  18,C  34,H  69)          111.1521         0.339597   
    219. A(H  70,C  34,H  71)          109.1714         0.290335   
    220. A(H  73,C  35,H  74)          109.2671         0.290525   
    221. A(H  72,C  35,H  74)          109.8629         0.289470   
    222. A(O  22,C  35,H  74)          111.1788         0.340695   
    223. A(H  72,C  35,H  73)          109.5468         0.290274   
    224. A(O  22,C  35,H  73)          105.6138         0.341704   
    225. A(O  22,C  35,H  72)          111.2671         0.340381   
    226. A(C  24,O  36,H  75)          106.8404         0.355782   
    227. A(C  16,O  37,H  76)          108.4489         0.358535   
    228. A(C  17,O  38,H  77)          107.3088         0.357498   
    229. A(C  29,O  39,C  41)          118.1845         0.411746   
    230. A(C  30,O  40,H  78)          107.7065         0.369079   
    231. A(H  80,C  41,H  81)          109.4810         0.290350   
    232. A(H  79,C  41,H  81)          109.4074         0.290572   
    233. A(O  39,C  41,H  81)          105.5283         0.340873   
    234. A(H  79,C  41,H  80)          109.9712         0.289698   
    235. A(O  39,C  41,H  80)          111.1498         0.339782   
    236. A(O  39,C  41,H  79)          111.1939         0.340058   
    237. D(O  20,C   1,C   0,O  19)     -4.5520         0.025366   
    238. D(C   2,C   1,C   0,O  19)    177.8169         0.025366   
    239. D(C   2,C   1,C   0,C   5)     -6.2935         0.025366   
    240. D(O  20,C   1,C   0,C   5)    171.3376         0.025366   
    241. D(O  18,C   2,C   1,C   0)   -179.1782         0.025140   
    242. D(C   3,C   2,C   1,C   0)      4.0818         0.025140   
    243. D(C   3,C   2,C   1,O  20)   -173.6243         0.025140   
    244. D(O  18,C   2,C   1,O  20)      3.1157         0.025140   
    245. D(C   4,C   3,C   2,C   1)      2.7943         0.028026   
    246. D(H  42,C   3,C   2,O  18)      1.5292         0.028026   
    247. D(C   4,C   3,C   2,O  18)   -173.6079         0.028026   
    248. D(H  42,C   3,C   2,C   1)    177.9314         0.028026   
    249. D(C   6,C   4,C   3,H  42)    -11.2797         0.027254   
    250. D(C   5,C   4,C   3,H  42)    177.3970         0.027254   
    251. D(C   5,C   4,C   3,C   2)     -7.4128         0.027254   
    252. D(C   6,C   4,C   3,C   2)    163.9104         0.027254   
    253. D(H  43,C   5,C   4,C   6)     10.5602         0.027612   
    254. D(H  43,C   5,C   4,C   3)   -178.2017         0.027612   
    255. D(C   0,C   5,C   4,C   3)      5.1524         0.027612   
    256. D(C   4,C   5,C   0,O  19)    177.1383         0.027173   
    257. D(H  43,C   5,C   0,C   1)   -174.9309         0.027173   
    258. D(H  43,C   5,C   0,O  19)      0.5354         0.027173   
    259. D(C   0,C   5,C   4,C   6)   -166.0857         0.027612   
    260. D(C   4,C   5,C   0,C   1)      1.6719         0.027173   
    261. D(H  45,C   6,C   4,C   3)     60.6983         0.012785   
    262. D(H  44,C   6,C   4,C   5)     -8.0512         0.012785   
    263. D(H  44,C   6,C   4,C   3)   -179.3441         0.012785   
    264. D(C   7,C   6,C   4,C   5)    112.4733         0.012785   
    265. D(C   7,C   6,C   4,C   3)    -58.8196         0.012785   
    266. D(C   8,C   7,C   6,H  44)     68.2291         0.010178   
    267. D(C   8,C   7,C   6,C   4)    -52.5537         0.010178   
    268. D(C  16,C   7,C   6,H  45)     57.1771         0.010178   
    269. D(C  16,C   7,C   6,H  44)    -60.4936         0.010178   
    270. D(C   8,C   7,C   6,H  45)   -174.1002         0.010178   
    271. D(C  16,C   7,C   6,C   4)    178.7236         0.010178   
    272. D(C  17,C   8,C   7,H  46)     28.7091         0.010181   
    273. D(C  17,C   8,C   7,C  16)    -88.1655         0.010181   
    274. D(C  17,C   8,C   7,C   6)    145.0185         0.010181   
    275. D(C   9,C   8,C   7,C  16)     38.5484         0.010181   
    276. D(C   9,C   8,C   7,H  46)    155.4230         0.010181   
    277. D(C   9,C   8,C   7,C   6)    -88.2677         0.010181   
    278. D(H  48,C   9,C   8,C  17)    151.6045         0.010325   
    279. D(H  48,C   9,C   8,C   7)     26.2701         0.010325   
    280. D(C  10,C   9,C   8,H  47)     26.5145         0.010325   
    281. D(C  10,C   9,C   8,C  17)    -89.1365         0.010325   
    282. D(H  48,C   9,C   8,H  47)    -92.7445         0.010325   
    283. D(C  10,C   9,C   8,C   7)    145.5291         0.010325   
    284. D(C  15,C  10,C   9,H  48)     24.8566         0.012464   
    285. D(C  15,C  10,C   9,C   8)    -94.9099         0.012464   
    286. D(C  11,C  10,C   9,H  49)    -38.7130         0.012464   
    287. D(C  11,C  10,C   9,H  48)   -157.0598         0.012464   
    288. D(C  11,C  10,C   9,C   8)     83.1736         0.012464   
    289. D(H  50,C  11,C  10,C  15)   -177.9704         0.026448   
    290. D(H  50,C  11,C  10,C   9)      3.9236         0.026448   
    291. D(C  12,C  11,C  10,C  15)      1.1287         0.026448   
    292. D(C  12,C  11,C  10,C   9)   -176.9773         0.026448   
    293. D(O  22,C  12,C  11,H  50)     -1.1444         0.028660   
    294. D(C  13,C  12,C  11,H  50)    177.6931         0.028660   
    295. D(O  22,C  12,C  11,C  10)    179.7642         0.028660   
    296. D(C  13,C  12,C  11,C  10)     -1.3982         0.028660   
    297. D(O  21,C  13,C  12,C  11)   -178.8091         0.024254   
    298. D(C  14,C  13,C  12,O  22)    179.4438         0.024254   
    299. D(C  14,C  13,C  12,C  11)      0.4771         0.024254   
    300. D(O  21,C  13,C  12,O  22)      0.1576         0.024254   
    301. D(H  51,C  14,C  13,O  21)      0.9314         0.028813   
    302. D(H  51,C  14,C  13,C  12)   -178.3550         0.028813   
    303. D(C  15,C  14,C  13,O  21)    179.9785         0.028813   
    304. D(C  15,C  14,C  13,C  12)      0.6921         0.028813   
    305. D(H  52,C  15,C  14,H  51)     -0.7541         0.028047   
    306. D(H  52,C  15,C  14,C  13)   -179.7717         0.028047   
    307. D(C  10,C  15,C  14,H  51)    178.0502         0.028047   
    308. D(C  10,C  15,C  14,C  13)     -0.9674         0.028047   
    309. D(H  52,C  15,C  10,C  11)    178.8622         0.028026   
    310. D(H  52,C  15,C  10,C   9)     -3.0089         0.028026   
    311. D(C  14,C  15,C  10,C  11)      0.0597         0.028026   
    312. D(C  14,C  15,C  10,C   9)    178.1886         0.028026   
    313. D(H  53,C  16,C   7,H  46)    -73.8205         0.010903   
    314. D(H  53,C  16,C   7,C   8)     42.1057         0.010903   
    315. D(H  53,C  16,C   7,C   6)    169.9744         0.010903   
    316. D(O  37,C  16,C   7,H  46)     49.0644         0.010903   
    317. D(O  37,C  16,C   7,C   8)    164.9906         0.010903   
    318. D(O  37,C  16,C   7,C   6)    -67.1407         0.010903   
    319. D(H  55,C  17,C   8,H  47)    169.0627         0.010536   
    320. D(H  55,C  17,C   8,C   9)    -74.3300         0.010536   
    321. D(H  55,C  17,C   8,C   7)     54.2431         0.010536   
    322. D(O  38,C  17,C   8,H  47)     50.8958         0.010536   
    323. D(O  38,C  17,C   8,C   9)    167.5031         0.010536   
    324. D(O  38,C  17,C   8,C   7)    -63.9239         0.010536   
    325. D(C  34,O  18,C   2,C   3)      7.3318         0.030352   
    326. D(C  34,O  18,C   2,C   1)   -169.2003         0.030352   
    327. D(C  33,O  19,C   0,C   5)      4.9722         0.027565   
    328. D(C  33,O  19,C   0,C   1)   -179.4202         0.027565   
    329. D(C  23,O  20,C   1,C   2)    108.7862         0.027533   
    330. D(C  23,O  20,C   1,C   0)    -68.8912         0.027533   
    331. D(H  57,O  21,C  13,C  14)   -179.7014         0.031411   
    332. D(H  57,O  21,C  13,C  12)     -0.4196         0.031411   
    333. D(C  35,O  22,C  12,C  13)    177.6475         0.028296   
    334. D(C  35,O  22,C  12,C  11)     -3.4614         0.028296   
    335. D(H  58,C  23,O  20,C   1)    104.4224         0.020058   
    336. D(C  26,C  23,O  20,C   1)   -138.4645         0.020058   
    337. D(C  24,C  23,O  20,C   1)    -17.1880         0.020058   
    338. D(O  36,C  24,C  23,H  58)   -179.4304         0.010000   
    339. D(O  36,C  24,C  23,C  26)     60.0759         0.010000   
    340. D(O  36,C  24,C  23,O  20)    -57.5470         0.010000   
    341. D(C  25,C  24,C  23,H  58)     55.0123         0.010000   
    342. D(C  25,C  24,C  23,C  26)    -65.4815         0.010000   
    343. D(C  25,C  24,C  23,O  20)    176.8957         0.010000   
    344. D(C  32,C  25,C  24,O  36)    -12.9702         0.011520   
    345. D(C  32,C  25,C  24,C  23)    112.0447         0.011520   
    346. D(C  28,C  25,C  24,H  59)     50.4029         0.011520   
    347. D(C  28,C  25,C  24,O  36)    166.7949         0.011520   
    348. D(C  28,C  25,C  24,C  23)    -68.1903         0.011520   
    349. D(H  60,C  26,C  23,H  58)     53.0752         0.010485   
    350. D(H  60,C  26,C  23,C  24)    172.6473         0.010485   
    351. D(H  60,C  26,C  23,O  20)    -63.3161         0.010485   
    352. D(O  27,C  26,C  23,H  58)    174.2568         0.010485   
    353. D(O  27,C  26,C  23,C  24)    -66.1711         0.010485   
    354. D(O  27,C  26,C  23,O  20)     57.8654         0.010485   
    355. D(H  62,O  27,C  26,H  61)   -170.8271         0.023583   
    356. D(H  62,O  27,C  26,H  60)     70.2620         0.023583   
    357. D(H  62,O  27,C  26,C  23)    -49.9442         0.023583   
    358. D(H  63,C  28,C  25,C  32)    178.3607         0.026341   
    359. D(H  63,C  28,C  25,C  24)     -1.4087         0.026341   
    360. D(C  29,C  28,C  25,C  32)     -0.7600         0.026341   
    361. D(C  29,C  28,C  25,C  24)    179.4706         0.026341   
    362. D(C  30,C  29,C  28,H  63)   -177.8596         0.028996   
    363. D(C  30,C  29,C  28,C  25)      1.2481         0.028996   
    364. D(O  39,C  29,C  28,H  63)      2.1863         0.028996   
    365. D(O  39,C  29,C  28,C  25)   -178.7059         0.028996   
    366. D(O  40,C  30,C  29,O  39)     -1.1368         0.023730   
    367. D(O  40,C  30,C  29,C  28)    178.9042         0.023730   
    368. D(C  31,C  30,C  29,O  39)    179.0802         0.023730   
    369. D(C  31,C  30,C  29,C  28)     -0.8788         0.023730   
    370. D(H  64,C  31,C  30,O  40)      0.3926         0.028878   
    371. D(H  64,C  31,C  30,C  29)   -179.8246         0.028878   
    372. D(C  32,C  31,C  30,O  40)   -179.7596         0.028878   
    373. D(C  32,C  31,C  30,C  29)      0.0233         0.028878   
    374. D(H  65,C  32,C  31,H  64)     -0.5096         0.030339   
    375. D(H  65,C  32,C  31,C  30)    179.6463         0.030339   
    376. D(C  25,C  32,C  31,H  64)   -179.6881         0.030339   
    377. D(C  25,C  32,C  31,C  30)      0.4678         0.030339   
    378. D(H  65,C  32,C  25,C  28)   -179.2789         0.031059   
    379. D(H  65,C  32,C  25,C  24)      0.4847         0.031059   
    380. D(C  31,C  32,C  25,C  28)     -0.1037         0.031059   
    381. D(C  31,C  32,C  25,C  24)    179.6599         0.031059   
    382. D(H  68,C  33,O  19,C   0)     58.1002         0.021911   
    383. D(H  67,C  33,O  19,C   0)    -64.7481         0.021911   
    384. D(H  66,C  33,O  19,C   0)    176.6161         0.021911   
    385. D(H  71,C  34,O  18,C   2)    -67.8285         0.023186   
    386. D(H  70,C  34,O  18,C   2)    173.7745         0.023186   
    387. D(H  69,C  34,O  18,C   2)     55.0136         0.023186   
    388. D(H  74,C  35,O  22,C  12)    -57.6200         0.024029   
    389. D(H  73,C  35,O  22,C  12)   -176.0257         0.024029   
    390. D(H  72,C  35,O  22,C  12)     65.1871         0.024029   
    391. D(H  75,O  36,C  24,H  59)   -159.5506         0.023709   
    392. D(H  75,O  36,C  24,C  25)     82.9301         0.023709   
    393. D(H  75,O  36,C  24,C  23)    -40.6403         0.023709   
    394. D(H  76,O  37,C  16,H  54)   -179.0943         0.021662   
    395. D(H  76,O  37,C  16,H  53)     64.4592         0.021662   
    396. D(H  76,O  37,C  16,C   7)    -58.1526         0.021662   
    397. D(H  77,O  38,C  17,H  56)     54.0452         0.022133   
    398. D(H  77,O  38,C  17,H  55)    171.2186         0.022133   
    399. D(H  77,O  38,C  17,C   8)    -68.0734         0.022133   
    400. D(C  41,O  39,C  29,C  30)   -173.9411         0.028051   
    401. D(C  41,O  39,C  29,C  28)      6.0152         0.028051   
    402. D(H  78,O  40,C  30,C  31)   -178.2288         0.028802   
    403. D(H  78,O  40,C  30,C  29)      1.9898         0.028802   
    404. D(H  81,C  41,O  39,C  29)    175.1246         0.023364   
    405. D(H  80,C  41,O  39,C  29)     56.5292         0.023364   
    406. D(H  79,C  41,O  39,C  29)    -66.3447         0.023364   
    -----------------------------------------------------------------

Number of atoms                         .... 82
Number of degrees of freedom            .... 406


         *************************************************************
         *                GEOMETRY OPTIMIZATION CYCLE   1            *
         *************************************************************
---------------------------------
CARTESIAN COORDINATES (ANGSTROEM)
---------------------------------
  C     20.130347  -29.565036   -0.386958
  C     20.971099  -29.727399    0.718368
  C     20.430569  -29.857118    2.002580
  C     19.055197  -29.908802    2.160816
  C     18.222222  -29.890786    1.049469
  C     18.755867  -29.666363   -0.211281
  C     16.788182  -30.307435    1.200242
  C     16.734828  -31.755818    1.730165
  C     17.582010  -32.726798    0.881142
  C     16.846964  -33.362649   -0.314854
  C     17.789062  -33.556751   -1.471715
  C     18.620389  -34.671853   -1.545288
  C     19.527464  -34.812706   -2.579131
  C     19.592850  -33.834801   -3.584431
  C     18.755862  -32.736931   -3.523426
  C     17.869115  -32.597660   -2.468256
  C     15.281001  -32.201645    1.925665
  C     18.204197  -33.790625    1.801482
  O     21.341480  -29.992945    3.010441
  O     20.759024  -29.401319   -1.587452
  O     22.338631  -29.812621    0.574969
  O     20.464627  -33.974286   -4.620161
  O     20.397376  -35.862439   -2.751466
  C     22.855520  -30.986880   -0.055288
  C     21.870177  -32.180908   -0.119128
  C     22.518777  -33.323045   -0.875596
  C     24.095049  -31.348357    0.781951
  O     23.743617  -31.548034    2.130934
  C     22.756297  -33.179225   -2.240999
  C     23.355677  -34.197968   -2.955329
  C     23.703843  -35.396317   -2.305795
  C     23.458210  -35.534049   -0.953210
  C     22.872529  -34.499600   -0.240687
  C     19.964626  -29.220755   -2.734767
  C     20.865328  -30.358430    4.286783
  C     20.435782  -36.863610   -1.765324
  O     21.422366  -32.559432    1.160469
  O     14.641169  -31.491882    2.960583
  O     19.102089  -33.223574    2.722654
  O     23.664384  -34.166458   -4.295156
  O     24.273865  -36.412865   -3.005622
  C     23.469950  -32.958507   -4.994868
  H     18.624816  -30.041780    3.138735
  H     18.093764  -29.626057   -1.060699
  H     16.276663  -30.248215    0.238571
  H     16.256726  -29.665982    1.906052
  H     17.204001  -31.754225    2.721611
  H     18.422704  -32.150961    0.479859
  H     16.041364  -32.702430   -0.633908
  H     16.406558  -34.315248   -0.015613
  H     18.539689  -35.437626   -0.790840
  H     18.802552  -32.010094   -4.319759
  H     17.217363  -31.737303   -2.433280
  H     15.248030  -33.281542    2.128804
  H     14.681043  -31.999936    1.036137
  H     17.429484  -34.286483    2.394404
  H     18.716214  -34.547885    1.197226
  H     20.950281  -34.799920   -4.482237
  H     23.158354  -30.734592   -1.079712
  H     20.971913  -31.880443   -0.673652
  H     24.825310  -30.533820    0.696209
  H     24.545990  -32.276058    0.422991
  H     23.212716  -30.774546    2.396955
  H     22.453046  -32.268986   -2.733243
  H     23.733373  -36.457362   -0.469334
  H     22.680611  -34.621525    0.813887
  H     20.664328  -29.051424   -3.552005
  H     19.365663  -30.111223   -2.947597
  H     19.309281  -28.350059   -2.634909
  H     20.281319  -31.282311    4.240583
  H     21.753229  -30.518392    4.896521
  H     20.263392  -29.560119    4.731101
  H     19.487957  -37.409431   -1.716433
  H     21.231589  -37.542070   -2.067454
  H     20.673274  -36.443008   -0.784460
  H     22.195326  -32.510855    1.756850
  H     15.140533  -31.623322    3.774712
  H     19.867968  -32.901608    2.219055
  H     24.387272  -36.114207   -3.918444
  H     22.409172  -32.703095   -5.054944
  H     24.025867  -32.138995   -4.529732
  H     23.856516  -33.136691   -5.997072

----------------------------
CARTESIAN COORDINATES (A.U.)
----------------------------
  NO LB      ZA    FRAG     MASS         X           Y           Z
   0 C     6.0000    0    12.011   38.040843  -55.869821   -0.731244
   1 C     6.0000    0    12.011   39.629634  -56.176643    1.357519
   2 C     6.0000    0    12.011   38.608179  -56.421777    3.784328
   3 C     6.0000    0    12.011   36.009105  -56.519444    4.083351
   4 C     6.0000    0    12.011   34.435009  -56.485399    1.983209
   5 C     6.0000    0    12.011   35.443451  -56.061302   -0.399263
   6 C     6.0000    0    12.011   31.725066  -57.272751    2.268128
   7 C     6.0000    0    12.011   31.624242  -60.009799    3.269537
   8 C     6.0000    0    12.011   33.225183  -61.844686    1.665117
   9 C     6.0000    0    12.011   31.836147  -63.046269   -0.594987
  10 C     6.0000    0    12.011   33.616455  -63.413070   -2.781139
  11 C     6.0000    0    12.011   35.187435  -65.520307   -2.920172
  12 C     6.0000    0    12.011   36.901560  -65.786480   -4.873851
  13 C     6.0000    0    12.011   37.025121  -63.938508   -6.773593
  14 C     6.0000    0    12.011   35.443443  -61.863834   -6.658309
  15 C     6.0000    0    12.011   33.767734  -61.600650   -4.664329
  16 C     6.0000    0    12.011   28.876907  -60.852290    3.638979
  17 C     6.0000    0    12.011   34.400947  -63.855027    3.404308
  18 O     8.0000    0    15.999   40.329553  -56.678452    5.688909
  19 O     8.0000    0    15.999   39.228870  -55.560441   -2.999850
  20 O     8.0000    0    15.999   42.213895  -56.337688    1.086535
  21 O     8.0000    0    15.999   38.672541  -64.202095   -8.730839
  22 O     8.0000    0    15.999   38.545455  -67.770187   -5.199518
  23 C     6.0000    0    12.011   43.190673  -58.556717   -0.104478
  24 C     6.0000    0    12.011   41.328645  -60.813103   -0.225119
  25 C     6.0000    0    12.011   42.554321  -62.971429   -1.654637
  26 C     6.0000    0    12.011   45.533044  -59.239810    1.477672
  27 O     8.0000    0    15.999   44.868934  -59.617145    4.026882
  28 C     6.0000    0    12.011   43.003168  -62.699649   -4.234875
  29 C     6.0000    0    12.011   44.135833  -64.624794   -5.584763
  30 C     6.0000    0    12.011   44.793771  -66.889345   -4.357322
  31 C     6.0000    0    12.011   44.329592  -67.149621   -1.801305
  32 C     6.0000    0    12.011   43.222816  -65.194796   -0.454833
  33 C     6.0000    0    12.011   37.727676  -55.219224   -5.167961
  34 C     6.0000    0    12.011   39.429755  -57.369118    8.100846
  35 C     6.0000    0    12.011   38.618031  -69.662127   -3.335978
  36 O     8.0000    0    15.999   40.482405  -61.528410    2.192970
  37 O     8.0000    0    15.999   27.667800  -59.511033    5.594692
  38 O     8.0000    0    15.999   36.097717  -62.783456    5.145070
  39 O     8.0000    0    15.999   44.719206  -64.565249   -8.116669
  40 O     8.0000    0    15.999   45.870957  -68.810343   -5.679802
  41 C     6.0000    0    12.011   44.351778  -62.282551   -9.438933
  42 H     1.0000    0     1.008   35.195802  -56.770737    5.931349
  43 H     1.0000    0     1.008   34.192258  -55.985134   -2.004431
  44 H     1.0000    0     1.008   30.758435  -57.160842    0.450833
  45 H     1.0000    0     1.008   30.720760  -56.060582    3.601916
  46 H     1.0000    0     1.008   32.510850  -60.006788    5.143100
  47 H     1.0000    0     1.008   34.813865  -60.756511    0.906802
  48 H     1.0000    0     1.008   30.313786  -61.798637   -1.197913
  49 H     1.0000    0     1.008   31.003902  -64.846420   -0.029503
  50 H     1.0000    0     1.008   35.034935  -66.967408   -1.494472
  51 H     1.0000    0     1.008   35.531674  -60.490311   -8.163161
  52 H     1.0000    0     1.008   32.536101  -59.974811   -4.598232
  53 H     1.0000    0     1.008   28.814600  -62.893000    4.022857
  54 H     1.0000    0     1.008   27.743151  -60.471115    1.958015
  55 H     1.0000    0     1.008   32.936952  -64.792063    4.524768
  56 H     1.0000    0     1.008   35.368518  -65.286041    2.262429
  57 H     1.0000    0     1.008   39.590294  -65.762319   -8.470200
  58 H     1.0000    0     1.008   43.762946  -58.079961   -2.040360
  59 H     1.0000    0     1.008   39.631173  -60.245306   -1.273018
  60 H     1.0000    0     1.008   46.913036  -57.700558    1.315644
  61 H     1.0000    0     1.008   46.385198  -60.992911    0.799338
  62 H     1.0000    0     1.008   43.865677  -58.155463    4.529588
  63 H     1.0000    0     1.008   42.430108  -60.979545   -5.165082
  64 H     1.0000    0     1.008   44.849576  -68.894430   -0.886913
  65 H     1.0000    0     1.008   42.860143  -65.425200    1.538023
  66 H     1.0000    0     1.008   39.049920  -54.899235   -6.712317
  67 H     1.0000    0     1.008   36.595799  -56.901965   -5.570151
  68 H     1.0000    0     1.008   36.489252  -53.573848   -4.979256
  69 H     1.0000    0     1.008   38.326139  -59.115001    8.013541
  70 H     1.0000    0     1.008   41.107646  -57.671403    9.253084
  71 H     1.0000    0     1.008   38.292261  -55.860529    8.940485
  72 H     1.0000    0     1.008   36.826902  -70.693579   -3.243589
  73 H     1.0000    0     1.008   40.121888  -70.944231   -3.906923
  74 H     1.0000    0     1.008   39.066825  -68.867305   -1.482414
  75 H     1.0000    0     1.008   41.943088  -61.436611    3.319965
  76 H     1.0000    0     1.008   28.611460  -59.759418    7.133172
  77 H     1.0000    0     1.008   37.545018  -62.175029    4.193406
  78 H     1.0000    0     1.008   46.085265  -68.245961   -7.404786
  79 H     1.0000    0     1.008   42.347197  -61.799894   -9.552460
  80 H     1.0000    0     1.008   45.402309  -60.733899   -8.559954
  81 H     1.0000    0     1.008   45.082282  -62.619270  -11.332824

--------------------------------
INTERNAL COORDINATES (ANGSTROEM)
--------------------------------
 C      0   0   0     0.000000000000     0.00000000     0.00000000
 C      1   0   0     1.398202691331     0.00000000     0.00000000
 C      2   1   0     1.399357213851   120.26376811     0.00000000
 C      3   2   1     1.385408052883   119.45555362     4.08183443
 C      4   3   2     1.388979719183   120.23103261     2.79433996
 C      5   4   3     1.387311384436   119.90349638   352.58715327
 C      5   4   3     1.500933360610   119.27495705   163.91039537
 C      7   5   4     1.543203884180   109.15129502   301.18041454
 C      8   7   5     1.543165434773   112.49754005   307.44633340
 C      9   8   7     1.541104950559   115.13420611   271.73233743
 C     10   9   8     1.504511205824   110.56708190   145.52910540
 C     11  10   9     1.392827904483   121.17478247    83.17360730
 C     12  11  10     1.382553951674   120.84102347   183.02267634
 C     13  12  11     1.403995053079   119.67135032   358.60175796
 C     14  13  12     1.381878506744   119.57402988     0.47711778
 C     15  14  13     1.385315319005   120.07950558     0.69207100
 C      8   7   5     1.533164924341   110.45631373   178.72358637
 C      9   8   7     1.538138668257   109.15074967   145.01845582
 O      3   2   1     1.365281303909   115.40210631   180.82178511
 O      1   2   3     1.364999914831   115.61008047   177.81692875
 O      2   1   3     1.377668600579   121.45192075   177.63111948
 O     14  13  12     1.360951262370   120.22302588   181.19090179
 O     13  12  11     1.374185250789   125.93952692   179.76420619
 C     21   2   1     1.429434161520   117.10696304   291.10875451
 C     24  21   2     1.549412640810   114.91481131   342.81202514
 C     25  24  21     1.515718684295   109.21572782   176.89565031
 C     24  21   2     1.538852543238   104.14334757   221.53551253
 O     27  24  21     1.408237306828   110.69955445    57.86543432
 C     26  25  24     1.393350215116   118.96265494   291.80974418
 C     29  26  25     1.381072025570   120.31126379   179.47055573
 C     30  29  26     1.406823968662   119.79756496     1.24813170
 C     31  30  29     1.381591224089   119.53313762   359.12115506
 C     26  25  24     1.382943445488   121.42646232   112.04465112
 C     20   1   2     1.407125885868   118.19480723   180.57984013
 C     19   3   2     1.410442722330   117.94092631   190.79969438
 C     23  13  12     1.405808061607   118.25153240   356.53859157
 O     25  24  21     1.407545282061   111.84588885   302.45297022
 O     17   8   7     1.408618015777   112.20282700   292.85934352
 O     18   9   8     1.405814143701   111.80516726   296.07613371
 O     30  29  26     1.375292659372   125.76117628   181.29407222
 O     31  30  29     1.359431284073   120.20227973   178.90416594
 C     40  30  29     1.409450033594   118.18445613     6.01515295
 H      4   3   2     1.076677826087   120.34341089   177.93144104
 H      6   5   4     1.077736370651   119.07696836   181.79832301
 H      7   5   4     1.090857453592   110.14455711   180.65587958
 H      7   5   4     1.091821395861   111.52558532    60.69825644
 H      8   7   5     1.096855422111   107.11193918    62.64801453
 H      9   8   7     1.095163851829   106.98861183    30.96447698
 H     10   9   8     1.089346050015   109.26651974    26.27008143
 H     10   9   8     1.091305119107   109.86674695   267.81334328
 H     12  11  10     1.078013136442   119.14777505     3.92362348
 H     15  14  13     1.079174911520   118.44458876   181.64499901
 H     16  15  14     1.079916096488   119.41162007   180.22831265
 H     17   8   7     1.099331897034   109.73382411   169.97441446
 H     17   8   7     1.091739672615   111.31426747    49.98528669
 H     18   9   8     1.094354322942   110.56131312    54.24307803
 H     18   9   8     1.095777848631   109.69575199   173.79628301
 H     22  14  13     0.967757993986   107.48369756   359.58035027
 H     24  21   2     1.097635319854   108.81142378   104.42235149
 H     25  24  21     1.097567267116   109.28808584    59.28613900
 H     27  24  21     1.097316077212   108.61287413   296.68387187
 H     27  24  21     1.092166985475   110.68845157   176.71893244
 H     28  27  24     0.975144880371   106.54199670   310.05579605
 H     29  26  25     1.078332868457   119.11210235   358.59126130
 H     32  31  30     1.078126722075   118.64546660   180.17544458
 H     33  26  25     1.078807156126   119.96246161     0.48468713
 H     34  20   1     1.089097374706   105.60946734   176.61610253
 H     34  20   1     1.094069030135   111.29954210   295.25191821
 H     34  20   1     1.094331019968   111.45567166    58.10017213
 H     35  19   3     1.093963770866   111.15211204    55.01359177
 H     35  19   3     1.088915477266   105.63486799   173.77448329
 H     35  19   3     1.094095771946   111.35539819   292.17145919
 H     36  23  13     1.094843254961   111.26713320    65.18713988
 H     36  23  13     1.088531085337   105.61381238   183.97429809
 H     36  23  13     1.093344500772   111.17879988   302.37995101
 H     37  25  24     0.977495024499   106.84043986   319.35974511
 H     38  17   8     0.964077785455   108.44890744   301.84735645
 H     39  18   9     0.971516100916   107.30881518   291.92656426
 H     41  31  30     0.967110006952   107.70652428     1.98978501
 H     42  40  30     1.092746646808   111.19393309   293.65530378
 H     42  40  30     1.094072566998   111.14980394    56.52918594
 H     42  40  30     1.088850165814   105.52826345   175.12460059

---------------------------
INTERNAL COORDINATES (A.U.)
---------------------------
 C      0   0   0     0.000000000000     0.00000000     0.00000000
 C      1   0   0     2.642220166327     0.00000000     0.00000000
 C      2   1   0     2.644401897705   120.26376811     0.00000000
 C      3   2   1     2.618041803677   119.45555362     4.08183443
 C      4   3   2     2.624791274828   120.23103261     2.79433996
 C      5   4   3     2.621638579056   119.90349638   352.58715327
 C      5   4   3     2.836352996818   119.27495705   163.91039537
 C      7   5   4     2.916232709904   109.15129502   301.18041454
 C      8   7   5     2.916160051054   112.49754005   307.44633340
 C      9   8   7     2.912266300187   115.13420611   271.73233743
 C     10   9   8     2.843114144423   110.56708190   145.52910540
 C     11  10   9     2.632063291156   121.17478247    83.17360730
 C     12  11  10     2.612648334034   120.84102347   183.02267634
 C     13  12  11     2.653166143699   119.67135032   358.60175796
 C     14  13  12     2.611371928098   119.57402988     0.47711778
 C     15  14  13     2.617866562044   120.07950558     0.69207100
 C      8   7   5     2.897261825139   110.45631373   178.72358637
 C      9   8   7     2.906660839001   109.15074967   145.01845582
 O      3   2   1     2.580007760151   115.40210631   180.82178511
 O      1   2   3     2.579476011856   115.61008047   177.81692875
 O      2   1   3     2.603416358397   121.45192075   177.63111948
 O     14  13  12     2.571825167494   120.22302588   181.19090179
 O     13  12  11     2.596833781266   125.93952692   179.76420619
 C     21   2   1     2.701239091744   117.10696304   291.10875451
 C     24  21   2     2.927965559566   114.91481131   342.81202514
 C     25  24  21     2.864293209385   109.21572782   176.89565031
 C     24  21   2     2.908009867209   104.14334757   221.53551253
 O     27  24  21     2.661182841476   110.69955445    57.86543432
 C     26  25  24     2.633050315210   118.96265494   291.80974418
 C     29  26  25     2.609847899547   120.31126379   179.47055573
 C     30  29  26     2.658512019407   119.79756496     1.24813170
 C     31  30  29     2.610829042557   119.53313762   359.12115506
 C     26  25  24     2.613384370674   121.42646232   112.04465112
 C     20   1   2     2.659082560243   118.19480723   180.57984013
 C     19   3   2     2.665350472786   117.94092631   190.79969438
 C     23  13  12     2.656592233295   118.25153240   356.53859157
 O     25  24  21     2.659875104188   111.84588885   302.45297022
 O     17   8   7     2.661902277126   112.20282700   292.85934352
 O     18   9   8     2.656603726787   111.80516726   296.07613371
 O     30  29  26     2.598926480206   125.76117628   181.29407222
 O     31  30  29     2.568952824783   120.20227973   178.90416594
 C     40  30  29     2.663474562939   118.18445613     6.01515295
 H      4   3   2     2.034626225771   120.34341089   177.93144104
 H      6   5   4     2.036626585097   119.07696836   181.79832301
 H      7   5   4     2.061421838436   110.14455711   180.65587958
 H      7   5   4     2.063243425333   111.52558532    60.69825644
 H      8   7   5     2.072756356297   107.11193918    62.64801453
 H      9   8   7     2.069559751727   106.98861183    30.96447698
 H     10   9   8     2.058565699597   109.26651974    26.27008143
 H     10   9   8     2.062267803659   109.86674695   267.81334328
 H     12  11  10     2.037149596645   119.14777505     3.92362348
 H     15  14  13     2.039345033372   118.44458876   181.64499901
 H     16  15  14     2.040745669976   119.41162007   180.22831265
 H     17   8   7     2.077436215678   109.73382411   169.97441446
 H     17   8   7     2.063088990778   111.31426747    49.98528669
 H     18   9   8     2.068029963834   110.56131312    54.24307803
 H     18   9   8     2.070720037529   109.69575199   173.79628301
 H     22  14  13     1.828797572547   107.48369756   359.58035027
 H     24  21   2     2.074230149443   108.81142378   104.42235149
 H     25  24  21     2.074101548405   109.28808584    59.28613900
 H     27  24  21     2.073626868279   108.61287413   296.68387187
 H     27  24  21     2.063896495058   110.68845157   176.71893244
 H     28  27  24     1.842756764797   106.54199670   310.05579605
 H     29  26  25     2.037753802590   119.11210235   358.59126130
 H     32  31  30     2.037364242384   118.64546660   180.17544458
 H     33  26  25     2.038650076393   119.96246161     0.48468713
 H     34  20   1     2.058095771368   105.60946734   176.61610253
 H     34  20   1     2.067490838559   111.29954210   295.25191821
 H     34  20   1     2.067985927595   111.45567166    58.10017213
 H     35  19   3     2.067291927369   111.15211204    55.01359177
 H     35  19   3     2.057752035021   105.63486799   173.77448329
 H     35  19   3     2.067541373259   111.35539819   292.17145919
 H     36  23  13     2.068953911447   111.26713320    65.18713988
 H     36  23  13     2.057025639547   105.61381238   183.97429809
 H     36  23  13     2.066121676487   111.17879988   302.37995101
 H     37  25  24     1.847197893574   106.84043986   319.35974511
 H     38  17   8     1.821842986308   108.44890744   301.84735645
 H     39  18   9     1.835899365426   107.30881518   291.92656426
 H     41  31  30     1.827573054514   107.70652428     1.98978501
 H     42  40  30     2.064991896227   111.19393309   293.65530378
 H     42  40  30     2.067497522263   111.14980394    56.52918594
 H     42  40  30     2.057628614264   105.52826345   175.12460059

---------------------
BASIS SET INFORMATION
---------------------
There are 3 groups of distinct atoms

 Group   1 Type C   : 11s6p2d1f contracted to 5s3p2d1f pattern {62111/411/11/1}
 Group   2 Type O   : 11s6p2d1f contracted to 5s3p2d1f pattern {62111/411/11/1}
 Group   3 Type H   : 5s1p contracted to 3s1p pattern {311/1}

Atom   0C    basis set group =>   1
Atom   1C    basis set group =>   1
Atom   2C    basis set group =>   1
Atom   3C    basis set group =>   1
Atom   4C    basis set group =>   1
Atom   5C    basis set group =>   1
Atom   6C    basis set group =>   1
Atom   7C    basis set group =>   1
Atom   8C    basis set group =>   1
Atom   9C    basis set group =>   1
Atom  10C    basis set group =>   1
Atom  11C    basis set group =>   1
Atom  12C    basis set group =>   1
Atom  13C    basis set group =>   1
Atom  14C    basis set group =>   1
Atom  15C    basis set group =>   1
Atom  16C    basis set group =>   1
Atom  17C    basis set group =>   1
Atom  18O    basis set group =>   2
Atom  19O    basis set group =>   2
Atom  20O    basis set group =>   2
Atom  21O    basis set group =>   2
Atom  22O    basis set group =>   2
Atom  23C    basis set group =>   1
Atom  24C    basis set group =>   1
Atom  25C    basis set group =>   1
Atom  26C    basis set group =>   1
Atom  27O    basis set group =>   2
Atom  28C    basis set group =>   1
Atom  29C    basis set group =>   1
Atom  30C    basis set group =>   1
Atom  31C    basis set group =>   1
Atom  32C    basis set group =>   1
Atom  33C    basis set group =>   1
Atom  34C    basis set group =>   1
Atom  35C    basis set group =>   1
Atom  36O    basis set group =>   2
Atom  37O    basis set group =>   2
Atom  38O    basis set group =>   2
Atom  39O    basis set group =>   2
Atom  40O    basis set group =>   2
Atom  41C    basis set group =>   1
Atom  42H    basis set group =>   3
Atom  43H    basis set group =>   3
Atom  44H    basis set group =>   3
Atom  45H    basis set group =>   3
Atom  46H    basis set group =>   3
Atom  47H    basis set group =>   3
Atom  48H    basis set group =>   3
Atom  49H    basis set group =>   3
Atom  50H    basis set group =>   3
Atom  51H    basis set group =>   3
Atom  52H    basis set group =>   3
Atom  53H    basis set group =>   3
Atom  54H    basis set group =>   3
Atom  55H    basis set group =>   3
Atom  56H    basis set group =>   3
Atom  57H    basis set group =>   3
Atom  58H    basis set group =>   3
Atom  59H    basis set group =>   3
Atom  60H    basis set group =>   3
Atom  61H    basis set group =>   3
Atom  62H    basis set group =>   3
Atom  63H    basis set group =>   3
Atom  64H    basis set group =>   3
Atom  65H    basis set group =>   3
Atom  66H    basis set group =>   3
Atom  67H    basis set group =>   3
Atom  68H    basis set group =>   3
Atom  69H    basis set group =>   3
Atom  70H    basis set group =>   3
Atom  71H    basis set group =>   3
Atom  72H    basis set group =>   3
Atom  73H    basis set group =>   3
Atom  74H    basis set group =>   3
Atom  75H    basis set group =>   3
Atom  76H    basis set group =>   3
Atom  77H    basis set group =>   3
Atom  78H    basis set group =>   3
Atom  79H    basis set group =>   3
Atom  80H    basis set group =>   3
Atom  81H    basis set group =>   3
---------------------------------
AUXILIARY/J BASIS SET INFORMATION
---------------------------------
There are 3 groups of distinct atoms

 Group   1 Type C   : 12s5p4d2f1g contracted to 6s4p3d1f1g pattern {711111/2111/211/2/1}
 Group   2 Type O   : 12s5p4d2f1g contracted to 6s4p3d1f1g pattern {711111/2111/211/2/1}
 Group   3 Type H   : 5s2p1d contracted to 3s1p1d pattern {311/2/1}

Atom   0C    basis set group =>   1
Atom   1C    basis set group =>   1
Atom   2C    basis set group =>   1
Atom   3C    basis set group =>   1
Atom   4C    basis set group =>   1
Atom   5C    basis set group =>   1
Atom   6C    basis set group =>   1
Atom   7C    basis set group =>   1
Atom   8C    basis set group =>   1
Atom   9C    basis set group =>   1
Atom  10C    basis set group =>   1
Atom  11C    basis set group =>   1
Atom  12C    basis set group =>   1
Atom  13C    basis set group =>   1
Atom  14C    basis set group =>   1
Atom  15C    basis set group =>   1
Atom  16C    basis set group =>   1
Atom  17C    basis set group =>   1
Atom  18O    basis set group =>   2
Atom  19O    basis set group =>   2
Atom  20O    basis set group =>   2
Atom  21O    basis set group =>   2
Atom  22O    basis set group =>   2
Atom  23C    basis set group =>   1
Atom  24C    basis set group =>   1
Atom  25C    basis set group =>   1
Atom  26C    basis set group =>   1
Atom  27O    basis set group =>   2
Atom  28C    basis set group =>   1
Atom  29C    basis set group =>   1
Atom  30C    basis set group =>   1
Atom  31C    basis set group =>   1
Atom  32C    basis set group =>   1
Atom  33C    basis set group =>   1
Atom  34C    basis set group =>   1
Atom  35C    basis set group =>   1
Atom  36O    basis set group =>   2
Atom  37O    basis set group =>   2
Atom  38O    basis set group =>   2
Atom  39O    basis set group =>   2
Atom  40O    basis set group =>   2
Atom  41C    basis set group =>   1
Atom  42H    basis set group =>   3
Atom  43H    basis set group =>   3
Atom  44H    basis set group =>   3
Atom  45H    basis set group =>   3
Atom  46H    basis set group =>   3
Atom  47H    basis set group =>   3
Atom  48H    basis set group =>   3
Atom  49H    basis set group =>   3
Atom  50H    basis set group =>   3
Atom  51H    basis set group =>   3
Atom  52H    basis set group =>   3
Atom  53H    basis set group =>   3
Atom  54H    basis set group =>   3
Atom  55H    basis set group =>   3
Atom  56H    basis set group =>   3
Atom  57H    basis set group =>   3
Atom  58H    basis set group =>   3
Atom  59H    basis set group =>   3
Atom  60H    basis set group =>   3
Atom  61H    basis set group =>   3
Atom  62H    basis set group =>   3
Atom  63H    basis set group =>   3
Atom  64H    basis set group =>   3
Atom  65H    basis set group =>   3
Atom  66H    basis set group =>   3
Atom  67H    basis set group =>   3
Atom  68H    basis set group =>   3
Atom  69H    basis set group =>   3
Atom  70H    basis set group =>   3
Atom  71H    basis set group =>   3
Atom  72H    basis set group =>   3
Atom  73H    basis set group =>   3
Atom  74H    basis set group =>   3
Atom  75H    basis set group =>   3
Atom  76H    basis set group =>   3
Atom  77H    basis set group =>   3
Atom  78H    basis set group =>   3
Atom  79H    basis set group =>   3
Atom  80H    basis set group =>   3
Atom  81H    basis set group =>   3
--------------------------------------------------------------------------
WARNING: There was an error initializing an OpenFabrics device.

  Local host:   c03b01n07
  Local device: mlx5_0
--------------------------------------------------------------------------
--------------------------------------------------------------------------
WARNING: There is at least one non-excluded one OpenFabrics device found,
but there are no active ports detected (or Open MPI was unable to use
them).  This is most certainly not what you wanted.  Check your
cables, subnet manager configuration, etc.  The openib BTL will be
ignored for this job.

  Local host: c03b01n07
--------------------------------------------------------------------------


           ************************************************************
           *        Program running with 64 parallel MPI-processes    *
           *              working on a common directory               *
           ************************************************************
------------------------------------------------------------------------------
                             ORCA STARTUP CALCULATIONS
                           -- RI-GTO INTEGRALS CHOSEN --
------------------------------------------------------------------------------
------------------------------------------------------------------------------
                   ___                                                        
                  /   \      - P O W E R E D   B Y -                         
                 /     \                                                     
                 |  |  |   _    _      __       _____    __    __             
                 |  |  |  | |  | |    /  \     |  _  \  |  |  /  |          
                  \  \/   | |  | |   /    \    | | | |  |  | /  /          
                 / \  \   | |__| |  /  /\  \   | |_| |  |  |/  /          
                |  |  |   |  __  | /  /__\  \  |    /   |      \           
                |  |  |   | |  | | |   __   |  |    \   |  |\   \          
                \     /   | |  | | |  |  |  |  | |\  \  |  | \   \       
                 \___/    |_|  |_| |__|  |__|  |_| \__\ |__|  \__/        
                                                                              
                      - O R C A' S   B I G   F R I E N D -                    
                                      &                                       
                       - I N T E G R A L  F E E D E R -                       
                                                                              
 v1 FN, 2020, v2 2021, v3 2022-2024                                           
------------------------------------------------------------------------------


----------------------
SHARK INTEGRAL PACKAGE
----------------------

Number of atoms                             ...     82
Number of basis functions                   ...   1542
Number of shells                            ...    622
Maximum angular momentum                    ...      3
Integral batch strategy                     ... SHARK/LIBINT Hybrid
RI-J (if used) integral strategy            ... SPLIT-RIJ (Revised 2003 algorithm where possible)
Printlevel                                  ...      1
Contraction scheme used                     ... SEGMENTED contraction
Prescreening option                         ... SCHWARTZ
   Thresh                                   ... 2.500e-11
   Tcut                                     ... 2.500e-12
   Tpresel                                  ... 2.500e-12 
Coulomb Range Separation                    ... NOT USED
Exchange Range Separation                   ... NOT USED
Multipole approximations                    ... NOT USED
Finite Nucleus Model                        ... NOT USED
CABS basis                                  ... NOT available
Auxiliary Coulomb fitting basis             ... AVAILABLE
   # of basis functions in Aux-J            ...   2498
   # of shells in Aux-J                     ...    830
   Maximum angular momentum in Aux-J        ...      4
Auxiliary J/K fitting basis                 ... NOT available
Auxiliary Correlation fitting basis         ... NOT available
Auxiliary 'external' fitting basis          ... NOT available

Checking pre-screening integrals            ... done (  0.1 sec) Dimension = 622
   => SHARK Basis and OBASIS are compatible. Storing Pre-screening
Shell pair information
Shell pair cut-off parameter TPreSel        ...   2.5e-12
Total number of shell pairs                 ...    193753
Shell pairs after pre-screening             ...    118562
Total number of primitive shell pairs       ...    584784
Primitive shell pairs kept                  ...    223110
          la=0 lb=0:  33118 shell pairs
          la=1 lb=0:  35436 shell pairs
          la=1 lb=1:   9582 shell pairs
          la=2 lb=0:  16035 shell pairs
          la=2 lb=1:   8784 shell pairs
          la=2 lb=2:   1994 shell pairs
          la=3 lb=0:   7305 shell pairs
          la=3 lb=1:   4104 shell pairs
          la=3 lb=2:   1788 shell pairs
          la=3 lb=3:    416 shell pairs

Checking whether 4 symmetric matrices of dimension 1542 fit in memory
:Max Core in MB      =   6000.00
 MB in use           =    141.80
 MB left             =   5858.20
 MB needed           =     36.31
 Data fit in memory  = YES
Calculating RI/J V-Matrix + Cholesky decomp.... done (  0.8 sec)
Calculating Nuclear repulsion               ... done (  0.0 sec) ENN=   5807.665485511023 Eh

Diagonalization of the overlap matrix:
Smallest eigenvalue                        ... 4.241e-06
Time for diagonalization                   ...    0.483 sec
Threshold for overlap eigenvalues          ... 1.000e-07
Number of eigenvalues below threshold      ... 0
[c03b01n07:2925627] 59 more processes have sent help message help-mpi-btl-openib.txt / error in device init
[c03b01n07:2925627] Set MCA parameter "orte_base_help_aggregate" to 0 to see all help / error messages
[c03b01n07:2925627] 3 more processes have sent help message help-mpi-btl-openib.txt / no active ports found
Time for construction of square roots      ...    0.373 sec
Total time needed                          ...    0.955 sec

-------------------
DFT GRID GENERATION
-------------------

General Integration Accuracy     IntAcc      ... 4.388
Radial Grid Type                 RadialGrid  ... OptM3 with GC (2021)
Angular Grid (max. ang.)         AngularGrid ... 4 (Lebedev-302)
Angular grid pruning method      GridPruning ... 4 (adaptive)
Weight generation scheme         WeightScheme... mBecke (2022)
Basis function cutoff            BFCut       ... 1.0000e-11
Integration weight cutoff        WCut        ... 1.0000e-14
Partially contracted basis set               ... off
Rotationally invariant grid construction     ... off
Angular grids for H and He will be reduced by one unit

Total number of grid points                  ...   373332
Total number of batches                      ...     5874
Average number of points per batch           ...       63
Average number of grid points per atom       ...     4553

--------------------
COSX GRID GENERATION
--------------------

GRIDX 1
-------
General Integration Accuracy     IntAcc      ... 3.816
Radial Grid Type                 RadialGrid  ... OptM3 with GC (2021)
Angular Grid (max. ang.)         AngularGrid ... 1 (Lebedev-50)
Angular grid pruning method      GridPruning ... 4 (adaptive)
Weight generation scheme         WeightScheme... mBecke (2022)
Basis function cutoff            BFCut       ... 1.0000e-11
Integration weight cutoff        WCut        ... 1.0000e-14
Partially contracted basis set               ... on
Rotationally invariant grid construction     ... off
Angular grids for H and He will be reduced by one unit

Total number of grid points                  ...    47204
Total number of batches                      ...      417
Average number of points per batch           ...      113
Average number of grid points per atom       ...      576
UseSFitting                                  ... on

GRIDX 2
-------
General Integration Accuracy     IntAcc      ... 4.020
Radial Grid Type                 RadialGrid  ... OptM3 with GC (2021)
Angular Grid (max. ang.)         AngularGrid ... 2 (Lebedev-110)
Angular grid pruning method      GridPruning ... 4 (adaptive)
Weight generation scheme         WeightScheme... mBecke (2022)
Basis function cutoff            BFCut       ... 1.0000e-11
Integration weight cutoff        WCut        ... 1.0000e-14
[...]
freq.     657.00  E(vib)   ...       0.08 
freq.     659.66  E(vib)   ...       0.08 
freq.     693.81  E(vib)   ...       0.07 
freq.     714.71  E(vib)   ...       0.07 
freq.     736.76  E(vib)   ...       0.06 
freq.     742.46  E(vib)   ...       0.06 
freq.     747.46  E(vib)   ...       0.06 
freq.     760.22  E(vib)   ...       0.06 
freq.     784.11  E(vib)   ...       0.05 
freq.     791.87  E(vib)   ...       0.05 
freq.     798.54  E(vib)   ...       0.05 
freq.     812.41  E(vib)   ...       0.05 
freq.     812.79  E(vib)   ...       0.05 
freq.     820.24  E(vib)   ...       0.05 
freq.     832.53  E(vib)   ...       0.04 
freq.     839.40  E(vib)   ...       0.04 
freq.     844.19  E(vib)   ...       0.04 
freq.     854.80  E(vib)   ...       0.04 
freq.     856.89  E(vib)   ...       0.04 
freq.     869.25  E(vib)   ...       0.04 
freq.     883.66  E(vib)   ...       0.04 
freq.     886.73  E(vib)   ...       0.04 
freq.     889.65  E(vib)   ...       0.04 
freq.     922.28  E(vib)   ...       0.03 
freq.     928.08  E(vib)   ...       0.03 
freq.     944.22  E(vib)   ...       0.03 
freq.     948.79  E(vib)   ...       0.03 
freq.     950.21  E(vib)   ...       0.03 
freq.     953.94  E(vib)   ...       0.03 
freq.     964.71  E(vib)   ...       0.03 
freq.     967.06  E(vib)   ...       0.03 
freq.     976.18  E(vib)   ...       0.03 
freq.     991.44  E(vib)   ...       0.02 
freq.    1027.32  E(vib)   ...       0.02 
freq.    1029.65  E(vib)   ...       0.02 
freq.    1039.71  E(vib)   ...       0.02 
freq.    1046.88  E(vib)   ...       0.02 
freq.    1050.00  E(vib)   ...       0.02 
freq.    1056.73  E(vib)   ...       0.02 
freq.    1065.38  E(vib)   ...       0.02 
freq.    1067.54  E(vib)   ...       0.02 
freq.    1078.50  E(vib)   ...       0.02 
freq.    1099.89  E(vib)   ...       0.02 
freq.    1117.44  E(vib)   ...       0.01 
freq.    1121.01  E(vib)   ...       0.01 
freq.    1137.15  E(vib)   ...       0.01 
freq.    1143.56  E(vib)   ...       0.01 
freq.    1145.60  E(vib)   ...       0.01 
freq.    1169.94  E(vib)   ...       0.01 
freq.    1170.74  E(vib)   ...       0.01 
freq.    1171.82  E(vib)   ...       0.01 
freq.    1172.06  E(vib)   ...       0.01 
freq.    1172.92  E(vib)   ...       0.01 
freq.    1173.45  E(vib)   ...       0.01 
freq.    1175.00  E(vib)   ...       0.01 
freq.    1179.04  E(vib)   ...       0.01 
freq.    1198.34  E(vib)   ...       0.01 
freq.    1203.11  E(vib)   ...       0.01 
freq.    1205.99  E(vib)   ...       0.01 
freq.    1207.33  E(vib)   ...       0.01 
freq.    1213.33  E(vib)   ...       0.01 
freq.    1217.70  E(vib)   ...       0.01 
freq.    1221.36  E(vib)   ...       0.01 
freq.    1223.06  E(vib)   ...       0.01 
freq.    1229.94  E(vib)   ...       0.01 
freq.    1237.13  E(vib)   ...       0.01 
freq.    1248.98  E(vib)   ...       0.01 
freq.    1254.70  E(vib)   ...       0.01 
freq.    1261.39  E(vib)   ...       0.01 
freq.    1271.79  E(vib)   ...       0.01 
freq.    1274.38  E(vib)   ...       0.01 
freq.    1283.84  E(vib)   ...       0.01 
freq.    1290.58  E(vib)   ...       0.01 
freq.    1295.37  E(vib)   ...       0.01 
freq.    1309.15  E(vib)   ...       0.01 
freq.    1314.58  E(vib)   ...       0.01 
freq.    1327.61  E(vib)   ...       0.01 
freq.    1335.16  E(vib)   ...       0.01 
freq.    1341.12  E(vib)   ...       0.01 
freq.    1346.61  E(vib)   ...       0.01 
freq.    1357.83  E(vib)   ...       0.01 
freq.    1359.77  E(vib)   ...       0.01 
freq.    1360.92  E(vib)   ...       0.01 
freq.    1368.93  E(vib)   ...       0.01 
freq.    1372.17  E(vib)   ...       0.01 
freq.    1385.66  E(vib)   ...       0.00 
freq.    1395.08  E(vib)   ...       0.00 
freq.    1399.76  E(vib)   ...       0.00 
freq.    1404.27  E(vib)   ...       0.00 
freq.    1406.00  E(vib)   ...       0.00 
freq.    1407.65  E(vib)   ...       0.00 
freq.    1417.58  E(vib)   ...       0.00 
freq.    1418.03  E(vib)   ...       0.00 
freq.    1440.39  E(vib)   ...       0.00 
freq.    1450.61  E(vib)   ...       0.00 
freq.    1453.29  E(vib)   ...       0.00 
freq.    1461.55  E(vib)   ...       0.00 
freq.    1463.95  E(vib)   ...       0.00 
freq.    1475.28  E(vib)   ...       0.00 
freq.    1478.53  E(vib)   ...       0.00 
freq.    1479.32  E(vib)   ...       0.00 
freq.    1479.46  E(vib)   ...       0.00 
freq.    1480.28  E(vib)   ...       0.00 
freq.    1480.91  E(vib)   ...       0.00 
freq.    1481.31  E(vib)   ...       0.00 
freq.    1482.36  E(vib)   ...       0.00 
freq.    1487.57  E(vib)   ...       0.00 
freq.    1490.08  E(vib)   ...       0.00 
freq.    1491.23  E(vib)   ...       0.00 
freq.    1491.62  E(vib)   ...       0.00 
freq.    1493.14  E(vib)   ...       0.00 
freq.    1494.04  E(vib)   ...       0.00 
freq.    1495.23  E(vib)   ...       0.00 
freq.    1495.28  E(vib)   ...       0.00 
freq.    1500.85  E(vib)   ...       0.00 
freq.    1535.89  E(vib)   ...       0.00 
freq.    1543.52  E(vib)   ...       0.00 
freq.    1543.80  E(vib)   ...       0.00 
freq.    1626.76  E(vib)   ...       0.00 
freq.    1634.02  E(vib)   ...       0.00 
freq.    1641.76  E(vib)   ...       0.00 
freq.    1645.62  E(vib)   ...       0.00 
freq.    1647.96  E(vib)   ...       0.00 
freq.    1651.59  E(vib)   ...       0.00 
freq.    3006.31  E(vib)   ...       0.00 
freq.    3019.85  E(vib)   ...       0.00 
freq.    3022.14  E(vib)   ...       0.00 
freq.    3023.76  E(vib)   ...       0.00 
freq.    3026.14  E(vib)   ...       0.00 
freq.    3026.98  E(vib)   ...       0.00 
freq.    3028.47  E(vib)   ...       0.00 
freq.    3029.43  E(vib)   ...       0.00 
freq.    3032.28  E(vib)   ...       0.00 
freq.    3034.15  E(vib)   ...       0.00 
freq.    3051.94  E(vib)   ...       0.00 
freq.    3067.55  E(vib)   ...       0.00 
freq.    3071.13  E(vib)   ...       0.00 
freq.    3072.49  E(vib)   ...       0.00 
freq.    3073.51  E(vib)   ...       0.00 
freq.    3076.91  E(vib)   ...       0.00 
freq.    3081.75  E(vib)   ...       0.00 
freq.    3088.95  E(vib)   ...       0.00 
freq.    3092.27  E(vib)   ...       0.00 
freq.    3099.48  E(vib)   ...       0.00 
freq.    3101.55  E(vib)   ...       0.00 
freq.    3104.97  E(vib)   ...       0.00 
freq.    3140.60  E(vib)   ...       0.00 
freq.    3140.87  E(vib)   ...       0.00 
freq.    3142.90  E(vib)   ...       0.00 
freq.    3142.91  E(vib)   ...       0.00 
freq.    3172.27  E(vib)   ...       0.00 
freq.    3181.81  E(vib)   ...       0.00 
freq.    3186.83  E(vib)   ...       0.00 
freq.    3201.14  E(vib)   ...       0.00 
freq.    3207.52  E(vib)   ...       0.00 
freq.    3209.57  E(vib)   ...       0.00 
freq.    3212.50  E(vib)   ...       0.00 
freq.    3213.43  E(vib)   ...       0.00 
freq.    3541.28  E(vib)   ...       0.00 
freq.    3572.21  E(vib)   ...       0.00 
freq.    3633.73  E(vib)   ...       0.00 
freq.    3723.05  E(vib)   ...       0.00 
freq.    3729.23  E(vib)   ...       0.00 
freq.    3770.24  E(vib)   ...       0.00 

------------
INNER ENERGY
------------

The inner energy is: U= E(el) + E(ZPE) + E(vib) + E(rot) + E(trans)
    E(el)   - is the total energy from the electronic structure calculation
              = E(kin-el) + E(nuc-el) + E(el-el) + E(nuc-nuc)
    E(ZPE)  - the the zero temperature vibrational energy from the frequency calculation
    E(vib)  - the the finite temperature correction to E(ZPE) due to population
              of excited vibrational states
    E(rot)  - is the rotational thermal energy
    E(trans)- is the translational thermal energy

Summary of contributions to the inner energy U:
Electronic energy                ...  -2032.63175934 Eh
Zero point energy                ...      0.67979070 Eh     426.57 kcal/mol
Thermal vibrational correction   ...      0.03979573 Eh      24.97 kcal/mol
Thermal rotational correction    ...      0.00141627 Eh       0.89 kcal/mol
Thermal translational correction ...      0.00141627 Eh       0.89 kcal/mol
-----------------------------------------------------------------------
Total thermal energy                  -2031.90934037 Eh


Summary of corrections to the electronic energy:
(perhaps to be used in another calculation)
Total thermal correction                  0.04262827 Eh      26.75 kcal/mol
Non-thermal (ZPE) correction              0.67979070 Eh     426.57 kcal/mol
-----------------------------------------------------------------------
Total correction                          0.72241897 Eh     453.32 kcal/mol


--------
ENTHALPY
--------

The enthalpy is H = U + kB*T
                kB is Boltzmann's constant
Total thermal energy              ...  -2031.90934037 Eh 
Thermal Enthalpy correction       ...      0.00094421 Eh       0.59 kcal/mol
-----------------------------------------------------------------------
Total Enthalpy                    ...  -2031.90839616 Eh


Note: Only C1 symmetry has been detected, increase convergence thresholds 
      if your molecule has a higher symmetry. Symmetry factor of 1.0 is   
      used for the rotational entropy correction. 
 

Note: Rotational entropy computed according to Herzberg 
Infrared and Raman Spectra, Chapter V,1, Van Nostrand Reinhold, 1945 
Point Group:  C1, Symmetry Number:   1  
Rotational constants in cm-1:     0.003744     0.002430     0.001990 

Vibrational entropy computed according to the QRRHO of S. Grimme
Chem.Eur.J. 2012 18 9955 using a reference frequency of 100.0 cm-1


-------
ENTROPY
-------

The entropy contributions are T*S = T*(S(el)+S(vib)+S(rot)+S(trans))
     S(el)   - electronic entropy
     S(vib)  - vibrational entropy
     S(rot)  - rotational entropy
     S(trans)- translational entropy
The entropies will be listed as multiplied by the temperature to get
units of energy

Electronic entropy                ...      0.00000000 Eh      0.00 kcal/mol
Vibrational entropy               ...      0.07132287 Eh     44.76 kcal/mol
Rotational entropy                ...      0.01792671 Eh     11.25 kcal/mol
Translational entropy             ...      0.02138181 Eh     13.42 kcal/mol
-----------------------------------------------------------------------
Final entropy term                ...      0.11063140 Eh     69.42 kcal/mol

In case the symmetry of your molecule has not been determined correctly
or in case you have a reason to use a different symmetry number we print 
out the resulting rotational entropy values for sn=1,12:

 non-linear molecules -----------------------------------
|  sn= 1 | S(rot)=       0.01792671 Eh     11.25 kcal/mol|
|  sn= 2 | S(rot)=       0.01727226 Eh     10.84 kcal/mol|
|  sn= 3 | S(rot)=       0.01688942 Eh     10.60 kcal/mol|
|  sn= 4 | S(rot)=       0.01661780 Eh     10.43 kcal/mol|
|  sn= 5 | S(rot)=       0.01640711 Eh     10.30 kcal/mol|
|  sn= 6 | S(rot)=       0.01623497 Eh     10.19 kcal/mol|
|  sn= 7 | S(rot)=       0.01608942 Eh     10.10 kcal/mol|
|  sn= 8 | S(rot)=       0.01596334 Eh     10.02 kcal/mol|
|  sn= 9 | S(rot)=       0.01585214 Eh      9.95 kcal/mol|
|  sn=10 | S(rot)=       0.01575266 Eh      9.88 kcal/mol|
|  sn=11 | S(rot)=       0.01566267 Eh      9.83 kcal/mol|
|  sn=12 | S(rot)=       0.01558051 Eh      9.78 kcal/mol|
 linear molecules ---------------------------------------
|  Dinfh | S(rot)=       0.01119804 Eh      7.03 kcal/mol|
|  Cinfv | S(rot)=       0.01185250 Eh      7.44 kcal/mol|
 --------------------------------------------------------


-------------------
GIBBS FREE ENERGY
-------------------

The Gibbs free energy is G = H - T*S

Total enthalpy                    ...  -2031.90839616 Eh 
Total entropy correction          ...     -0.11063140 Eh    -69.42 kcal/mol
-----------------------------------------------------------------------
Final Gibbs free energy         ...  -2032.01902756 Eh

For completeness - the Gibbs free energy minus the electronic energy
G-E(el)                           ...      0.61273178 Eh    384.49 kcal/mol


Maximum memory used throughout the entire PROP-calculation: 1827.6 MB
--------------------------------------------------------------------------
WARNING: There was an error initializing an OpenFabrics device.

  Local host:   c03b01n07
  Local device: mlx5_0
--------------------------------------------------------------------------
--------------------------------------------------------------------------
WARNING: There is at least one non-excluded one OpenFabrics device found,
but there are no active ports detected (or Open MPI was unable to use
them).  This is most certainly not what you wanted.  Check your
cables, subnet manager configuration, etc.  The openib BTL will be
ignored for this job.

  Local host: c03b01n07
--------------------------------------------------------------------------
[c03b01n07:2991402] 55 more processes have sent help message help-mpi-btl-openib.txt / error in device init
[c03b01n07:2991402] Set MCA parameter "orte_base_help_aggregate" to 0 to see all help / error messages
[c03b01n07:2991402] 7 more processes have sent help message help-mpi-btl-openib.txt / no active ports found

--------------------------------
SUGGESTED CITATIONS FOR THIS RUN
--------------------------------

Below you find a list of papers that are relevant to this ORCA run
We neither can nor want to force you to cite these papers, but we appreciate if you do
You receive ORCA, which is the product of decades of hard work by many enthusiastic individuals, for free
The only thing we kindly ask in return is that you cite our papers,
We deeply appreciate it, if you show your appreciation for ORCA by not just citing the generic ORCA reference.

Please note that relegating all ORCA citations to the supporting information does *not* help us.
SI sections are not indexed - citations you put there will not count into any citation statistics
But we need these citations in order to attract the funding resources that allow us to do what we are doing

Therefore, if you are a happy ORCA user, please consider citing a few of the papers listed below in the main body of your paper

In addition to the list printed below, the program has created the file opt-conf-13.bibtex that contains the list in bibtex format
You can import this file easily into all common literature databanks and citation aid programs


List of essential papers. We consider these as the minimum necessary citations

  1. Neese, F.
     Software update: the ORCA program system, version 6.0
     WIRES Comput. Molec. Sci. 2025 15(1), e70019
     doi.org/10.1002/wcms.7019

List of papers to cite with high priority. The work reported in these papers was absolutely
necessary for this run to complete.
Our perspective: the developers of density functionals and basis sets usually get cited in chemistry papers
Good! But without the algorithms to do something with them, the functionals or basis sets would not do anything.
Hence, in our opinion, the algorithm design and method developments papers are equally worthy of getting cited

  1. Neese, F.
     An improvement of the resolution of the identity approximation for the formation of the Coulomb matrix
     J. Comp. Chem. 2003 24(14), 1740-1747
     doi.org/10.1002/jcc.10318
  2. Neese, F.; Wennmohs, F.; Hansen, A.; Becker, U.
     Efficient, approximate and parallel Hartree-Fock and hybrid DFT calculations. A 'chain-of-spheres' algorithm for the Hartree-Fock exchange
     Chem. Phys. 2009 356(1-3), 98-109
     doi.org/10.1016/j.chemphys.2008.10.036
  3. Bykov, D.; Petrenko, T.; Izsak, R.; Kossmann, S.; Becker, U.; Valeev, E.; Neese, F.
     Efficient implementation of the analytic second derivatives of Hartree-Fock and hybrid DFT energies: a detailed analysis of different approximations
     Molec. Phys. 2015 113 , 1961-1977
     doi.org/10.1080/00268976.2015.1025114
  4. Caldeweyher, E.; Bannwarth, C.; Grimme, S.
     Extension of the D3 dispersion coefficient model
     J. Chem. Phys. 2017 147 , 034112
     doi.org/10.1063/1.4993215
  5. Caldeweyher, E.; Ehlert, S.; Hansen, A.; Neugebauer, H.; Spicher, S.; Bannwarth, C.; Grimme, S.
     A generally applicable atomic-charge dependent London dispersion correction
     J. Chem. Phys. 2019 150 , 154122
     doi.org/10.1063/1.5090222
  6. Garcia-Rates, M.; Neese, F.
     Efficient implementation of the analytical second derivatives of hartree-fock and hybrid DFT energies within the framework of the conductor-like polarizable continuum model
     J. Comput. Chem. 2019 40 , 1816-1828
     doi.org/10.1002/jcc.25833
  7. Caldeweyher, E.; Mewes, J.; Ehlert, S.; Grimme, S.
     Extension and evaluation of the D4 London-dispersion model for periodic systems
     Phys. Chem. Chem. Phys. 2020 22(16), 8499-8512
     doi.org/10.1039/D0CP00502A
  8. Garcia-Rates, M.; Neese, F.
     Effect of the Solute Cavity on the Solvation Energy and its Derivatives within the Framework of the Gaussian Charge Scheme
     J. Comput. Chem. 2020 41 , 922-939
     doi.org/10.1002/jcc.26139
  9. Helmich-Paris, B.; de Souza, B.; Neese, F.; Izsák, R.
     An improved chain of spheres for exchange algorithm
     J. Chem. Phys. 2021 155(10), 104109
     doi.org/10.1063/5.0058766
 10. Neese, F.
     The SHARK Integral Generation and Digestion System
     J. Comp. Chem. 2022 44(3), 381
     doi.org/10.1002/jcc.26942
 11. Wittmann, L.; Gordiy, I.; Friede, M.; Helmich-Paris, B.; Grimme, S.; Hansen, A.; Bursch, M.
     Extension of the D3 and D4 London Dispersion Corrections to the full Actinides Series
     Phys. Chem. Chem. Phys. 2024 26(32), 21379-21394
     doi.org/10.1039/D4CP01514B

List of suggested additional citations. These are papers that are important in the 'surrounding' of 
of this run, or papers that preceded the highly important papers. If you like your results we are grateful for a citation.

  1. Izsak, R.; Neese, F.
     An overlap fitted chain of spheres exchange method
     J. Chem. Phys. 2011 135 , 144105
     doi.org/10.1063/1.3646921
  2. Izsak, R.; Hansen, A.; Neese, F.
     The resolution of identity and chain of spheres approximations for the LPNO-CCSD singles Fock term
     Molec. Phys. 2012 110 , 2413-2417
     doi.org/10.1080/00268976.2012.687466
  3. Neese, F.
     The ORCA program system
     WIRES Comput. Molec. Sci. 2012 2(1), 73-78
     doi.org/10.1002/wcms.81
  4. Izsak, R.; Neese, F.; Klopper, W.
     Robust fitting techniques in the chain of spheres approximation to the Fock exchange: The role of the complementary space
     J. Chem. Phys. 2013 139 , 
     doi.org/10.1063/1.4819264
  5. Neese, F.
     Software update: the ORCA program system, version 4.0
     WIRES Comput. Molec. Sci. 2018 8(1), 1-6
     doi.org/10.1002/wcms.1327
  6. Neese, F.; Wennmohs, F.; Becker, U.; Riplinger, C.
     The ORCA quantum chemistry program package
     J. Chem. Phys. 2020 152(22), 224108
     doi.org/10.1063/5.0004608
  7. Neese, F.
     Software update: The ORCA program system—Version 5.0
     WIRES Comput. Molec. Sci. 2022 12(1), e1606
     doi.org/10.1002/wcms.1606

List of optional additional citations

  1. Neese, F.
     Approximate second-order SCF convergence for spin unrestricted wavefunctions
     Chem. Phys. Lett. 2000 325(1-3), 93-98
     doi.org/10.1016/s0009-2614(00)00662-x

Timings for individual modules:

Sum of individual times          ...     6601.516 sec (= 110.025 min)
Startup calculation              ...      262.072 sec (=   4.368 min)   4.0 %
SCF iterations                   ...     1882.466 sec (=  31.374 min)  28.5 %
Property integrals               ...     1045.436 sec (=  17.424 min)  15.8 %
SCF Response                     ...     2286.635 sec (=  38.111 min)  34.6 %
Property calculations            ...      573.742 sec (=   9.562 min)   8.7 %
SCF Gradient evaluation          ...      549.589 sec (=   9.160 min)   8.3 %
Geometry relaxation              ...        1.576 sec (=   0.026 min)   0.0 %
                             ****ORCA TERMINATED NORMALLY****
TOTAL RUN TIME: 0 days 1 hours 52 minutes 2 seconds 863 msec
