
                                 *****************
                                 * O   R   C   A *
                                 *****************

                                            #,                                       
                                            ###                                      
                                            ####                                     
                                            #####                                    
                                            ######                                   
                                           ########,                                 
                                     ,,################,,,,,                         
                               ,,#################################,,                 
                          ,,##########################################,,             
                       ,#########################################, ''#####,          
                    ,#############################################,,   '####,        
                  ,##################################################,,,,####,       
                ,###########''''           ''''###############################       
              ,#####''   ,,,,##########,,,,          '''####'''          '####       
            ,##' ,,,,###########################,,,                        '##       
           ' ,,###''''                  '''############,,,                           
         ,,##''                                '''############,,,,        ,,,,,,###''
      ,#''                                            '''#######################'''  
     '                                                          ''''####''''         
             ,#######,   #######,   ,#######,      ##                                
            ,#'     '#,  ##    ##  ,#'     '#,    #''#        ,####,    ,#,          
            ##       ##  ##   ,#'  ##            #'  '#       #'       ,# #          
            ##       ##  #######   ##           ,######,      #####,      #          
            '#,     ,#'  ##    ##  '#,     ,#' ,#      #,     #,   #      #          
             '#######'   ##     ##  '#######'  #'      '#     '####' #    #          



                #########################################################
                #                        -***-                          #
                #          Department of theory and spectroscopy        #
                #                                                       #
                #                      Frank Neese                      #
                #                                                       #
                #     Directorship, Architecture, Infrastructure        #
                #                    SHARK, DRIVERS                     #
                #        Core code/Algorithms in most modules           #
                #                                                       #
                #        Max Planck Institute fuer Kohlenforschung      #
                #                Kaiser Wilhelm Platz 1                 #
                #                 D-45470 Muelheim/Ruhr                 #
                #                      Germany                          #
                #                                                       #
                #                  All rights reserved                  #
                #                        -***-                          #
                #########################################################


                         Program Version 6.1.0-f.0  -   RELEASE   -


 With contributions from (in alphabetic order):
[Max-Planck-Institut fuer Kohlenforschung]                               
  Daniel Aravena         : Magnetic Suceptibility                        
  Michael Atanasov       : Ab Initio Ligand Field Theory (pilot matlab implementation)
  Alexander A. Auer      : GIAO ZORA, VPT2 properties, NMR spectrum      
  Ute Becker             : All parallelization in ORCA, NUMFREQ, NUMCALC 
  Giovanni Bistoni       : ED, misc. LED, open-shell LED, HFLD           
  Dmytro Bykov           : pre 5.0 version of the SCF Hessian            
  Marcos Casanova-Páez   : Triplet and SCS-CIS(D). UHF-(DLPNO)-IP/EA/STEOM-CCSD. UHF-CVS-IP/STEOM-CCSD   
  Vijay G. Chilkuri      : MRCI spin determinant printing, contributions to CSF-ICE 
  Pauline Colinet        : FMM embedding                                 
  Dipayan Datta          : RHF DLPNO-CCSD density                        
  Achintya Kumar Dutta   : EOM-CC, STEOM-CC                              
  Nicolas Foglia         : Exact transition moments, OPA infrastructure, MCD improvements    
  Dmitry Ganyushin       : Spin-Orbit,Spin-Spin,Magnetic field MRCI      
  Miquel Garcia-Rates    : C-PCM and meta-GGA Hessian, CCSD/C-PCM, Gaussian charge scheme 
  Tiago L. C. Gouveia    : GS-ROHF, GS-ROCIS                             
  Yang Guo               : DLPNO-NEVPT2, F12-NEVPT2, CIM, IAO-localization        
  Andreas Hansen         : Spin unrestricted coupled pair/coupled cluster methods 
  Ingolf Harden          : AUTO-CI MPn and infrastructure                
  Benjamin Helmich-Paris : MC-RPA, TRAH-(SCF,CASSCF), AVAS, COSX integrals, SCF dyn. polar., MC-PDFT, srDFT 
  Lee Huntington         : MR-EOM, pCC                                   
  Robert Izsak           : Overlap fitted RIJCOSX, COSX-SCS-MP3, EOM     
  Riya Kayal             : Wick's Theorem for AUTO-CI, AUTO-CI UHF-CCSDT 
  Emily Kempfer          : AUTO-CI RHF CISDT and CCSDT, approximate NEVPT4
  Christian Kollmar      : KDIIS, OOCD, Brueckner-CCSD(T), CCSD density, CASPT2, CASPT2-K, improved NEVPT2 
  Axel Koslowski         : Symmetry handling                             
  Simone Kossmann        : meta-GGA functionals, TD-DFT gradient, OOMP2, (MP2 Hessian; deprecated post 5.0) 
  Lucas Lang             : DCDCAS, Hyperfine gauge corrections, ICE-SOC+SSC
  Marvin Lechner         : AUTO-CI (C++ implementation), FIC-MRCC        
  Spencer Leger          : CASSCF response                               
  Dagmar Lenk            : GEPOL surface, SMD, ORCA-2-JSON               
  Dimitrios Liakos       : Extrapolation schemes; Compound Job, Property file
  Dimitrios Manganas     : Further ROCIS development; embedding schemes. LFT, Crystal Embedding 
  Dimitrios Pantazis     : SARC Basis sets                               
  Anastasios Papadopoulos: AUTO-CI, single reference methods and gradients 
  Taras Petrenko         : pre 6.0 DFT Hessian and TD-DFT gradient,  ECA, NRVS 
  Petra Pikulova         : Analytic Raman intensities                    
  Peter Pinski           : DLPNO-MP2, DLPNO-MP2 Gradient                 
  Shashank Vittal Rao    : ES-AILFT, MagRelax                            
  Christoph Reimann      : Effective Core Potentials                     
  Marius Retegan         : Local ZFS, SOC                                
  Christoph Riplinger    : Optimizer, TS searches, QM/MM, DLPNO-CCSD(T), (RO)-DLPNO pert. Triples 
  Michael Roemelt        : Original ROCIS implementation, recursive CI coupling coefficients
  Masaaki Saitow         : Open-shell DLPNO-CCSD energy and density      
  Barbara Sandhoefer     : DKH picture change effects                    
  Yorick L. A. Schmerwitz: GMF and freeze-and-release deltaSCF, NEB S-IDPP initial path                    
  Kantharuban Sivalingam : CASSCF convergence/infrastructure, NEVPT2, NEVPT3, NEVPT4(SD), FIC-MRCI and CEPA variants
  Bernardo de Souza      : ESD, SOC TD-DFT                               
  Georgi L. Stoychev     : AutoAux, RI-MP2 NMR, DLPNO-MP2 response, X2C  
  Van Anh Tran           : RI-MP2 g-tensors                              
  Willem Van den Heuvel  : Paramagnetic NMR                              
  Zikuan Wang            : NOTCH, Electric field optimization            
  Frank Wennmohs         : Technical directorship and infrastructure     
  Hang Xu                : AUTO-CI-Response properties                   
                                                                         
[FACCTs GmbH]                                                            
  Markus Bursch, Nicolas Foglia, Miquel Garcia-Rates, Ingolf Harden, Hagen Neugebauer, Anastasios Papadopoulos, 
  Christoph Riplinger, Bernardo de Souza, Georgi L. Stoychev                                                    
                                                                 
  APM, various basis sets, CI-OPT, improved COSX, DLPNO-Multilevel,           
  DOCKER, DRACO, updates on ESD, Fragmentator, GOAT, IRC, LR-CPCM, L-BFGS, MBIS, meta-GGA TD-DFT gradient, ML-optimized integration grids, 
  MM, NACMEs, nearIR, NEB, NEB-TS, NL-DFT gradient (VV10), 2- and 3-layer-ONIOM, interface openCOSMO-RS, QMMM,   
  Crystal-QMMM, RESP, rigid body optimization, SF, symmetry and pop. for TD-DFT, various functionals, SOLVATOR                                   
                                                                         
[Other institutions]                                                     
  V. Asgeirsson          : NEB                                           
  Christoph Bannwarth    : sTDA-DFT, sTD-DFT, PBEh-3c, B97-3c, D3        
  Giovanni Bistoni       : ETS/NOCV, ADLD/ADEX, COVALED                  
  Martin Brehm           : Molecular dynamics                            
  Ronald Cardenas        : ETS/NOCV                                      
  Martina Colucci        : COVALED                                       
  Sebastian Ehlert       : rSCAN, r2SCAN, r2SCAN-3c, D4, dhf basis sets  
  Marvin Friede          : D4 for Fr, Ra, Ac-Lr                          
  Lars Goerigk           : TD-DFT with DH, B97 family of functionals     
  Stefan Grimme          : VdW corrections, initial TS optimization, DFT functionals, gCP, sTDA/sTD-DF 
  Waldemar Hujo          : DFT-NL                                        
  H. Jonsson             : NEB                                           
  Holger Kruse           : gCP                                           
  Marcel Mueller         : wB97X-3c, vDZP basis set                      
  Hagen Neugebauer       : wr2SCAN, Native XTB                           
  Gianluca Regni         : ADLD/ADEX                                     
  Tobias Risthaus        : pre 6.0 range-separated hybrid DFT and stability analysis
  Lukas Wittmann         : regularized MP2, r2SCAN double-hybrids, wr2SCAN        
                                                                         
We gratefully acknowledge several colleagues who have allowed us to      
interface, adapt or use parts of their codes:                            
  Ed Valeev, F. Pavosevic, A. Kumar             : LibInt (2-el integral package), F12 methods 
  Garnet Chan, S. Sharma, J. Yang, R. Olivares  : DMRG                   
  Ulf Ekstrom                                   : XCFun DFT Library      
  Mihaly Kallay                                 : mrcc  (arbitrary order and MRCC methods)
  Frank Weinhold                                : gennbo (NPA and NBO analysis)           
  Simon Mueller                                 : openCOSMO-RS                            
  Christopher J. Cramer and Donald G. Truhlar   : smd solvation model                     
  S Lehtola, MJT Oliveira, MAL Marques          : LibXC Library                           
  Liviu Ungur et al                             : ANISO software                          


 Your calculation uses the libint2 library for the computation of 2-el integrals
 For citations please refer to: http://libint.valeyev.net

 Your ORCA version has been built with support for libXC version: 7.0.0
 For citations please refer to: https://libxc.gitlab.io

 This ORCA versions uses:
   CBLAS   interface :  Fast vector & matrix operations
   LAPACKE interface :  Fast linear algebra routines
   SCALAPACK package :  Parallel linear algebra routines
   Shared memory     :  Shared parallel matrices
   BLAS/LAPACK       :  OpenBLAS 0.3.29  USE64BITINT DYNAMIC_ARCH NO_AFFINITY Cooperlake SINGLE_THREADED
        Core in use  :  Cooperlake
   Copyright (c) 2011-2014, The OpenBLAS Project


  ***********************************
  * Starting time: Wed Mar  4 06:34:07 2026
  * Host name:     c04b01n01
  * Process ID:    2408077
  * Working dir.:  /lustre1/jiangy/jiangy_liuxy/NMR/B9D7C2-SRSR
  ***********************************

NOTE: MaxCore=6000 MB was set to SCF,MP2,MDCI,CIPSI,MRCI,RASCI and CIS
      => If you want to overwrite this, your respective input block should be placed after the MaxCore statement


***************************************
The coordinates will be read from file: conf-8.xyz
***************************************


Your calculation utilizes the atom-pairwise dispersion correction
based on EEQ partial charges (D4)


Warning: RI is on but no J-basis has been assigned. Assigning Def2/J (nothing to worry about!)
================================================================================

----- Orbital basis set information -----
Your calculation utilizes the basis: def2-TZVP
   F. Weigend and R. Ahlrichs, Phys. Chem. Chem. Phys. 7, 3297 (2005).

----- AuxJ basis set information -----
Your calculation utilizes the auxiliary basis: def2/J
   H-Rn: F. Weigend, Phys. Chem. Chem. Phys. 8, 1057 (2006).
   Fr-Lr: K. Eichkorn, F. Weigend, O. Treutler, R. Ahlrichs; Theor. Chem. Acc. 97, 119 (1997).

================================================================================
                                        WARNINGS
                       Please study these warnings very carefully!
================================================================================


WARNING: Geometry Optimization
  ===> : Switching off AutoStart
         For restart on a previous wavefunction, please use MOREAD

================================================================================
                                       INPUT FILE
================================================================================
NAME = opt-conf-8.inp
|  1> ! B3LYP OPT FREQ DEF2-TZVP D4 CPCM(Methanol) 
|  2> ! TightOpt
|  3> %pal nprocs 64 end
|  4> %maxcore 6000
|  5> 
|  6> %cpcm
|  7> end
|  8> 
|  9> %freq
| 10>    Temp 298.15
| 11> end
| 12> 
| 13> * xyzfile 0 1 conf-8.xyz
| 14> 
| 15> 
| 16>                          ****END OF INPUT****
================================================================================

                       *****************************
                       * Geometry Optimization Run *
                       *****************************

Geometry optimization settings:
Update method            Update   .... BFGS
Choice of coordinates    CoordSys .... (2022) Redundant Internals
Initial Hessian          InHess   .... Almloef's Model
Max. no of cycles        MaxIter  .... 246

Convergence Tolerances:
Energy Change            TolE     ....  1.0000e-06 Eh
Max. Gradient            TolMAXG  ....  1.0000e-04 Eh/bohr
RMS Gradient             TolRMSG  ....  3.0000e-05 Eh/bohr
Max. Displacement        TolMAXD  ....  1.0000e-03 bohr
RMS Displacement         TolRMSD  ....  6.0000e-04 bohr
Strict Convergence                .... False

------------------------------------------------------------------------------
                        ORCA OPTIMIZATION COORDINATE SETUP
------------------------------------------------------------------------------

The optimization will be done in redundant internal coordinates (2022)
Making redundant internal coordinates   ...  (2022 redundants) done
Evaluating the initial hessian          ...  (Almloef) done
Evaluating the coordinates              ...  done
Calculating the B-matrix                .... done
Calculating the G-matrix                .... done
The number of degrees of freedom        ....  405

    -----------------------------------------------------------------
                    Redundant Internal Coordinates


    -----------------------------------------------------------------
         Definition                    Initial Value    Approx d2E/dq
    -----------------------------------------------------------------
      1. B(C   1,C   0)                  1.3999         0.602553   
      2. B(C   2,C   1)                  1.4042         0.592956   
      3. B(C   3,C   2)                  1.3877         0.630150   
      4. B(C   4,C   3)                  1.3856         0.635055   
      5. B(C   5,C   4)                  1.3857         0.634812   
      6. B(C   5,C   0)                  1.3884         0.628472   
      7. B(C   6,C   4)                  1.5023         0.413658   
      8. B(C   7,C   6)                  1.5353         0.366415   
      9. B(C   8,C   7)                  1.5407         0.359182   
     10. B(C   9,C   8)                  1.5374         0.363598   
     11. B(C  10,C   9)                  1.5044         0.410411   
     12. B(C  11,C  10)                  1.3933         0.617191   
     13. B(C  12,C  11)                  1.3815         0.644542   
     14. B(C  13,C  12)                  1.4053         0.590737   
     15. B(C  14,C  13)                  1.3823         0.642826   
     16. B(C  15,C  10)                  1.3854         0.635361   
     17. B(C  15,C  14)                  1.3862         0.633561   
     18. B(C  16,C   7)                  1.5359         0.365504   
     19. B(C  17,C   8)                  1.5358         0.365700   
     20. B(O  18,C   2)                  1.3620         0.620320   
     21. B(O  19,C   0)                  1.3709         0.600235   
     22. B(O  20,C   1)                  1.3748         0.591732   
     23. B(O  21,C  13)                  1.3618         0.620725   
     24. B(O  22,C  12)                  1.3789         0.582873   
     25. B(C  23,O  20)                  1.4187         0.503540   
     26. B(C  24,C  23)                  1.5499         0.347270   
     27. B(C  25,C  24)                  1.5107         0.401003   
     28. B(C  26,C  23)                  1.5344         0.367636   
     29. B(O  27,C  26)                  1.4018         0.535857   
     30. B(C  28,C  25)                  1.3932         0.617410   
     31. B(C  29,C  28)                  1.3816         0.644313   
     32. B(C  30,C  29)                  1.4030         0.595584   
     33. B(C  31,C  30)                  1.3820         0.643385   
     34. B(C  32,C  31)                  1.3845         0.637638   
     35. B(C  32,C  25)                  1.3839         0.638838   
     36. B(C  33,O  19)                  1.4077         0.524456   
     37. B(C  34,O  18)                  1.4059         0.527766   
     38. B(C  35,O  22)                  1.4079         0.524052   
     39. B(O  36,C  24)                  1.4107         0.518577   
     40. B(O  37,C  16)                  1.4081         0.523673   
     41. B(O  38,C  17)                  1.4059         0.527865   
     42. B(O  39,C  29)                  1.3740         0.593472   
     43. B(O  40,C  30)                  1.3674         0.608017   
     44. B(C  41,O  39)                  1.4087         0.522510   
     45. B(H  42,C   3)                  1.0778         0.376633   
     46. B(H  43,C   5)                  1.0777         0.376765   
     47. B(H  44,C   6)                  1.0913         0.358344   
     48. B(H  45,C   6)                  1.0900         0.360098   
     49. B(H  46,C   7)                  1.0970         0.351003   
     50. B(H  47,C   8)                  1.0969         0.351086   
     51. B(H  48,C   9)                  1.0916         0.358043   
     52. B(H  49,C   9)                  1.0945         0.354197   
     53. B(H  50,C  11)                  1.0773         0.377321   
     54. B(H  51,C  14)                  1.0785         0.375640   
     55. B(H  52,C  15)                  1.0802         0.373321   
     56. B(H  53,C  16)                  1.0914         0.358254   
     57. B(H  54,C  16)                  1.0979         0.349857   
     58. B(H  55,C  17)                  1.0915         0.358071   
     59. B(H  56,C  17)                  1.1021         0.344437   
     60. B(H  57,O  21)                  0.9672         0.506449   
     61. B(H  57,O  22)                  2.1114         0.010000   
     62. B(H  58,C  23)                  1.0976         0.350234   
     63. B(H  59,C  24)                  1.0945         0.354173   
     64. B(H  60,C  26)                  1.0909         0.358973   
     65. B(H  61,C  26)                  1.0984         0.349206   
     66. B(H  62,O  20)                  2.3546         0.010000   
     67. B(H  62,O  27)                  0.9656         0.509393   
     68. B(H  63,C  28)                  1.0795         0.374227   
     69. B(H  64,C  31)                  1.0780         0.376342   
     70. B(H  65,C  32)                  1.0784         0.375760   
     71. B(H  66,C  33)                  1.0897         0.360443   
     72. B(H  67,C  33)                  1.0948         0.353768   
     73. B(H  68,C  33)                  1.0942         0.354581   
     74. B(H  69,H  64)                  4.2052         0.010000   
     75. B(H  69,C  34)                  1.0953         0.353205   
     76. B(H  70,C  34)                  1.0890         0.361458   
     77. B(H  71,C  34)                  1.0947         0.353963   
     78. B(H  72,H  64)                  4.9457         0.010000   
     79. B(H  72,C  35)                  1.0939         0.354950   
     80. B(H  73,C  35)                  1.0940         0.354860   
     81. B(H  74,C  35)                  1.0888         0.361738   
     82. B(H  75,O  36)                  0.9642         0.512053   
     83. B(H  76,O  40)                  1.9744         0.012517   
     84. B(H  76,O  37)                  0.9696         0.501986   
     85. B(H  77,O  38)                  0.9645         0.511379   
     86. B(H  78,O  39)                  2.1022         0.010000   
     87. B(H  78,O  40)                  0.9688         0.503339   
     88. B(H  79,O  21)                  2.3549         0.010000   
     89. B(H  79,C  41)                  1.0886         0.361983   
     90. B(H  80,H  67)                  2.4573         0.010000   
     91. B(H  80,C  41)                  1.0931         0.355964   
     92. B(H  81,C  41)                  1.0946         0.354113   
     93. A(C   1,C   0,O  19)          117.2164         0.426538   
     94. A(C   5,C   0,O  19)          123.3000         0.429771   
     95. A(C   1,C   0,C   5)          119.4835         0.432899   
     96. A(C   0,C   1,O  20)          124.5895         0.425450   
     97. A(C   0,C   1,C   2)          119.2170         0.428400   
     98. A(C   2,C   1,O  20)          115.9519         0.424230   
     99. A(C   3,C   2,O  18)          124.6934         0.432527   
    100. A(C   1,C   2,C   3)          120.2652         0.431858   
    101. A(C   1,C   2,O  18)          115.0414         0.427829   
    102. A(C   4,C   3,H  42)          118.9736         0.357056   
    103. A(C   2,C   3,H  42)          120.7100         0.356586   
    104. A(C   2,C   3,C   4)          120.3164         0.437222   
    105. A(C   5,C   4,C   6)          119.1957         0.405551   
    106. A(C   3,C   4,C   6)          121.2803         0.405579   
    107. A(C   3,C   4,C   5)          119.5154         0.437804   
    108. A(C   4,C   5,H  43)          118.4729         0.357054   
    109. A(C   0,C   5,H  43)          120.3500         0.356445   
    110. A(C   0,C   5,C   4)          121.1691         0.436982   
    111. A(C   4,C   6,H  44)          108.7096         0.329544   
    112. A(C   7,C   6,H  45)          109.3929         0.323290   
    113. A(C   4,C   6,C   7)          110.7299         0.368527   
    114. A(H  44,C   6,H  45)          108.5979         0.290616   
    115. A(C   4,C   6,H  45)          110.3334         0.329810   
    116. A(C   7,C   6,H  44)          109.0336         0.323031   
    117. A(C   6,C   7,C  16)          110.0847         0.360805   
    118. A(C   8,C   7,C  16)          110.6928         0.359582   
    119. A(C  16,C   7,H  46)          106.8492         0.321806   
    120. A(C   8,C   7,H  46)          106.7846         0.320889   
    121. A(C   6,C   7,H  46)          107.9206         0.321937   
    122. A(C   6,C   7,C   8)          114.1588         0.359734   
    123. A(C   7,C   8,C  17)          114.4819         0.359614   
    124. A(C  17,C   8,H  47)          107.2675         0.321847   
    125. A(C   7,C   8,C   9)          111.4039         0.359262   
    126. A(C   9,C   8,H  47)          108.5926         0.321543   
    127. A(C   7,C   8,H  47)          106.0017         0.320901   
    128. A(C   9,C   8,C  17)          108.8379         0.360364   
    129. A(H  48,C   9,H  49)          107.2094         0.289825   
    130. A(C  10,C   9,H  48)          109.1762         0.329070   
    131. A(C  10,C   9,H  49)          108.5991         0.328484   
    132. A(C   8,C   9,C  10)          113.9143         0.367542   
    133. A(C   8,C   9,H  48)          109.3051         0.322578   
    134. A(C   8,C   9,H  49)          108.4213         0.322008   
    135. A(C   9,C  10,C  11)          120.1913         0.402980   
    136. A(C  11,C  10,C  15)          118.7836         0.435626   
    137. A(C   9,C  10,C  15)          121.0125         0.405049   
    138. A(C  10,C  11,C  12)          120.7252         0.436754   
    139. A(C  10,C  11,H  50)          119.2230         0.355440   
    140. A(C  12,C  11,H  50)          120.0518         0.358068   
    141. A(C  11,C  12,C  13)          119.9463         0.433323   
    142. A(C  13,C  12,O  22)          114.5473         0.422804   
    143. A(C  11,C  12,O  22)          125.5063         0.429455   
    144. A(C  12,C  13,O  21)          120.1554         0.427592   
    145. A(C  12,C  13,C  14)          119.3011         0.433115   
    146. A(C  14,C  13,O  21)          120.5433         0.434130   
    147. A(C  13,C  14,H  51)          118.6708         0.357634   
    148. A(C  13,C  14,C  15)          120.1487         0.438609   
    149. A(C  15,C  14,H  51)          121.1765         0.356753   
    150. A(C  14,C  15,H  52)          119.1600         0.356378   
    151. A(C  10,C  15,H  52)          119.7727         0.356549   
    152. A(C  10,C  15,C  14)          121.0549         0.437686   
    153. A(O  37,C  16,H  54)          110.7351         0.339283   
    154. A(C   7,C  16,H  54)          108.4627         0.321634   
    155. A(O  37,C  16,H  53)          106.3876         0.340630   
    156. A(C   7,C  16,H  53)          110.3926         0.322886   
    157. A(C   7,C  16,O  37)          112.3580         0.381262   
    158. A(H  53,C  16,H  54)          108.4368         0.289292   
    159. A(O  38,C  17,H  56)          109.7733         0.338851   
    160. A(C   8,C  17,O  38)          114.3431         0.381825   
    161. A(H  55,C  17,H  56)          107.7585         0.288563   
    162. A(C   8,C  17,H  56)          108.2989         0.320842   
    163. A(O  38,C  17,H  55)          105.5103         0.341056   
    164. A(C   8,C  17,H  55)          110.9644         0.322888   
    165. A(C   2,O  18,C  34)          118.3366         0.416298   
    166. A(C   0,O  19,C  33)          118.1160         0.413407   
    167. A(C   1,O  20,C  23)          120.4324         0.409396   
    168. A(C  13,O  21,H  57)          107.5398         0.368520   
    169. A(C  12,O  22,C  35)          118.0466         0.411203   
    170. A(C  26,C  23,H  58)          109.1155         0.321997   
    171. A(C  24,C  23,H  58)          110.0735         0.319011   
    172. A(O  20,C  23,H  58)          110.3499         0.337133   
    173. A(C  24,C  23,C  26)          111.0046         0.357878   
    174. A(O  20,C  23,C  26)          104.4970         0.379061   
    175. A(O  20,C  23,C  24)          111.6557         0.375344   
    176. A(C  23,C  24,O  36)          110.9762         0.377257   
    177. A(O  36,C  24,H  59)          105.3189         0.339424   
    178. A(C  25,C  24,H  59)          109.8006         0.327226   
    179. A(C  23,C  24,H  59)          107.9231         0.319594   
    180. A(C  25,C  24,O  36)          111.9884         0.386798   
    181. A(C  23,C  24,C  25)          110.6209         0.363217   
    182. A(C  28,C  25,C  32)          119.3670         0.436083   
    183. A(C  24,C  25,C  32)          121.2198         0.403783   
    184. A(C  24,C  25,C  28)          119.4093         0.401362   
    185. A(O  27,C  26,H  61)          110.9217         0.340483   
    186. A(H  60,C  26,H  61)          109.0802         0.289299   
    187. A(C  23,C  26,H  61)          108.2185         0.321842   
    188. A(O  27,C  26,H  60)          107.0291         0.342058   
    189. A(C  23,C  26,H  60)          110.3462         0.323301   
    190. A(C  23,C  26,O  27)          111.2335         0.383174   
    191. A(C  26,O  27,H  62)          106.7307         0.359727   
    192. A(C  29,C  28,H  63)          119.7219         0.357545   
    193. A(C  25,C  28,H  63)          119.7362         0.354965   
    194. A(C  25,C  28,C  29)          120.5318         0.436754   
    195. A(C  30,C  29,O  39)          114.7633         0.424789   
    196. A(C  28,C  29,O  39)          125.6797         0.430819   
    197. A(C  28,C  29,C  30)          119.5566         0.433932   
    198. A(C  31,C  30,O  40)          120.4560         0.432585   
    199. A(C  29,C  30,O  40)          119.7288         0.426634   
    200. A(C  29,C  30,C  31)          119.8116         0.433820   
    201. A(C  32,C  31,H  64)          120.8910         0.357255   
    202. A(C  30,C  31,H  64)          118.9971         0.357800   
    203. A(C  30,C  31,C  32)          120.1046         0.439186   
    204. A(C  31,C  32,H  65)          119.7403         0.357161   
    205. A(C  25,C  32,H  65)          119.6840         0.357275   
    206. A(C  25,C  32,C  31)          120.5755         0.438624   
    207. A(H  67,C  33,H  68)          109.2468         0.289329   
    208. A(H  66,C  33,H  68)          109.0375         0.290178   
    209. A(O  19,C  33,H  68)          111.3799         0.340129   
    210. A(H  66,C  33,H  67)          109.7401         0.290074   
    211. A(O  19,C  33,H  67)          111.7892         0.339998   
    212. A(O  19,C  33,H  66)          105.5578         0.341063   
    213. A(H  69,C  34,H  71)          109.3104         0.289178   
    214. A(O  18,C  34,H  71)          111.6757         0.340387   
    215. A(H  69,C  34,H  70)          109.2929         0.290129   
    216. A(O  18,C  34,H  70)          105.5857         0.341582   
    217. A(O  18,C  34,H  69)          111.6615         0.340265   
    218. A(H  70,C  34,H  71)          109.2145         0.290227   
    219. A(H  73,C  35,H  74)          109.2790         0.290378   
    220. A(H  72,C  35,H  74)          109.4995         0.290389   
    221. A(O  22,C  35,H  74)          105.6031         0.341223   
    222. A(H  72,C  35,H  73)          109.6927         0.289516   
    223. A(O  22,C  35,H  73)          111.3156         0.340130   
    224. A(O  22,C  35,H  72)          111.3511         0.340144   
    225. A(C  24,O  36,H  75)          108.6365         0.358043   
    226. A(C  16,O  37,H  76)          107.7216         0.357430   
    227. A(C  17,O  38,H  77)          108.3869         0.359045   
    228. A(C  29,O  39,C  41)          118.3367         0.412304   
    229. A(C  30,O  40,H  78)          107.4952         0.366827   
    230. A(H  80,C  41,H  81)          109.5119         0.289550   
    231. A(H  79,C  41,H  81)          109.8974         0.290312   
    232. A(O  39,C  41,H  81)          111.0762         0.339843   
    233. A(H  79,C  41,H  80)          109.2936         0.290550   
    234. A(O  39,C  41,H  80)          111.6387         0.340139   
    235. A(O  39,C  41,H  79)          105.3357         0.341094   
    236. D(O  20,C   1,C   0,O  19)      5.3593         0.025041   
    237. D(C   2,C   1,C   0,O  19)    179.4739         0.025041   
    238. D(C   2,C   1,C   0,C   5)     -0.4218         0.025041   
    239. D(O  20,C   1,C   0,C   5)   -174.5364         0.025041   
    240. D(O  18,C   2,C   1,C   0)    178.8291         0.024208   
    241. D(C   3,C   2,C   1,C   0)     -1.1174         0.024208   
    242. D(C   3,C   2,C   1,O  20)    173.4956         0.024208   
    243. D(O  18,C   2,C   1,O  20)     -6.5579         0.024208   
    244. D(C   4,C   3,C   2,C   1)      1.3172         0.027533   
    245. D(H  42,C   3,C   2,O  18)      1.3021         0.027533   
    246. D(C   4,C   3,C   2,O  18)   -178.6238         0.027533   
    247. D(H  42,C   3,C   2,C   1)   -178.7568         0.027533   
    248. D(C   6,C   4,C   3,H  42)     -0.9582         0.027992   
    249. D(C   5,C   4,C   3,H  42)   -179.8881         0.027992   
    250. D(C   5,C   4,C   3,C   2)      0.0391         0.027992   
    251. D(C   6,C   4,C   3,C   2)    178.9690         0.027992   
    252. D(H  43,C   5,C   4,C   6)      0.4598         0.027969   
    253. D(H  43,C   5,C   4,C   3)    179.4121         0.027969   
    254. D(C   0,C   5,C   4,C   3)     -1.6125         0.027969   
    255. D(C   4,C   5,C   0,O  19)   -178.0908         0.027377   
    256. D(H  43,C   5,C   0,C   1)   -179.2455         0.027377   
    257. D(H  43,C   5,C   0,O  19)      0.8655         0.027377   
    258. D(C   0,C   5,C   4,C   6)    179.4352         0.027969   
    259. D(C   4,C   5,C   0,C   1)      1.7982         0.027377   
    260. D(H  45,C   6,C   4,C   3)     17.8650         0.012665   
    261. D(H  44,C   6,C   4,C   5)    -44.2157         0.012665   
    262. D(H  44,C   6,C   4,C   3)    136.8511         0.012665   
    263. D(C   7,C   6,C   4,C   5)     75.5416         0.012665   
    264. D(C   7,C   6,C   4,C   3)   -103.3916         0.012665   
    265. D(C   8,C   7,C   6,H  44)    -40.7576         0.010746   
    266. D(C   8,C   7,C   6,C   4)   -160.3204         0.010746   
    267. D(C  16,C   7,C   6,H  45)    -47.3261         0.010746   
    268. D(C  16,C   7,C   6,H  44)   -165.9529         0.010746   
    269. D(C   8,C   7,C   6,H  45)     77.8691         0.010746   
    270. D(C  16,C   7,C   6,C   4)     74.4843         0.010746   
    271. D(C  17,C   8,C   7,H  46)   -164.0465         0.010354   
    272. D(C  17,C   8,C   7,C  16)     80.0052         0.010354   
    273. D(C  17,C   8,C   7,C   6)    -44.8677         0.010354   
    274. D(C   9,C   8,C   7,C  16)   -155.9697         0.010354   
    275. D(C   9,C   8,C   7,H  46)    -40.0214         0.010354   
    276. D(C   9,C   8,C   7,C   6)     79.1574         0.010354   
    277. D(H  48,C   9,C   8,C  17)     59.3327         0.010592   
    278. D(H  48,C   9,C   8,C   7)    -67.8259         0.010592   
    279. D(C  10,C   9,C   8,H  47)    -61.7851         0.010592   
    280. D(C  10,C   9,C   8,C  17)   -178.2513         0.010592   
    281. D(H  48,C   9,C   8,H  47)    175.7989         0.010592   
    282. D(C  10,C   9,C   8,C   7)     54.5901         0.010592   
    283. D(C  15,C  10,C   9,H  48)     -4.7446         0.012474   
    284. D(C  15,C  10,C   9,C   8)   -127.2314         0.012474   
    285. D(C  11,C  10,C   9,H  49)    -66.8467         0.012474   
    286. D(C  11,C  10,C   9,H  48)    176.5674         0.012474   
    287. D(C  11,C  10,C   9,C   8)     54.0806         0.012474   
    288. D(H  50,C  11,C  10,C  15)    179.8153         0.026345   
    289. D(H  50,C  11,C  10,C   9)     -1.4677         0.026345   
    290. D(C  12,C  11,C  10,C  15)     -0.0792         0.026345   
    291. D(C  12,C  11,C  10,C   9)    178.6378         0.026345   
    292. D(O  22,C  12,C  11,H  50)     -1.4701         0.028892   
    293. D(C  13,C  12,C  11,H  50)    178.4246         0.028892   
    294. D(O  22,C  12,C  11,C  10)    178.4235         0.028892   
    295. D(C  13,C  12,C  11,C  10)     -1.6818         0.028892   
    296. D(O  21,C  13,C  12,C  11)   -177.6816         0.024018   
    297. D(C  14,C  13,C  12,O  22)   -177.9118         0.024018   
    298. D(C  14,C  13,C  12,C  11)      2.1825         0.024018   
    299. D(O  21,C  13,C  12,O  22)      2.2242         0.024018   
    300. D(H  51,C  14,C  13,O  21)     -0.3491         0.028727   
    301. D(H  51,C  14,C  13,C  12)    179.7874         0.028727   
    302. D(C  15,C  14,C  13,O  21)    178.9309         0.028727   
    303. D(C  15,C  14,C  13,C  12)     -0.9326         0.028727   
    304. D(H  52,C  15,C  14,H  51)     -0.2930         0.027851   
    305. D(H  52,C  15,C  14,C  13)   -179.5546         0.027851   
    306. D(C  10,C  15,C  14,H  51)    178.4195         0.027851   
    307. D(C  10,C  15,C  14,C  13)     -0.8421         0.027851   
    308. D(H  52,C  15,C  10,C  11)   -179.9424         0.028020   
    309. D(H  52,C  15,C  10,C   9)      1.3515         0.028020   
    310. D(C  14,C  15,C  10,C  11)      1.3529         0.028020   
    311. D(C  14,C  15,C  10,C   9)   -177.3532         0.028020   
    312. D(H  53,C  16,C   7,H  46)   -174.6949         0.010696   
    313. D(H  53,C  16,C   7,C   8)    -58.7868         0.010696   
    314. D(H  53,C  16,C   7,C   6)     68.3651         0.010696   
    315. D(O  37,C  16,C   7,H  46)    -56.1159         0.010696   
    316. D(O  37,C  16,C   7,C   8)     59.7922         0.010696   
    317. D(O  37,C  16,C   7,C   6)   -173.0558         0.010696   
    318. D(H  55,C  17,C   8,H  47)    175.3857         0.010707   
    319. D(H  55,C  17,C   8,C   9)    -67.3027         0.010707   
    320. D(H  55,C  17,C   8,C   7)     58.0801         0.010707   
    321. D(O  38,C  17,C   8,H  47)     56.1988         0.010707   
    322. D(O  38,C  17,C   8,C   9)    173.5105         0.010707   
    323. D(O  38,C  17,C   8,C   7)    -61.1068         0.010707   
    324. D(C  34,O  18,C   2,C   3)     -0.9628         0.028234   
    325. D(C  34,O  18,C   2,C   1)    179.0934         0.028234   
    326. D(C  33,O  19,C   0,C   5)      5.2637         0.026315   
    327. D(C  33,O  19,C   0,C   1)   -174.6276         0.026315   
    328. D(C  23,O  20,C   1,C   2)    131.3276         0.028159   
    329. D(C  23,O  20,C   1,C   0)    -54.3845         0.028159   
    330. D(H  57,O  21,C  13,C  14)   -179.0134         0.031205   
    331. D(H  57,O  21,C  13,C  12)      0.8489         0.031205   
    332. D(C  35,O  22,C  12,C  13)    177.8850         0.027267   
    333. D(C  35,O  22,C  12,C  11)     -2.2153         0.027267   
    334. D(H  58,C  23,O  20,C   1)     56.1653         0.021758   
    335. D(C  26,C  23,O  20,C   1)    173.3372         0.021758   
    336. D(C  24,C  23,O  20,C   1)    -66.5960         0.021758   
    337. D(O  36,C  24,C  23,H  58)     71.1079         0.010000   
    338. D(O  36,C  24,C  23,C  26)    -49.8078         0.010000   
    339. D(O  36,C  24,C  23,O  20)   -165.9731         0.010000   
    340. D(C  25,C  24,C  23,H  58)    -53.8314         0.010000   
    341. D(C  25,C  24,C  23,C  26)   -174.7471         0.010000   
    342. D(C  25,C  24,C  23,O  20)     69.0876         0.010000   
    343. D(C  32,C  25,C  24,O  36)    120.2033         0.011931   
    344. D(C  32,C  25,C  24,C  23)   -115.4337         0.011931   
    345. D(C  28,C  25,C  24,H  59)   -175.6988         0.011931   
    346. D(C  28,C  25,C  24,O  36)    -59.0707         0.011931   
    347. D(C  28,C  25,C  24,C  23)     65.2923         0.011931   
    348. D(H  60,C  26,C  23,H  58)    -65.5397         0.010813   
    349. D(H  60,C  26,C  23,C  24)     55.9392         0.010813   
    350. D(H  60,C  26,C  23,O  20)    176.4413         0.010813   
    351. D(O  27,C  26,C  23,H  58)     53.0921         0.010813   
    352. D(O  27,C  26,C  23,C  24)    174.5709         0.010813   
    353. D(O  27,C  26,C  23,O  20)    -64.9269         0.010813   
    354. D(H  62,O  27,C  26,H  61)    -68.7875         0.022826   
    355. D(H  62,O  27,C  26,H  60)    172.3241         0.022826   
    356. D(H  62,O  27,C  26,C  23)     51.7184         0.022826   
    357. D(H  63,C  28,C  25,C  32)   -178.8221         0.026364   
    358. D(H  63,C  28,C  25,C  24)      0.4654         0.026364   
    359. D(C  29,C  28,C  25,C  32)      2.3368         0.026364   
    360. D(C  29,C  28,C  25,C  24)   -178.3757         0.026364   
    361. D(C  30,C  29,C  28,H  63)   -179.7360         0.028870   
    362. D(C  30,C  29,C  28,C  25)     -0.8947         0.028870   
    363. D(O  39,C  29,C  28,H  63)      0.4916         0.028870   
    364. D(O  39,C  29,C  28,C  25)    179.3329         0.028870   
    365. D(O  40,C  30,C  29,O  39)     -0.7084         0.024434   
    366. D(O  40,C  30,C  29,C  28)    179.4952         0.024434   
    367. D(C  31,C  30,C  29,O  39)    178.6017         0.024434   
    368. D(C  31,C  30,C  29,C  28)     -1.1948         0.024434   
    369. D(H  64,C  31,C  30,O  40)      2.1032         0.028781   
    370. D(H  64,C  31,C  30,C  29)   -177.2017         0.028781   
    371. D(C  32,C  31,C  30,O  40)   -178.8654         0.028781   
    372. D(C  32,C  31,C  30,C  29)      1.8296         0.028781   
    373. D(H  65,C  32,C  31,H  64)     -1.5220         0.028235   
    374. D(H  65,C  32,C  31,C  30)    179.4653         0.028235   
    375. D(C  25,C  32,C  31,H  64)    178.6379         0.028235   
    376. D(C  25,C  32,C  31,C  30)     -0.3749         0.028235   
    377. D(H  65,C  32,C  25,C  28)    178.4565         0.028348   
    378. D(H  65,C  32,C  25,C  24)     -0.8177         0.028348   
    379. D(C  31,C  32,C  25,C  28)     -1.7033         0.028348   
    380. D(C  31,C  32,C  25,C  24)    179.0225         0.028348   
    381. D(H  68,C  33,O  19,C   0)     59.2289         0.021823   
    382. D(H  67,C  33,O  19,C   0)    -63.3007         0.021823   
    383. D(H  66,C  33,O  19,C   0)    177.4329         0.021823   
    384. D(H  71,C  34,O  18,C   2)    -61.4527         0.022111   
    385. D(H  70,C  34,O  18,C   2)    179.9578         0.022111   
    386. D(H  69,C  34,O  18,C   2)     61.2816         0.022111   
    387. D(H  74,C  35,O  22,C  12)   -177.7267         0.023651   
    388. D(H  73,C  35,O  22,C  12)     63.7875         0.023651   
    389. D(H  72,C  35,O  22,C  12)    -58.9579         0.023651   
    390. D(H  75,O  36,C  24,H  59)    175.5798         0.021316   
    391. D(H  75,O  36,C  24,C  25)     56.2795         0.021316   
    392. D(H  75,O  36,C  24,C  23)    -67.8853         0.021316   
    393. D(H  76,O  37,C  16,H  54)    -57.1864         0.021755   
    394. D(H  76,O  37,C  16,H  53)   -174.8197         0.021755   
    395. D(H  76,O  37,C  16,C   7)     64.2704         0.021755   
    396. D(H  77,O  38,C  17,H  56)     67.7920         0.022120   
    397. D(H  77,O  38,C  17,H  55)   -176.3507         0.022120   
    398. D(H  77,O  38,C  17,C   8)    -54.1357         0.022120   
    399. D(C  41,O  39,C  29,C  30)   -171.7717         0.028337   
    400. D(C  41,O  39,C  29,C  28)      8.0103         0.028337   
    401. D(H  78,O  40,C  30,C  31)   -178.0068         0.029846   
    402. D(H  78,O  40,C  30,C  29)      1.2987         0.029846   
    403. D(H  81,C  41,O  39,C  29)     60.9986         0.023505   
    404. D(H  80,C  41,O  39,C  29)    -61.5473         0.023505   
    405. D(H  79,C  41,O  39,C  29)    179.9385         0.023505   
    -----------------------------------------------------------------

Number of atoms                         .... 82
Number of degrees of freedom            .... 405


         *************************************************************
         *                GEOMETRY OPTIMIZATION CYCLE   1            *
         *************************************************************
---------------------------------
CARTESIAN COORDINATES (ANGSTROEM)
---------------------------------
  C     20.958413  -30.156479   -0.281282
  C     21.639136  -29.907559    0.916334
  C     21.008288  -30.198773    2.136625
  C     19.716471  -30.705327    2.152736
  C     19.047799  -30.953824    0.964913
  C     19.678736  -30.693572   -0.241019
  C     17.657741  -31.523424    0.956730
  C     17.683733  -33.014865    0.593447
  C     16.333624  -33.566512    0.096825
  C     16.083069  -33.196080   -1.374061
  C     17.188702  -33.613539   -2.304934
  C     17.617548  -34.938925   -2.333595
  C     18.612650  -35.340166   -3.203884
  C     19.178536  -34.414617   -4.097128
  C     18.760855  -33.097468   -4.061187
  C     17.779851  -32.702376   -3.165025
  C     18.202389  -33.838239    1.781799
  C     15.121305  -33.128760    0.931891
  O     21.756216  -29.947207    3.246691
  O     21.608308  -29.846714   -1.447943
  O     22.860197  -29.282015    1.004537
  O     20.126119  -34.816044   -4.988972
  O     19.132199  -36.614287   -3.293715
  C     23.970417  -29.765582    0.265363
  C     24.421570  -31.163499    0.759734
  C     23.387535  -32.209282    0.414243
  C     25.069557  -28.719898    0.494941
  O     24.716531  -27.482020   -0.060103
  C     23.133942  -32.504907   -0.923445
  C     22.169700  -33.433019   -1.266575
  C     21.455358  -34.094627   -0.256379
  C     21.738534  -33.831464    1.070472
  C     22.697821  -32.889979    1.402303
  C     20.900454  -29.980520   -2.657293
  C     21.184587  -30.195710    4.506912
  C     18.650013  -37.590257   -2.400933
  O     25.695646  -31.492151    0.250952
  O     18.394211  -35.193471    1.451361
  O     15.164006  -33.540432    2.275479
  O     21.825011  -33.794690   -2.546522
  O     20.493062  -35.006259   -0.592122
  C     22.610194  -33.312426   -3.612003
  H     19.218140  -30.912642    3.085634
  H     19.146699  -30.902077   -1.154730
  H     17.063861  -30.986722    0.214935
  H     17.190824  -31.396917    1.933504
  H     18.401633  -33.150497   -0.224817
  H     16.405829  -34.658229    0.175124
  H     15.934776  -32.117628   -1.454379
  H     15.154156  -33.675704   -1.698113
  H     17.164827  -35.652754   -1.665739
  H     19.204427  -32.395025   -4.748921
  H     17.460317  -31.670577   -3.155574
  H     17.481138  -33.820073    2.600712
  H     19.139421  -33.387725    2.134352
  H     15.040498  -32.040646    0.962429
  H     14.210246  -33.520121    0.450804
  H     20.262495  -35.765084   -4.861960
  H     23.728943  -29.804246   -0.804608
  H     24.548332  -31.111993    1.845665
  H     25.997224  -29.032831    0.013830
  H     25.238343  -28.630918    1.576603
  H     23.837164  -27.267318    0.276014
  H     23.682184  -31.991160   -1.698602
  H     21.213734  -34.380273    1.835624
  H     22.907978  -32.683035    2.439598
  H     21.584291  -29.641833   -3.435235
  H     20.611053  -31.019410   -2.845987
  H     20.006648  -29.349430   -2.668260
  H     20.921838  -31.251781    4.630517
  H     21.950333  -29.928044    5.233449
  H     20.295948  -29.579348    4.676445
  H     18.817667  -37.296077   -1.360734
  H     17.585656  -37.785308   -2.561909
  H     19.217980  -38.493097   -2.619340
  H     25.623550  -31.618713   -0.702152
  H     19.093583  -35.237737    0.781292
  H     15.293818  -34.495944    2.296938
  H     20.472842  -35.065729   -1.558925
  H     22.156553  -33.722549   -4.512567
  H     22.592590  -32.220649   -3.663745
  H     23.645297  -33.657701   -3.525881

----------------------------
CARTESIAN COORDINATES (A.U.)
----------------------------
  NO LB      ZA    FRAG     MASS         X           Y           Z
   0 C     6.0000    0    12.011   39.605660  -56.987486   -0.531546
   1 C     6.0000    0    12.011   40.892041  -56.517097    1.731621
   2 C     6.0000    0    12.011   39.699911  -57.067410    4.037637
   3 C     6.0000    0    12.011   37.258730  -58.024660    4.068082
   4 C     6.0000    0    12.011   35.995124  -58.494250    1.823422
   5 C     6.0000    0    12.011   37.187421  -58.002446   -0.455460
   6 C     6.0000    0    12.011   33.368295  -59.570637    1.807957
   7 C     6.0000    0    12.011   33.417412  -62.389053    1.121452
   8 C     6.0000    0    12.011   30.866076  -63.431514    0.182973
   9 C     6.0000    0    12.011   30.392595  -62.731500   -2.596598
  10 C     6.0000    0    12.011   32.481939  -63.520383   -4.355695
  11 C     6.0000    0    12.011   33.292341  -66.025000   -4.409855
  12 C     6.0000    0    12.011   35.172812  -66.783235   -6.054464
  13 C     6.0000    0    12.011   36.242181  -65.034201   -7.742449
  14 C     6.0000    0    12.011   35.452878  -62.545149   -7.674531
  15 C     6.0000    0    12.011   33.599049  -61.798534   -5.981031
  16 C     6.0000    0    12.011   34.397530  -63.945005    3.367111
  17 C     6.0000    0    12.011   28.575125  -62.604283    1.761018
  18 O     8.0000    0    15.999   41.113291  -56.592019    6.135357
  19 O     8.0000    0    15.999   40.833784  -56.402116   -2.736215
  20 O     8.0000    0    15.999   43.199512  -55.334989    1.898299
  21 O     8.0000    0    15.999   38.032854  -65.792788   -9.427792
  22 O     8.0000    0    15.999   36.154616  -69.190974   -6.224218
  23 C     6.0000    0    12.011   45.297524  -56.248798    0.501464
  24 C     6.0000    0    12.011   46.150080  -58.890479    1.435689
  25 C     6.0000    0    12.011   44.196035  -60.866721    0.782805
  26 C     6.0000    0    12.011   47.374596  -54.272743    0.935302
  27 O     8.0000    0    15.999   46.707474  -51.933491   -0.113579
  28 C     6.0000    0    12.011   43.716815  -61.425373   -1.745058
  29 C     6.0000    0    12.011   41.894661  -63.179250   -2.393480
  30 C     6.0000    0    12.011   40.544752  -64.429508   -0.484486
  31 C     6.0000    0    12.011   41.079876  -63.932201    2.022899
  32 C     6.0000    0    12.011   42.892665  -62.153054    2.649968
  33 C     6.0000    0    12.011   39.496133  -56.654971   -5.021557
  34 C     6.0000    0    12.011   40.033067  -57.061623    8.516830
  35 C     6.0000    0    12.011   35.243417  -71.035292   -4.537105
  36 O     8.0000    0    15.999   48.557733  -59.511541    0.474230
  37 O     8.0000    0    15.999   34.760021  -66.506021    2.742675
  38 O     8.0000    0    15.999   28.655818  -63.382231    4.300033
  39 O     8.0000    0    15.999   41.243294  -63.862709   -4.812228
  40 O     8.0000    0    15.999   38.726274  -66.152243   -1.118948
  41 C     6.0000    0    12.011   42.727074  -62.951363   -6.825696
  42 H     1.0000    0     1.008   36.317022  -58.416427    5.831003
  43 H     1.0000    0     1.008   36.182017  -58.396463   -2.182124
  44 H     1.0000    0     1.008   32.246024  -58.556418    0.406168
  45 H     1.0000    0     1.008   32.485950  -59.331574    3.653793
  46 H     1.0000    0     1.008   34.774047  -62.645360   -0.424843
  47 H     1.0000    0     1.008   31.002524  -65.494561    0.330936
  48 H     1.0000    0     1.008   30.112362  -60.693520   -2.748378
  49 H     1.0000    0     1.008   28.637204  -63.637858   -3.208969
  50 H     1.0000    0     1.008   32.436822  -67.373942   -3.147790
  51 H     1.0000    0     1.008   36.291109  -61.217726   -8.974161
  52 H     1.0000    0     1.008   32.995217  -59.848718   -5.963171
  53 H     1.0000    0     1.008   33.034563  -63.910676    4.914634
  54 H     1.0000    0     1.008   36.168263  -63.093656    4.033341
  55 H     1.0000    0     1.008   28.422423  -60.548045    1.818728
  56 H     1.0000    0     1.008   26.853474  -63.343848    0.851895
  57 H     1.0000    0     1.008   38.290566  -67.586214   -9.187774
  58 H     1.0000    0     1.008   44.841204  -56.321862   -1.520488
  59 H     1.0000    0     1.008   46.389625  -58.793146    3.487802
  60 H     1.0000    0     1.008   49.127633  -54.864100    0.026136
  61 H     1.0000    0     1.008   47.693555  -54.104594    2.979347
  62 H     1.0000    0     1.008   45.045711  -51.527763    0.521592
  63 H     1.0000    0     1.008   44.752842  -60.454530   -3.209892
  64 H     1.0000    0     1.008   40.088148  -64.969300    3.468827
  65 H     1.0000    0     1.008   43.289805  -61.761985    4.610172
  66 H     1.0000    0     1.008   40.788399  -56.014947   -6.491654
  67 H     1.0000    0     1.008   38.949246  -58.618189   -5.378136
  68 H     1.0000    0     1.008   37.807086  -55.462385   -5.042280
  69 H     1.0000    0     1.008   39.536544  -59.057308    8.750409
  70 H     1.0000    0     1.008   41.480117  -56.555806    9.889785
  71 H     1.0000    0     1.008   38.353783  -55.896868    8.837201
  72 H     1.0000    0     1.008   35.560236  -70.479372   -2.571414
  73 H     1.0000    0     1.008   33.232073  -71.403884   -4.841306
  74 H     1.0000    0     1.008   36.316720  -72.741412   -4.949835
  75 H     1.0000    0     1.008   48.421493  -59.750709   -1.326875
  76 H     1.0000    0     1.008   36.081643  -66.589673    1.476428
  77 H     1.0000    0     1.008   28.901127  -65.187886    4.340584
  78 H     1.0000    0     1.008   38.688064  -66.264625   -2.945941
  79 H     1.0000    0     1.008   41.869817  -63.726383   -8.527516
  80 H     1.0000    0     1.008   42.693808  -60.888203   -6.923475
  81 H     1.0000    0     1.008   44.683136  -63.603836   -6.662950

--------------------------------
INTERNAL COORDINATES (ANGSTROEM)
--------------------------------
 C      0   0   0     0.000000000000     0.00000000     0.00000000
 C      1   0   0     1.399867847169     0.00000000     0.00000000
 C      2   1   0     1.404238274373   119.21703317     0.00000000
 C      3   2   1     1.387677506021   120.26519968   358.88258783
 C      4   3   2     1.385566656564   120.31644030     1.31723055
 C      5   4   3     1.385670840546   119.51542594     0.03909174
 C      5   4   3     1.502255889210   121.28033615   178.96898556
 C      7   5   4     1.535267956629   110.72989391   256.60836367
 C      8   7   5     1.540695178336   114.15877351   199.67956046
 C      9   8   7     1.537368695511   111.40391187    79.15739994
 C     10   9   8     1.504400868340   113.91429388    54.59008972
 C     11  10   9     1.393333789742   120.19126907    54.08059617
 C     12  11  10     1.381530471049   120.72517861   178.63776787
 C     13  12  11     1.405258603468   119.94625824   358.31824684
 C     14  13  12     1.382256069086   119.30111734     2.18245786
 C     11  10   9     1.385435754414   121.01245697   232.76857691
 C      8   7   5     1.535945454803   110.08468559    74.48432425
 C      9   8   7     1.535799359420   114.48191901   315.13230076
 O      3   2   1     1.361957459642   115.04139549   178.82905505
 O      1   2   3     1.370916975757   117.21640578   179.47385314
 O      2   1   3     1.374800505022   124.58952946   185.88542839
 O     14  13  12     1.361779703463   120.15541907   182.31840997
 O     13  12  11     1.378906623741   125.50634229   178.42354518
 C     21   2   1     1.418732811267   120.43237710   305.61547185
 C     24  21   2     1.549875744515   111.65567951   293.40399288
 C     25  24  21     1.510713361996   110.62089839    69.08758414
 C     24  21   2     1.534362285069   104.49703208   173.33718086
 O     27  24  21     1.401800268336   111.23348512   295.07310409
 C     26  25  24     1.393237392729   119.40927821    65.29233876
 C     29  26  25     1.381627188307   120.53182011   181.62429009
 C     30  29  26     1.403034164770   119.55664149   359.10529322
 C     31  30  29     1.382019511142   119.81163668   358.80523445
 C     26  25  24     1.383949998051   121.21981161   244.56625856
 C     20   1   2     1.407654193097   118.11598063   185.37236490
 C     19   3   2     1.405941984703   118.33655584   179.09339800
 C     23  13  12     1.407864303993   118.04663942   357.78467663
 O     25  24  21     1.410722810648   110.97621632   194.02694888
 O     17   8   7     1.408061123582   112.35799025   186.94418323
 O     18   9   8     1.405890505579   114.34307783   298.89321815
 O     30  29  26     1.374001212972   125.67969479   179.33287067
 O     31  30  29     1.367410188341   119.72877373   179.49517674
 C     40  30  29     1.408666110572   118.33672814     8.01031695
 H      4   3   2     1.077780296722   120.70996436   181.24315602
 H      6   5   4     1.077685445921   118.47290607   179.41211905
 H      7   5   4     1.091330580667   108.70964845   136.85110214
 H      7   5   4     1.090001587239   110.33344941    17.86503905
 H      8   7   5     1.096965095981   107.92063047   318.21419509
 H      9   8   7     1.096900676661   106.00169234   197.10529150
 H     10   9   8     1.091559092794   109.30512672   292.17408101
 H     10   9   8     1.094499252417   108.42130055   175.61655693
 H     12  11  10     1.077283758665   119.22297990   358.53232879
 H     15  14  13     1.078498961153   118.67079449   179.78738301
 H     16  11  10     1.080184862947   119.77267568     1.35147416
 H     17   8   7     1.091399250800   110.39259706    68.36514937
 H     17   8   7     1.097855302937   108.46269177   309.69090939
 H     18   9   8     1.091537970931   110.96436859    58.08007642
 H     18   9   8     1.102105043172   108.29886170   176.16174774
 H     22  14  13     0.967164686319   107.53982103     0.84893019
 H     24  21   2     1.097561762086   110.34991704    56.16533208
 H     25  24  21     1.094517835247   107.92308281   308.94831171
 H     27  24  21     1.090852928074   110.34624880   176.44132775
 H     27  24  21     1.098361907273   108.21847856    57.15995317
 H     28  27  24     0.965587187463   106.73070387    51.71841263
 H     29  26  25     1.079524926711   119.73615562     0.46542101
 H     32  31  30     1.077990978640   118.99712635   182.79825865
 H     33  26  25     1.078412303212   119.68403347   359.18228900
 H     34  20   1     1.089741207100   105.55783288   177.43285626
 H     34  20   1     1.094829267408   111.78915424   296.69927398
 H     34  20   1     1.094203994617   111.37993524    59.22888957
 H     35  19   3     1.095262798228   111.66145281    61.28160127
 H     35  19   3     1.088975613182   105.58568231   179.95778792
 H     35  19   3     1.094679158975   111.67566191   298.54734107
 H     36  23  13     1.093920881802   111.35106586   301.04214386
 H     36  23  13     1.093990009835   111.31556927    63.78750411
 H     36  23  13     1.088764932342   105.60310350   182.27328376
 H     37  25  24     0.964169403950   108.63649346   292.11465509
 H     38  17   8     0.969574398813   107.72159640    64.27043204
 H     39  18   9     0.964527559056   108.38689185   305.86434200
 H     41  31  30     0.968841364369   107.49515414     1.29873730
 H     42  40  30     1.088580521938   105.33567510   179.93845806
 H     42  40  30     1.093144350936   111.63871437   298.45269090
 H     42  40  30     1.094563697782   111.07615155    60.99856697

---------------------------
INTERNAL COORDINATES (A.U.)
---------------------------
 C      0   0   0     0.000000000000     0.00000000     0.00000000
 C      1   0   0     2.645366854831     0.00000000     0.00000000
 C      2   1   0     2.653625765336   119.21703317     0.00000000
 C      3   2   1     2.622330448582   120.26519968   358.88258783
 C      4   3   2     2.618341521198   120.31644030     1.31723055
 C      5   4   3     2.618538400392   119.51542594     0.03909174
 C      5   4   3     2.838852213678   121.28033615   178.96898556
 C      7   5   4     2.901235980213   110.72989391   256.60836367
 C      8   7   5     2.911491942907   114.15877351   199.67956046
 C      9   8   7     2.905205801379   111.40391187    79.15739994
 C     10   9   8     2.842905636796   113.91429388    54.59008972
 C     11  10   9     2.633019275751   120.19126907    54.08059617
 C     12  11  10     2.610714235951   120.72517861   178.63776787
 C     13  12  11     2.655553907890   119.94625824   358.31824684
 C     14  13  12     2.612085417523   119.30111734     2.18245786
 C     11  10   9     2.618094151985   121.01245697   232.76857691
 C      8   7   5     2.902516266219   110.08468559    74.48432425
 C      9   8   7     2.902240185956   114.48191901   315.13230076
 O      3   2   1     2.573726604774   115.04139549   178.82905505
 O      1   2   3     2.590657636524   117.21640578   179.47385314
 O      2   1   3     2.597996443269   124.58952946   185.88542839
 O     14  13  12     2.573390694278   120.15541907   182.31840997
 O     13  12  11     2.605755883121   125.50634229   178.42354518
 C     21   2   1     2.681016470504   120.43237710   305.61547185
 C     24  21   2     2.928840698740   111.65567951   293.40399288
 C     25  24  21     2.854834521028   110.62089839    69.08758414
 C     24  21   2     2.899524508998   104.49703208   173.33718086
 O     27  24  21     2.649018601612   111.23348512   295.07310409
 C     26  25  24     2.632837111797   119.40927821    65.29233876
 C     29  26  25     2.610897005080   120.53182011   181.62429009
 C     30  29  26     2.651350327951   119.55664149   359.10529322
 C     31  30  29     2.611638387794   119.81163668   358.80523445
 C     26  25  24     2.615286479358   121.21981161   244.56625856
 C     20   1   2     2.660080916220   118.11598063   185.37236490
 C     19   3   2     2.656845311270   118.33655584   179.09339800
 C     23  13  12     2.660477968271   118.04663942   357.78467663
 O     25  24  21     2.665879763001   110.97621632   194.02694888
 O     17   8   7     2.660849903391   112.35799025   186.94418323
 O     18   9   8     2.656748029824   114.34307783   298.89321815
 O     30  29  26     2.596486000192   125.67969479   179.33287067
 O     31  30  29     2.584030768699   119.72877373   179.49517674
 C     40  30  29     2.661993163118   118.33672814     8.01031695
 H      4   3   2     2.036709593341   120.70996436   181.24315602
 H      6   5   4     2.036530351304   118.47290607   179.41211905
 H      7   5   4     2.062315919034   108.70964845   136.85110214
 H      7   5   4     2.059804485422   110.33344941    17.86503905
 H      8   7   5     2.072963609874   107.92063047   318.21419509
 H      9   8   7     2.072841875003   106.00169234   197.10529150
 H     10   9   8     2.062747744373   109.30512672   292.17408101
 H     10   9   8     2.068303840850   108.42130055   175.61655693
 H     12  11  10     2.035771272398   119.22297990   358.53232879
 H     15  14  13     2.038067672299   118.67079449   179.78738301
 H     16  11  10     2.041253564976   119.77267568     1.35147416
 H     17   8   7     2.062445686780   110.39259706    68.36514937
 H     17   8   7     2.074645857224   108.46269177   309.69090939
 H     18   9   8     2.062707829835   110.96436859    58.08007642
 H     18   9   8     2.082676702408   108.29886170   176.16174774
 H     22  14  13     1.827676383543   107.53982103     0.84893019
 H     24  21   2     2.074091145407   110.34991704    56.16533208
 H     25  24  21     2.068338957309   107.92308281   308.94831171
 H     27  24  21     2.061413286446   110.34624880   176.44132775
 H     27  24  21     2.075603200678   108.21847856    57.15995317
 H     28  27  24     1.824695342728   106.73070387    51.71841263
 H     29  26  25     2.040006466225   119.73615562     0.46542101
 H     32  31  30     2.037107724468   118.99712635   182.79825865
 H     33  26  25     2.037903912522   119.68403347   359.18228900
 H     34  20   1     2.059312438268   105.55783288   177.43285626
 H     34  20   1     2.068927478802   111.78915424   296.69927398
 H     34  20   1     2.067745884468   111.37993524    59.22888957
 H     35  19   3     2.069746733324   111.66145281    61.28160127
 H     35  19   3     2.057865675433   105.58568231   179.95778792
 H     35  19   3     2.068643814974   111.67566191   298.54734107
 H     36  23  13     2.067210878783   111.35106586   301.04214386
 H     36  23  13     2.067341511834   111.31556927    63.78750411
 H     36  23  13     2.057467546345   105.60310350   182.27328376
 H     37  25  24     1.822016120172   108.63649346   292.11465509
 H     38  17   8     1.832230080219   107.72159640    64.27043204
 H     39  18   9     1.822692935235   108.38689185   305.86434200
 H     41  31  30     1.830844845873   107.49515414     1.29873730
 H     42  40  30     2.057119061184   105.33567510   179.93845806
 H     42  40  30     2.065743448112   111.63871437   298.45269090
 H     42  40  30     2.068425624941   111.07615155    60.99856697

---------------------
BASIS SET INFORMATION
---------------------
There are 3 groups of distinct atoms

 Group   1 Type C   : 11s6p2d1f contracted to 5s3p2d1f pattern {62111/411/11/1}
 Group   2 Type O   : 11s6p2d1f contracted to 5s3p2d1f pattern {62111/411/11/1}
 Group   3 Type H   : 5s1p contracted to 3s1p pattern {311/1}

Atom   0C    basis set group =>   1
Atom   1C    basis set group =>   1
Atom   2C    basis set group =>   1
Atom   3C    basis set group =>   1
Atom   4C    basis set group =>   1
Atom   5C    basis set group =>   1
Atom   6C    basis set group =>   1
Atom   7C    basis set group =>   1
Atom   8C    basis set group =>   1
Atom   9C    basis set group =>   1
Atom  10C    basis set group =>   1
Atom  11C    basis set group =>   1
Atom  12C    basis set group =>   1
Atom  13C    basis set group =>   1
Atom  14C    basis set group =>   1
Atom  15C    basis set group =>   1
Atom  16C    basis set group =>   1
Atom  17C    basis set group =>   1
Atom  18O    basis set group =>   2
Atom  19O    basis set group =>   2
Atom  20O    basis set group =>   2
Atom  21O    basis set group =>   2
Atom  22O    basis set group =>   2
Atom  23C    basis set group =>   1
Atom  24C    basis set group =>   1
Atom  25C    basis set group =>   1
Atom  26C    basis set group =>   1
Atom  27O    basis set group =>   2
Atom  28C    basis set group =>   1
Atom  29C    basis set group =>   1
Atom  30C    basis set group =>   1
Atom  31C    basis set group =>   1
Atom  32C    basis set group =>   1
Atom  33C    basis set group =>   1
Atom  34C    basis set group =>   1
Atom  35C    basis set group =>   1
Atom  36O    basis set group =>   2
Atom  37O    basis set group =>   2
Atom  38O    basis set group =>   2
Atom  39O    basis set group =>   2
Atom  40O    basis set group =>   2
Atom  41C    basis set group =>   1
Atom  42H    basis set group =>   3
Atom  43H    basis set group =>   3
Atom  44H    basis set group =>   3
Atom  45H    basis set group =>   3
Atom  46H    basis set group =>   3
Atom  47H    basis set group =>   3
Atom  48H    basis set group =>   3
Atom  49H    basis set group =>   3
Atom  50H    basis set group =>   3
Atom  51H    basis set group =>   3
Atom  52H    basis set group =>   3
Atom  53H    basis set group =>   3
Atom  54H    basis set group =>   3
Atom  55H    basis set group =>   3
Atom  56H    basis set group =>   3
Atom  57H    basis set group =>   3
Atom  58H    basis set group =>   3
Atom  59H    basis set group =>   3
Atom  60H    basis set group =>   3
Atom  61H    basis set group =>   3
Atom  62H    basis set group =>   3
Atom  63H    basis set group =>   3
Atom  64H    basis set group =>   3
Atom  65H    basis set group =>   3
Atom  66H    basis set group =>   3
Atom  67H    basis set group =>   3
Atom  68H    basis set group =>   3
Atom  69H    basis set group =>   3
Atom  70H    basis set group =>   3
Atom  71H    basis set group =>   3
Atom  72H    basis set group =>   3
Atom  73H    basis set group =>   3
Atom  74H    basis set group =>   3
Atom  75H    basis set group =>   3
Atom  76H    basis set group =>   3
Atom  77H    basis set group =>   3
Atom  78H    basis set group =>   3
Atom  79H    basis set group =>   3
Atom  80H    basis set group =>   3
Atom  81H    basis set group =>   3
---------------------------------
AUXILIARY/J BASIS SET INFORMATION
---------------------------------
There are 3 groups of distinct atoms

 Group   1 Type C   : 12s5p4d2f1g contracted to 6s4p3d1f1g pattern {711111/2111/211/2/1}
 Group   2 Type O   : 12s5p4d2f1g contracted to 6s4p3d1f1g pattern {711111/2111/211/2/1}
 Group   3 Type H   : 5s2p1d contracted to 3s1p1d pattern {311/2/1}

Atom   0C    basis set group =>   1
Atom   1C    basis set group =>   1
Atom   2C    basis set group =>   1
Atom   3C    basis set group =>   1
Atom   4C    basis set group =>   1
Atom   5C    basis set group =>   1
Atom   6C    basis set group =>   1
Atom   7C    basis set group =>   1
Atom   8C    basis set group =>   1
Atom   9C    basis set group =>   1
Atom  10C    basis set group =>   1
Atom  11C    basis set group =>   1
Atom  12C    basis set group =>   1
Atom  13C    basis set group =>   1
Atom  14C    basis set group =>   1
Atom  15C    basis set group =>   1
Atom  16C    basis set group =>   1
Atom  17C    basis set group =>   1
Atom  18O    basis set group =>   2
Atom  19O    basis set group =>   2
Atom  20O    basis set group =>   2
Atom  21O    basis set group =>   2
Atom  22O    basis set group =>   2
Atom  23C    basis set group =>   1
Atom  24C    basis set group =>   1
Atom  25C    basis set group =>   1
Atom  26C    basis set group =>   1
Atom  27O    basis set group =>   2
Atom  28C    basis set group =>   1
Atom  29C    basis set group =>   1
Atom  30C    basis set group =>   1
Atom  31C    basis set group =>   1
Atom  32C    basis set group =>   1
Atom  33C    basis set group =>   1
Atom  34C    basis set group =>   1
Atom  35C    basis set group =>   1
Atom  36O    basis set group =>   2
Atom  37O    basis set group =>   2
Atom  38O    basis set group =>   2
Atom  39O    basis set group =>   2
Atom  40O    basis set group =>   2
Atom  41C    basis set group =>   1
Atom  42H    basis set group =>   3
Atom  43H    basis set group =>   3
Atom  44H    basis set group =>   3
Atom  45H    basis set group =>   3
Atom  46H    basis set group =>   3
Atom  47H    basis set group =>   3
Atom  48H    basis set group =>   3
Atom  49H    basis set group =>   3
Atom  50H    basis set group =>   3
Atom  51H    basis set group =>   3
Atom  52H    basis set group =>   3
Atom  53H    basis set group =>   3
Atom  54H    basis set group =>   3
Atom  55H    basis set group =>   3
Atom  56H    basis set group =>   3
Atom  57H    basis set group =>   3
Atom  58H    basis set group =>   3
Atom  59H    basis set group =>   3
Atom  60H    basis set group =>   3
Atom  61H    basis set group =>   3
Atom  62H    basis set group =>   3
Atom  63H    basis set group =>   3
Atom  64H    basis set group =>   3
Atom  65H    basis set group =>   3
Atom  66H    basis set group =>   3
Atom  67H    basis set group =>   3
Atom  68H    basis set group =>   3
Atom  69H    basis set group =>   3
Atom  70H    basis set group =>   3
Atom  71H    basis set group =>   3
Atom  72H    basis set group =>   3
Atom  73H    basis set group =>   3
Atom  74H    basis set group =>   3
Atom  75H    basis set group =>   3
Atom  76H    basis set group =>   3
Atom  77H    basis set group =>   3
Atom  78H    basis set group =>   3
Atom  79H    basis set group =>   3
Atom  80H    basis set group =>   3
Atom  81H    basis set group =>   3
--------------------------------------------------------------------------
WARNING: There was an error initializing an OpenFabrics device.

  Local host:   c04b01n01
  Local device: mlx5_0
--------------------------------------------------------------------------
--------------------------------------------------------------------------
WARNING: There is at least one non-excluded one OpenFabrics device found,
but there are no active ports detected (or Open MPI was unable to use
them).  This is most certainly not what you wanted.  Check your
cables, subnet manager configuration, etc.  The openib BTL will be
ignored for this job.

  Local host: c04b01n01
--------------------------------------------------------------------------


           ************************************************************
           *        Program running with 64 parallel MPI-processes    *
           *              working on a common directory               *
           ************************************************************
------------------------------------------------------------------------------
                             ORCA STARTUP CALCULATIONS
                           -- RI-GTO INTEGRALS CHOSEN --
------------------------------------------------------------------------------
------------------------------------------------------------------------------
                   ___                                                        
                  /   \      - P O W E R E D   B Y -                         
                 /     \                                                     
                 |  |  |   _    _      __       _____    __    __             
                 |  |  |  | |  | |    /  \     |  _  \  |  |  /  |          
                  \  \/   | |  | |   /    \    | | | |  |  | /  /          
                 / \  \   | |__| |  /  /\  \   | |_| |  |  |/  /          
                |  |  |   |  __  | /  /__\  \  |    /   |      \           
                |  |  |   | |  | | |   __   |  |    \   |  |\   \          
                \     /   | |  | | |  |  |  |  | |\  \  |  | \   \       
                 \___/    |_|  |_| |__|  |__|  |_| \__\ |__|  \__/        
                                                                              
                      - O R C A' S   B I G   F R I E N D -                    
                                      &                                       
                       - I N T E G R A L  F E E D E R -                       
                                                                              
 v1 FN, 2020, v2 2021, v3 2022-2024                                           
------------------------------------------------------------------------------


[c04b01n01:2408078] 60 more processes have sent help message help-mpi-btl-openib.txt / error in device init
[c04b01n01:2408078] Set MCA parameter "orte_base_help_aggregate" to 0 to see all help / error messages
[c04b01n01:2408078] 2 more processes have sent help message help-mpi-btl-openib.txt / no active ports found
----------------------
SHARK INTEGRAL PACKAGE
----------------------

Number of atoms                             ...     82
Number of basis functions                   ...   1542
Number of shells                            ...    622
Maximum angular momentum                    ...      3
Integral batch strategy                     ... SHARK/LIBINT Hybrid
RI-J (if used) integral strategy            ... SPLIT-RIJ (Revised 2003 algorithm where possible)
Printlevel                                  ...      1
Contraction scheme used                     ... SEGMENTED contraction
Prescreening option                         ... SCHWARTZ
   Thresh                                   ... 2.500e-11
   Tcut                                     ... 2.500e-12
   Tpresel                                  ... 2.500e-12 
Coulomb Range Separation                    ... NOT USED
Exchange Range Separation                   ... NOT USED
Multipole approximations                    ... NOT USED
Finite Nucleus Model                        ... NOT USED
CABS basis                                  ... NOT available
Auxiliary Coulomb fitting basis             ... AVAILABLE
   # of basis functions in Aux-J            ...   2498
   # of shells in Aux-J                     ...    830
   Maximum angular momentum in Aux-J        ...      4
Auxiliary J/K fitting basis                 ... NOT available
Auxiliary Correlation fitting basis         ... NOT available
Auxiliary 'external' fitting basis          ... NOT available

Checking pre-screening integrals            ... done (  0.0 sec) Dimension = 622
   => SHARK Basis and OBASIS are compatible. Storing Pre-screening
Shell pair information
Shell pair cut-off parameter TPreSel        ...   2.5e-12
Total number of shell pairs                 ...    193753
Shell pairs after pre-screening             ...    116394
Total number of primitive shell pairs       ...    584784
Primitive shell pairs kept                  ...    219606
          la=0 lb=0:  32428 shell pairs
          la=1 lb=0:  34712 shell pairs
          la=1 lb=1:   9415 shell pairs
          la=2 lb=0:  15775 shell pairs
          la=2 lb=1:   8674 shell pairs
          la=2 lb=2:   1993 shell pairs
          la=3 lb=0:   7193 shell pairs
          la=3 lb=1:   4015 shell pairs
          la=3 lb=2:   1765 shell pairs
          la=3 lb=3:    424 shell pairs

Checking whether 4 symmetric matrices of dimension 1542 fit in memory
:Max Core in MB      =   6000.00
 MB in use           =    139.51
 MB left             =   5860.49
 MB needed           =     36.31
 Data fit in memory  = YES
Calculating RI/J V-Matrix + Cholesky decomp.... done (  1.0 sec)
Calculating Nuclear repulsion               ... done (  0.0 sec) ENN=   5760.752850925659 Eh

Diagonalization of the overlap matrix:
Smallest eigenvalue                        ... 3.195e-06
Time for diagonalization                   ...    0.690 sec
Threshold for overlap eigenvalues          ... 1.000e-07
Number of eigenvalues below threshold      ... 0
Time for construction of square roots      ...    0.495 sec
Total time needed                          ...    1.252 sec

-------------------
DFT GRID GENERATION
-------------------

General Integration Accuracy     IntAcc      ... 4.388
Radial Grid Type                 RadialGrid  ... OptM3 with GC (2021)
Angular Grid (max. ang.)         AngularGrid ... 4 (Lebedev-302)
Angular grid pruning method      GridPruning ... 4 (adaptive)
Weight generation scheme         WeightScheme... mBecke (2022)
Basis function cutoff            BFCut       ... 1.0000e-11
Integration weight cutoff        WCut        ... 1.0000e-14
Partially contracted basis set               ... off
Rotationally invariant grid construction     ... off
Angular grids for H and He will be reduced by one unit

Total number of grid points                  ...   373531
Total number of batches                      ...     5878
Average number of points per batch           ...       63
Average number of grid points per atom       ...     4555

--------------------
COSX GRID GENERATION
--------------------

GRIDX 1
-------
General Integration Accuracy     IntAcc      ... 3.816
Radial Grid Type                 RadialGrid  ... OptM3 with GC (2021)
Angular Grid (max. ang.)         AngularGrid ... 1 (Lebedev-50)
Angular grid pruning method      GridPruning ... 4 (adaptive)
Weight generation scheme         WeightScheme... mBecke (2022)
Basis function cutoff            BFCut       ... 1.0000e-11
Integration weight cutoff        WCut        ... 1.0000e-14
Partially contracted basis set               ... on
Rotationally invariant grid construction     ... off
Angular grids for H and He will be reduced by one unit

Total number of grid points                  ...    47252
Total number of batches                      ...      414
Average number of points per batch           ...      114
Average number of grid points per atom       ...      576
UseSFitting                                  ... on

GRIDX 2
-------
General Integration Accuracy     IntAcc      ... 4.020
Radial Grid Type                 RadialGrid  ... OptM3 with GC (2021)
Angular Grid (max. ang.)         AngularGrid ... 2 (Lebedev-110)
Angular grid pruning method      GridPruning ... 4 (adaptive)
Weight generation scheme         WeightScheme... mBecke (2022)
Basis function cutoff            BFCut       ... 1.0000e-11
Integration weight cutoff        WCut        ... 1.0000e-14
Partially contracted basis set               ... on
Rotationally invariant grid construction     ... off
[...]
freq.     627.85  E(vib)   ...       0.09 
freq.     642.78  E(vib)   ...       0.09 
freq.     658.45  E(vib)   ...       0.08 
freq.     664.91  E(vib)   ...       0.08 
freq.     685.39  E(vib)   ...       0.07 
freq.     732.12  E(vib)   ...       0.06 
freq.     744.57  E(vib)   ...       0.06 
freq.     745.47  E(vib)   ...       0.06 
freq.     756.31  E(vib)   ...       0.06 
freq.     759.74  E(vib)   ...       0.06 
freq.     783.44  E(vib)   ...       0.05 
freq.     804.40  E(vib)   ...       0.05 
freq.     812.57  E(vib)   ...       0.05 
freq.     819.47  E(vib)   ...       0.05 
freq.     830.45  E(vib)   ...       0.04 
freq.     842.86  E(vib)   ...       0.04 
freq.     849.07  E(vib)   ...       0.04 
freq.     854.41  E(vib)   ...       0.04 
freq.     872.61  E(vib)   ...       0.04 
freq.     873.68  E(vib)   ...       0.04 
freq.     884.23  E(vib)   ...       0.04 
freq.     910.05  E(vib)   ...       0.03 
freq.     914.52  E(vib)   ...       0.03 
freq.     931.45  E(vib)   ...       0.03 
freq.     943.08  E(vib)   ...       0.03 
freq.     948.45  E(vib)   ...       0.03 
freq.     950.74  E(vib)   ...       0.03 
freq.     961.64  E(vib)   ...       0.03 
freq.     970.28  E(vib)   ...       0.03 
freq.     983.72  E(vib)   ...       0.02 
freq.     998.46  E(vib)   ...       0.02 
freq.    1002.65  E(vib)   ...       0.02 
freq.    1028.03  E(vib)   ...       0.02 
freq.    1031.34  E(vib)   ...       0.02 
freq.    1034.69  E(vib)   ...       0.02 
freq.    1047.99  E(vib)   ...       0.02 
freq.    1049.61  E(vib)   ...       0.02 
freq.    1051.03  E(vib)   ...       0.02 
freq.    1057.65  E(vib)   ...       0.02 
freq.    1061.01  E(vib)   ...       0.02 
freq.    1079.88  E(vib)   ...       0.02 
freq.    1087.52  E(vib)   ...       0.02 
freq.    1093.40  E(vib)   ...       0.02 
freq.    1105.20  E(vib)   ...       0.02 
freq.    1136.84  E(vib)   ...       0.01 
freq.    1140.81  E(vib)   ...       0.01 
freq.    1144.10  E(vib)   ...       0.01 
freq.    1148.79  E(vib)   ...       0.01 
freq.    1169.74  E(vib)   ...       0.01 
freq.    1170.10  E(vib)   ...       0.01 
freq.    1171.31  E(vib)   ...       0.01 
freq.    1172.26  E(vib)   ...       0.01 
freq.    1173.82  E(vib)   ...       0.01 
freq.    1177.37  E(vib)   ...       0.01 
freq.    1179.90  E(vib)   ...       0.01 
freq.    1181.20  E(vib)   ...       0.01 
freq.    1196.18  E(vib)   ...       0.01 
freq.    1201.67  E(vib)   ...       0.01 
freq.    1206.53  E(vib)   ...       0.01 
freq.    1207.15  E(vib)   ...       0.01 
freq.    1213.07  E(vib)   ...       0.01 
freq.    1216.32  E(vib)   ...       0.01 
freq.    1220.65  E(vib)   ...       0.01 
freq.    1228.53  E(vib)   ...       0.01 
freq.    1230.76  E(vib)   ...       0.01 
freq.    1241.89  E(vib)   ...       0.01 
freq.    1243.64  E(vib)   ...       0.01 
freq.    1250.25  E(vib)   ...       0.01 
freq.    1251.69  E(vib)   ...       0.01 
freq.    1261.50  E(vib)   ...       0.01 
freq.    1273.32  E(vib)   ...       0.01 
freq.    1281.55  E(vib)   ...       0.01 
freq.    1288.67  E(vib)   ...       0.01 
freq.    1297.15  E(vib)   ...       0.01 
freq.    1308.96  E(vib)   ...       0.01 
freq.    1312.94  E(vib)   ...       0.01 
freq.    1320.50  E(vib)   ...       0.01 
freq.    1329.19  E(vib)   ...       0.01 
freq.    1343.48  E(vib)   ...       0.01 
freq.    1343.56  E(vib)   ...       0.01 
freq.    1348.70  E(vib)   ...       0.01 
freq.    1358.05  E(vib)   ...       0.01 
freq.    1367.10  E(vib)   ...       0.01 
freq.    1375.83  E(vib)   ...       0.01 
freq.    1377.96  E(vib)   ...       0.01 
freq.    1388.66  E(vib)   ...       0.00 
freq.    1392.21  E(vib)   ...       0.00 
freq.    1396.43  E(vib)   ...       0.00 
freq.    1401.61  E(vib)   ...       0.00 
freq.    1402.18  E(vib)   ...       0.00 
freq.    1407.91  E(vib)   ...       0.00 
freq.    1411.36  E(vib)   ...       0.00 
freq.    1425.27  E(vib)   ...       0.00 
freq.    1426.42  E(vib)   ...       0.00 
freq.    1431.00  E(vib)   ...       0.00 
freq.    1452.02  E(vib)   ...       0.00 
freq.    1459.47  E(vib)   ...       0.00 
freq.    1467.24  E(vib)   ...       0.00 
freq.    1477.51  E(vib)   ...       0.00 
freq.    1479.07  E(vib)   ...       0.00 
freq.    1479.25  E(vib)   ...       0.00 
freq.    1479.80  E(vib)   ...       0.00 
freq.    1481.47  E(vib)   ...       0.00 
freq.    1482.85  E(vib)   ...       0.00 
freq.    1484.61  E(vib)   ...       0.00 
freq.    1486.13  E(vib)   ...       0.00 
freq.    1487.83  E(vib)   ...       0.00 
freq.    1490.08  E(vib)   ...       0.00 
freq.    1490.21  E(vib)   ...       0.00 
freq.    1491.71  E(vib)   ...       0.00 
freq.    1491.89  E(vib)   ...       0.00 
freq.    1494.47  E(vib)   ...       0.00 
freq.    1498.75  E(vib)   ...       0.00 
freq.    1502.19  E(vib)   ...       0.00 
freq.    1507.62  E(vib)   ...       0.00 
freq.    1534.85  E(vib)   ...       0.00 
freq.    1542.70  E(vib)   ...       0.00 
freq.    1549.25  E(vib)   ...       0.00 
freq.    1627.35  E(vib)   ...       0.00 
freq.    1634.02  E(vib)   ...       0.00 
freq.    1642.69  E(vib)   ...       0.00 
freq.    1647.17  E(vib)   ...       0.00 
freq.    1648.93  E(vib)   ...       0.00 
freq.    1652.40  E(vib)   ...       0.00 
freq.    2994.23  E(vib)   ...       0.00 
freq.    2996.20  E(vib)   ...       0.00 
freq.    3010.27  E(vib)   ...       0.00 
freq.    3017.09  E(vib)   ...       0.00 
freq.    3020.40  E(vib)   ...       0.00 
freq.    3022.66  E(vib)   ...       0.00 
freq.    3022.80  E(vib)   ...       0.00 
freq.    3025.17  E(vib)   ...       0.00 
freq.    3027.42  E(vib)   ...       0.00 
freq.    3027.59  E(vib)   ...       0.00 
freq.    3036.40  E(vib)   ...       0.00 
freq.    3053.01  E(vib)   ...       0.00 
freq.    3067.12  E(vib)   ...       0.00 
freq.    3073.51  E(vib)   ...       0.00 
freq.    3077.56  E(vib)   ...       0.00 
freq.    3077.79  E(vib)   ...       0.00 
freq.    3081.70  E(vib)   ...       0.00 
freq.    3085.91  E(vib)   ...       0.00 
freq.    3086.18  E(vib)   ...       0.00 
freq.    3091.18  E(vib)   ...       0.00 
freq.    3102.49  E(vib)   ...       0.00 
freq.    3129.50  E(vib)   ...       0.00 
freq.    3134.91  E(vib)   ...       0.00 
freq.    3138.63  E(vib)   ...       0.00 
freq.    3142.97  E(vib)   ...       0.00 
freq.    3164.74  E(vib)   ...       0.00 
freq.    3170.77  E(vib)   ...       0.00 
freq.    3181.68  E(vib)   ...       0.00 
freq.    3188.03  E(vib)   ...       0.00 
freq.    3196.16  E(vib)   ...       0.00 
freq.    3204.81  E(vib)   ...       0.00 
freq.    3206.27  E(vib)   ...       0.00 
freq.    3210.02  E(vib)   ...       0.00 
freq.    3211.97  E(vib)   ...       0.00 
freq.    3643.34  E(vib)   ...       0.00 
freq.    3703.95  E(vib)   ...       0.00 
freq.    3723.55  E(vib)   ...       0.00 
freq.    3750.87  E(vib)   ...       0.00 
freq.    3766.20  E(vib)   ...       0.00 
freq.    3771.06  E(vib)   ...       0.00 

------------
INNER ENERGY
------------

The inner energy is: U= E(el) + E(ZPE) + E(vib) + E(rot) + E(trans)
    E(el)   - is the total energy from the electronic structure calculation
              = E(kin-el) + E(nuc-el) + E(el-el) + E(nuc-nuc)
    E(ZPE)  - the the zero temperature vibrational energy from the frequency calculation
    E(vib)  - the the finite temperature correction to E(ZPE) due to population
              of excited vibrational states
    E(rot)  - is the rotational thermal energy
    E(trans)- is the translational thermal energy

Summary of contributions to the inner energy U:
Electronic energy                ...  -2032.63341438 Eh
Zero point energy                ...      0.67869106 Eh     425.88 kcal/mol
Thermal vibrational correction   ...      0.04063151 Eh      25.50 kcal/mol
Thermal rotational correction    ...      0.00141627 Eh       0.89 kcal/mol
Thermal translational correction ...      0.00141627 Eh       0.89 kcal/mol
-----------------------------------------------------------------------
Total thermal energy                  -2031.91125927 Eh


Summary of corrections to the electronic energy:
(perhaps to be used in another calculation)
Total thermal correction                  0.04346405 Eh      27.27 kcal/mol
Non-thermal (ZPE) correction              0.67869106 Eh     425.88 kcal/mol
-----------------------------------------------------------------------
Total correction                          0.72215511 Eh     453.16 kcal/mol


--------
ENTHALPY
--------

The enthalpy is H = U + kB*T
                kB is Boltzmann's constant
Total thermal energy              ...  -2031.91125927 Eh 
Thermal Enthalpy correction       ...      0.00094421 Eh       0.59 kcal/mol
-----------------------------------------------------------------------
Total Enthalpy                    ...  -2031.91031506 Eh


Note: Only C1 symmetry has been detected, increase convergence thresholds 
      if your molecule has a higher symmetry. Symmetry factor of 1.0 is   
      used for the rotational entropy correction. 
 

Note: Rotational entropy computed according to Herzberg 
Infrared and Raman Spectra, Chapter V,1, Van Nostrand Reinhold, 1945 
Point Group:  C1, Symmetry Number:   1  
Rotational constants in cm-1:     0.003961     0.002229     0.001840 

Vibrational entropy computed according to the QRRHO of S. Grimme
Chem.Eur.J. 2012 18 9955 using a reference frequency of 100.0 cm-1


-------
ENTROPY
-------

The entropy contributions are T*S = T*(S(el)+S(vib)+S(rot)+S(trans))
     S(el)   - electronic entropy
     S(vib)  - vibrational entropy
     S(rot)  - rotational entropy
     S(trans)- translational entropy
The entropies will be listed as multiplied by the temperature to get
units of energy

Electronic entropy                ...      0.00000000 Eh      0.00 kcal/mol
Vibrational entropy               ...      0.07272701 Eh     45.64 kcal/mol
Rotational entropy                ...      0.01797794 Eh     11.28 kcal/mol
Translational entropy             ...      0.02138181 Eh     13.42 kcal/mol
-----------------------------------------------------------------------
Final entropy term                ...      0.11208677 Eh     70.34 kcal/mol

In case the symmetry of your molecule has not been determined correctly
or in case you have a reason to use a different symmetry number we print 
out the resulting rotational entropy values for sn=1,12:

 non-linear molecules -----------------------------------
|  sn= 1 | S(rot)=       0.01797794 Eh     11.28 kcal/mol|
|  sn= 2 | S(rot)=       0.01732348 Eh     10.87 kcal/mol|
|  sn= 3 | S(rot)=       0.01694065 Eh     10.63 kcal/mol|
|  sn= 4 | S(rot)=       0.01666903 Eh     10.46 kcal/mol|
|  sn= 5 | S(rot)=       0.01645834 Eh     10.33 kcal/mol|
|  sn= 6 | S(rot)=       0.01628620 Eh     10.22 kcal/mol|
|  sn= 7 | S(rot)=       0.01614065 Eh     10.13 kcal/mol|
|  sn= 8 | S(rot)=       0.01601457 Eh     10.05 kcal/mol|
|  sn= 9 | S(rot)=       0.01590336 Eh      9.98 kcal/mol|
|  sn=10 | S(rot)=       0.01580388 Eh      9.92 kcal/mol|
|  sn=11 | S(rot)=       0.01571389 Eh      9.86 kcal/mol|
|  sn=12 | S(rot)=       0.01563174 Eh      9.81 kcal/mol|
 linear molecules ---------------------------------------
|  Dinfh | S(rot)=       0.01127200 Eh      7.07 kcal/mol|
|  Cinfv | S(rot)=       0.01192646 Eh      7.48 kcal/mol|
 --------------------------------------------------------


-------------------
GIBBS FREE ENERGY
-------------------

The Gibbs free energy is G = H - T*S

Total enthalpy                    ...  -2031.91031506 Eh 
Total entropy correction          ...     -0.11208677 Eh    -70.34 kcal/mol
-----------------------------------------------------------------------
Final Gibbs free energy         ...  -2032.02240183 Eh

For completeness - the Gibbs free energy minus the electronic energy
G-E(el)                           ...      0.61101255 Eh    383.42 kcal/mol


Maximum memory used throughout the entire PROP-calculation: 1821.5 MB
--------------------------------------------------------------------------
WARNING: There is at least one non-excluded one OpenFabrics device found,
but there are no active ports detected (or Open MPI was unable to use
them).  This is most certainly not what you wanted.  Check your
cables, subnet manager configuration, etc.  The openib BTL will be
ignored for this job.

  Local host: c04b01n01
--------------------------------------------------------------------------
--------------------------------------------------------------------------
WARNING: There was an error initializing an OpenFabrics device.

  Local host:   c04b01n01
  Local device: mlx5_0
--------------------------------------------------------------------------
[c04b01n01:2499799] 3 more processes have sent help message help-mpi-btl-openib.txt / no active ports found
[c04b01n01:2499799] Set MCA parameter "orte_base_help_aggregate" to 0 to see all help / error messages
[c04b01n01:2499799] 59 more processes have sent help message help-mpi-btl-openib.txt / error in device init

--------------------------------
SUGGESTED CITATIONS FOR THIS RUN
--------------------------------

Below you find a list of papers that are relevant to this ORCA run
We neither can nor want to force you to cite these papers, but we appreciate if you do
You receive ORCA, which is the product of decades of hard work by many enthusiastic individuals, for free
The only thing we kindly ask in return is that you cite our papers,
We deeply appreciate it, if you show your appreciation for ORCA by not just citing the generic ORCA reference.

Please note that relegating all ORCA citations to the supporting information does *not* help us.
SI sections are not indexed - citations you put there will not count into any citation statistics
But we need these citations in order to attract the funding resources that allow us to do what we are doing

Therefore, if you are a happy ORCA user, please consider citing a few of the papers listed below in the main body of your paper

In addition to the list printed below, the program has created the file opt-conf-8.bibtex that contains the list in bibtex format
You can import this file easily into all common literature databanks and citation aid programs


List of essential papers. We consider these as the minimum necessary citations

  1. Neese, F.
     Software update: the ORCA program system, version 6.0
     WIRES Comput. Molec. Sci. 2025 15(1), e70019
     doi.org/10.1002/wcms.7019

List of papers to cite with high priority. The work reported in these papers was absolutely
necessary for this run to complete.
Our perspective: the developers of density functionals and basis sets usually get cited in chemistry papers
Good! But without the algorithms to do something with them, the functionals or basis sets would not do anything.
Hence, in our opinion, the algorithm design and method developments papers are equally worthy of getting cited

  1. Neese, F.
     An improvement of the resolution of the identity approximation for the formation of the Coulomb matrix
     J. Comp. Chem. 2003 24(14), 1740-1747
     doi.org/10.1002/jcc.10318
  2. Neese, F.; Wennmohs, F.; Hansen, A.; Becker, U.
     Efficient, approximate and parallel Hartree-Fock and hybrid DFT calculations. A 'chain-of-spheres' algorithm for the Hartree-Fock exchange
     Chem. Phys. 2009 356(1-3), 98-109
     doi.org/10.1016/j.chemphys.2008.10.036
  3. Bykov, D.; Petrenko, T.; Izsak, R.; Kossmann, S.; Becker, U.; Valeev, E.; Neese, F.
     Efficient implementation of the analytic second derivatives of Hartree-Fock and hybrid DFT energies: a detailed analysis of different approximations
     Molec. Phys. 2015 113 , 1961-1977
     doi.org/10.1080/00268976.2015.1025114
  4. Caldeweyher, E.; Bannwarth, C.; Grimme, S.
     Extension of the D3 dispersion coefficient model
     J. Chem. Phys. 2017 147 , 034112
     doi.org/10.1063/1.4993215
  5. Caldeweyher, E.; Ehlert, S.; Hansen, A.; Neugebauer, H.; Spicher, S.; Bannwarth, C.; Grimme, S.
     A generally applicable atomic-charge dependent London dispersion correction
     J. Chem. Phys. 2019 150 , 154122
     doi.org/10.1063/1.5090222
  6. Garcia-Rates, M.; Neese, F.
     Efficient implementation of the analytical second derivatives of hartree-fock and hybrid DFT energies within the framework of the conductor-like polarizable continuum model
     J. Comput. Chem. 2019 40 , 1816-1828
     doi.org/10.1002/jcc.25833
  7. Caldeweyher, E.; Mewes, J.; Ehlert, S.; Grimme, S.
     Extension and evaluation of the D4 London-dispersion model for periodic systems
     Phys. Chem. Chem. Phys. 2020 22(16), 8499-8512
     doi.org/10.1039/D0CP00502A
  8. Garcia-Rates, M.; Neese, F.
     Effect of the Solute Cavity on the Solvation Energy and its Derivatives within the Framework of the Gaussian Charge Scheme
     J. Comput. Chem. 2020 41 , 922-939
     doi.org/10.1002/jcc.26139
  9. Helmich-Paris, B.; de Souza, B.; Neese, F.; Izsák, R.
     An improved chain of spheres for exchange algorithm
     J. Chem. Phys. 2021 155(10), 104109
     doi.org/10.1063/5.0058766
 10. Neese, F.
     The SHARK Integral Generation and Digestion System
     J. Comp. Chem. 2022 44(3), 381
     doi.org/10.1002/jcc.26942
 11. Wittmann, L.; Gordiy, I.; Friede, M.; Helmich-Paris, B.; Grimme, S.; Hansen, A.; Bursch, M.
     Extension of the D3 and D4 London Dispersion Corrections to the full Actinides Series
     Phys. Chem. Chem. Phys. 2024 26(32), 21379-21394
     doi.org/10.1039/D4CP01514B

List of suggested additional citations. These are papers that are important in the 'surrounding' of 
of this run, or papers that preceded the highly important papers. If you like your results we are grateful for a citation.

  1. Izsak, R.; Neese, F.
     An overlap fitted chain of spheres exchange method
     J. Chem. Phys. 2011 135 , 144105
     doi.org/10.1063/1.3646921
  2. Izsak, R.; Hansen, A.; Neese, F.
     The resolution of identity and chain of spheres approximations for the LPNO-CCSD singles Fock term
     Molec. Phys. 2012 110 , 2413-2417
     doi.org/10.1080/00268976.2012.687466
  3. Neese, F.
     The ORCA program system
     WIRES Comput. Molec. Sci. 2012 2(1), 73-78
     doi.org/10.1002/wcms.81
  4. Izsak, R.; Neese, F.; Klopper, W.
     Robust fitting techniques in the chain of spheres approximation to the Fock exchange: The role of the complementary space
     J. Chem. Phys. 2013 139 , 
     doi.org/10.1063/1.4819264
  5. Neese, F.
     Software update: the ORCA program system, version 4.0
     WIRES Comput. Molec. Sci. 2018 8(1), 1-6
     doi.org/10.1002/wcms.1327
  6. Neese, F.; Wennmohs, F.; Becker, U.; Riplinger, C.
     The ORCA quantum chemistry program package
     J. Chem. Phys. 2020 152(22), 224108
     doi.org/10.1063/5.0004608
  7. Neese, F.
     Software update: The ORCA program system—Version 5.0
     WIRES Comput. Molec. Sci. 2022 12(1), e1606
     doi.org/10.1002/wcms.1606

List of optional additional citations

  1. Neese, F.
     Approximate second-order SCF convergence for spin unrestricted wavefunctions
     Chem. Phys. Lett. 2000 325(1-3), 93-98
     doi.org/10.1016/s0009-2614(00)00662-x

Timings for individual modules:

Sum of individual times          ...     7295.834 sec (= 121.597 min)
Startup calculation              ...      385.164 sec (=   6.419 min)   5.3 %
SCF iterations                   ...     2290.228 sec (=  38.170 min)  31.4 %
Property integrals               ...     1070.290 sec (=  17.838 min)  14.7 %
SCF Response                     ...     2245.392 sec (=  37.423 min)  30.8 %
Property calculations            ...      525.249 sec (=   8.754 min)   7.2 %
SCF Gradient evaluation          ...      771.629 sec (=  12.860 min)  10.6 %
Geometry relaxation              ...        7.882 sec (=   0.131 min)   0.1 %
                             ****ORCA TERMINATED NORMALLY****
TOTAL RUN TIME: 0 days 2 hours 4 minutes 47 seconds 169 msec
