
                                 *****************
                                 * O   R   C   A *
                                 *****************

                                            #,                                       
                                            ###                                      
                                            ####                                     
                                            #####                                    
                                            ######                                   
                                           ########,                                 
                                     ,,################,,,,,                         
                               ,,#################################,,                 
                          ,,##########################################,,             
                       ,#########################################, ''#####,          
                    ,#############################################,,   '####,        
                  ,##################################################,,,,####,       
                ,###########''''           ''''###############################       
              ,#####''   ,,,,##########,,,,          '''####'''          '####       
            ,##' ,,,,###########################,,,                        '##       
           ' ,,###''''                  '''############,,,                           
         ,,##''                                '''############,,,,        ,,,,,,###''
      ,#''                                            '''#######################'''  
     '                                                          ''''####''''         
             ,#######,   #######,   ,#######,      ##                                
            ,#'     '#,  ##    ##  ,#'     '#,    #''#        ,####,    ,#,          
            ##       ##  ##   ,#'  ##            #'  '#       #'       ,# #          
            ##       ##  #######   ##           ,######,      #####,      #          
            '#,     ,#'  ##    ##  '#,     ,#' ,#      #,     #,   #      #          
             '#######'   ##     ##  '#######'  #'      '#     '####' #    #          



                #########################################################
                #                        -***-                          #
                #          Department of theory and spectroscopy        #
                #                                                       #
                #                      Frank Neese                      #
                #                                                       #
                #     Directorship, Architecture, Infrastructure        #
                #                    SHARK, DRIVERS                     #
                #        Core code/Algorithms in most modules           #
                #                                                       #
                #        Max Planck Institute fuer Kohlenforschung      #
                #                Kaiser Wilhelm Platz 1                 #
                #                 D-45470 Muelheim/Ruhr                 #
                #                      Germany                          #
                #                                                       #
                #                  All rights reserved                  #
                #                        -***-                          #
                #########################################################


                         Program Version 6.1.0-f.0  -   RELEASE   -


 With contributions from (in alphabetic order):
[Max-Planck-Institut fuer Kohlenforschung]                               
  Daniel Aravena         : Magnetic Suceptibility                        
  Michael Atanasov       : Ab Initio Ligand Field Theory (pilot matlab implementation)
  Alexander A. Auer      : GIAO ZORA, VPT2 properties, NMR spectrum      
  Ute Becker             : All parallelization in ORCA, NUMFREQ, NUMCALC 
  Giovanni Bistoni       : ED, misc. LED, open-shell LED, HFLD           
  Dmytro Bykov           : pre 5.0 version of the SCF Hessian            
  Marcos Casanova-Páez   : Triplet and SCS-CIS(D). UHF-(DLPNO)-IP/EA/STEOM-CCSD. UHF-CVS-IP/STEOM-CCSD   
  Vijay G. Chilkuri      : MRCI spin determinant printing, contributions to CSF-ICE 
  Pauline Colinet        : FMM embedding                                 
  Dipayan Datta          : RHF DLPNO-CCSD density                        
  Achintya Kumar Dutta   : EOM-CC, STEOM-CC                              
  Nicolas Foglia         : Exact transition moments, OPA infrastructure, MCD improvements    
  Dmitry Ganyushin       : Spin-Orbit,Spin-Spin,Magnetic field MRCI      
  Miquel Garcia-Rates    : C-PCM and meta-GGA Hessian, CCSD/C-PCM, Gaussian charge scheme 
  Tiago L. C. Gouveia    : GS-ROHF, GS-ROCIS                             
  Yang Guo               : DLPNO-NEVPT2, F12-NEVPT2, CIM, IAO-localization        
  Andreas Hansen         : Spin unrestricted coupled pair/coupled cluster methods 
  Ingolf Harden          : AUTO-CI MPn and infrastructure                
  Benjamin Helmich-Paris : MC-RPA, TRAH-(SCF,CASSCF), AVAS, COSX integrals, SCF dyn. polar., MC-PDFT, srDFT 
  Lee Huntington         : MR-EOM, pCC                                   
  Robert Izsak           : Overlap fitted RIJCOSX, COSX-SCS-MP3, EOM     
  Riya Kayal             : Wick's Theorem for AUTO-CI, AUTO-CI UHF-CCSDT 
  Emily Kempfer          : AUTO-CI RHF CISDT and CCSDT, approximate NEVPT4
  Christian Kollmar      : KDIIS, OOCD, Brueckner-CCSD(T), CCSD density, CASPT2, CASPT2-K, improved NEVPT2 
  Axel Koslowski         : Symmetry handling                             
  Simone Kossmann        : meta-GGA functionals, TD-DFT gradient, OOMP2, (MP2 Hessian; deprecated post 5.0) 
  Lucas Lang             : DCDCAS, Hyperfine gauge corrections, ICE-SOC+SSC
  Marvin Lechner         : AUTO-CI (C++ implementation), FIC-MRCC        
  Spencer Leger          : CASSCF response                               
  Dagmar Lenk            : GEPOL surface, SMD, ORCA-2-JSON               
  Dimitrios Liakos       : Extrapolation schemes; Compound Job, Property file
  Dimitrios Manganas     : Further ROCIS development; embedding schemes. LFT, Crystal Embedding 
  Dimitrios Pantazis     : SARC Basis sets                               
  Anastasios Papadopoulos: AUTO-CI, single reference methods and gradients 
  Taras Petrenko         : pre 6.0 DFT Hessian and TD-DFT gradient,  ECA, NRVS 
  Petra Pikulova         : Analytic Raman intensities                    
  Peter Pinski           : DLPNO-MP2, DLPNO-MP2 Gradient                 
  Shashank Vittal Rao    : ES-AILFT, MagRelax                            
  Christoph Reimann      : Effective Core Potentials                     
  Marius Retegan         : Local ZFS, SOC                                
  Christoph Riplinger    : Optimizer, TS searches, QM/MM, DLPNO-CCSD(T), (RO)-DLPNO pert. Triples 
  Michael Roemelt        : Original ROCIS implementation, recursive CI coupling coefficients
  Masaaki Saitow         : Open-shell DLPNO-CCSD energy and density      
  Barbara Sandhoefer     : DKH picture change effects                    
  Yorick L. A. Schmerwitz: GMF and freeze-and-release deltaSCF, NEB S-IDPP initial path                    
  Kantharuban Sivalingam : CASSCF convergence/infrastructure, NEVPT2, NEVPT3, NEVPT4(SD), FIC-MRCI and CEPA variants
  Bernardo de Souza      : ESD, SOC TD-DFT                               
  Georgi L. Stoychev     : AutoAux, RI-MP2 NMR, DLPNO-MP2 response, X2C  
  Van Anh Tran           : RI-MP2 g-tensors                              
  Willem Van den Heuvel  : Paramagnetic NMR                              
  Zikuan Wang            : NOTCH, Electric field optimization            
  Frank Wennmohs         : Technical directorship and infrastructure     
  Hang Xu                : AUTO-CI-Response properties                   
                                                                         
[FACCTs GmbH]                                                            
  Markus Bursch, Nicolas Foglia, Miquel Garcia-Rates, Ingolf Harden, Hagen Neugebauer, Anastasios Papadopoulos, 
  Christoph Riplinger, Bernardo de Souza, Georgi L. Stoychev                                                    
                                                                 
  APM, various basis sets, CI-OPT, improved COSX, DLPNO-Multilevel,           
  DOCKER, DRACO, updates on ESD, Fragmentator, GOAT, IRC, LR-CPCM, L-BFGS, MBIS, meta-GGA TD-DFT gradient, ML-optimized integration grids, 
  MM, NACMEs, nearIR, NEB, NEB-TS, NL-DFT gradient (VV10), 2- and 3-layer-ONIOM, interface openCOSMO-RS, QMMM,   
  Crystal-QMMM, RESP, rigid body optimization, SF, symmetry and pop. for TD-DFT, various functionals, SOLVATOR                                   
                                                                         
[Other institutions]                                                     
  V. Asgeirsson          : NEB                                           
  Christoph Bannwarth    : sTDA-DFT, sTD-DFT, PBEh-3c, B97-3c, D3        
  Giovanni Bistoni       : ETS/NOCV, ADLD/ADEX, COVALED                  
  Martin Brehm           : Molecular dynamics                            
  Ronald Cardenas        : ETS/NOCV                                      
  Martina Colucci        : COVALED                                       
  Sebastian Ehlert       : rSCAN, r2SCAN, r2SCAN-3c, D4, dhf basis sets  
  Marvin Friede          : D4 for Fr, Ra, Ac-Lr                          
  Lars Goerigk           : TD-DFT with DH, B97 family of functionals     
  Stefan Grimme          : VdW corrections, initial TS optimization, DFT functionals, gCP, sTDA/sTD-DF 
  Waldemar Hujo          : DFT-NL                                        
  H. Jonsson             : NEB                                           
  Holger Kruse           : gCP                                           
  Marcel Mueller         : wB97X-3c, vDZP basis set                      
  Hagen Neugebauer       : wr2SCAN, Native XTB                           
  Gianluca Regni         : ADLD/ADEX                                     
  Tobias Risthaus        : pre 6.0 range-separated hybrid DFT and stability analysis
  Lukas Wittmann         : regularized MP2, r2SCAN double-hybrids, wr2SCAN        
                                                                         
We gratefully acknowledge several colleagues who have allowed us to      
interface, adapt or use parts of their codes:                            
  Ed Valeev, F. Pavosevic, A. Kumar             : LibInt (2-el integral package), F12 methods 
  Garnet Chan, S. Sharma, J. Yang, R. Olivares  : DMRG                   
  Ulf Ekstrom                                   : XCFun DFT Library      
  Mihaly Kallay                                 : mrcc  (arbitrary order and MRCC methods)
  Frank Weinhold                                : gennbo (NPA and NBO analysis)           
  Simon Mueller                                 : openCOSMO-RS                            
  Christopher J. Cramer and Donald G. Truhlar   : smd solvation model                     
  S Lehtola, MJT Oliveira, MAL Marques          : LibXC Library                           
  Liviu Ungur et al                             : ANISO software                          


 Your calculation uses the libint2 library for the computation of 2-el integrals
 For citations please refer to: http://libint.valeyev.net

 Your ORCA version has been built with support for libXC version: 7.0.0
 For citations please refer to: https://libxc.gitlab.io

 This ORCA versions uses:
   CBLAS   interface :  Fast vector & matrix operations
   LAPACKE interface :  Fast linear algebra routines
   SCALAPACK package :  Parallel linear algebra routines
   Shared memory     :  Shared parallel matrices
   BLAS/LAPACK       :  OpenBLAS 0.3.29  USE64BITINT DYNAMIC_ARCH NO_AFFINITY Cooperlake SINGLE_THREADED
        Core in use  :  Cooperlake
   Copyright (c) 2011-2014, The OpenBLAS Project


  ***********************************
  * Starting time: Wed Mar  4 06:27:14 2026
  * Host name:     c01b01n05
  * Process ID:    2790443
  * Working dir.:  /lustre1/jiangy/jiangy_liuxy/NMR/B9D7C2-SRSR
  ***********************************

NOTE: MaxCore=6000 MB was set to SCF,MP2,MDCI,CIPSI,MRCI,RASCI and CIS
      => If you want to overwrite this, your respective input block should be placed after the MaxCore statement


***************************************
The coordinates will be read from file: conf-7.xyz
***************************************


Your calculation utilizes the atom-pairwise dispersion correction
based on EEQ partial charges (D4)


Warning: RI is on but no J-basis has been assigned. Assigning Def2/J (nothing to worry about!)
================================================================================

----- Orbital basis set information -----
Your calculation utilizes the basis: def2-TZVP
   F. Weigend and R. Ahlrichs, Phys. Chem. Chem. Phys. 7, 3297 (2005).

----- AuxJ basis set information -----
Your calculation utilizes the auxiliary basis: def2/J
   H-Rn: F. Weigend, Phys. Chem. Chem. Phys. 8, 1057 (2006).
   Fr-Lr: K. Eichkorn, F. Weigend, O. Treutler, R. Ahlrichs; Theor. Chem. Acc. 97, 119 (1997).

================================================================================
                                        WARNINGS
                       Please study these warnings very carefully!
================================================================================


WARNING: Geometry Optimization
  ===> : Switching off AutoStart
         For restart on a previous wavefunction, please use MOREAD

================================================================================
                                       INPUT FILE
================================================================================
NAME = opt-conf-7.inp
|  1> ! B3LYP OPT FREQ DEF2-TZVP D4 CPCM(Methanol) 
|  2> ! TightOpt
|  3> %pal nprocs 64 end
|  4> %maxcore 6000
|  5> 
|  6> %cpcm
|  7> end
|  8> 
|  9> %freq
| 10>    Temp 298.15
| 11> end
| 12> 
| 13> * xyzfile 0 1 conf-7.xyz
| 14> 
| 15> 
| 16>                          ****END OF INPUT****
================================================================================

                       *****************************
                       * Geometry Optimization Run *
                       *****************************

Geometry optimization settings:
Update method            Update   .... BFGS
Choice of coordinates    CoordSys .... (2022) Redundant Internals
Initial Hessian          InHess   .... Almloef's Model
Max. no of cycles        MaxIter  .... 246

Convergence Tolerances:
Energy Change            TolE     ....  1.0000e-06 Eh
Max. Gradient            TolMAXG  ....  1.0000e-04 Eh/bohr
RMS Gradient             TolRMSG  ....  3.0000e-05 Eh/bohr
Max. Displacement        TolMAXD  ....  1.0000e-03 bohr
RMS Displacement         TolRMSD  ....  6.0000e-04 bohr
Strict Convergence                .... False

------------------------------------------------------------------------------
                        ORCA OPTIMIZATION COORDINATE SETUP
------------------------------------------------------------------------------

The optimization will be done in redundant internal coordinates (2022)
Making redundant internal coordinates   ...  (2022 redundants) done
Evaluating the initial hessian          ...  (Almloef) done
Evaluating the coordinates              ...  done
Calculating the B-matrix                .... done
Calculating the G-matrix                .... done
The number of degrees of freedom        ....  404

    -----------------------------------------------------------------
                    Redundant Internal Coordinates


    -----------------------------------------------------------------
         Definition                    Initial Value    Approx d2E/dq
    -----------------------------------------------------------------
      1. B(C   1,C   0)                  1.4060         0.589203   
      2. B(C   2,C   1)                  1.4002         0.601887   
      3. B(C   3,C   2)                  1.3891         0.626792   
      4. B(C   4,C   3)                  1.3849         0.636669   
      5. B(C   5,C   4)                  1.3856         0.634953   
      6. B(C   5,C   0)                  1.3867         0.632306   
      7. B(C   6,C   4)                  1.5029         0.412684   
      8. B(C   7,C   6)                  1.5360         0.365366   
      9. B(C   8,C   7)                  1.5377         0.363202   
     10. B(C   9,C   8)                  1.5361         0.365268   
     11. B(C  10,C   9)                  1.5030         0.412597   
     12. B(C  11,C  10)                  1.3933         0.617261   
     13. B(C  12,C  11)                  1.3817         0.644167   
     14. B(C  13,C  12)                  1.4051         0.591094   
     15. B(C  14,C  13)                  1.3823         0.642742   
     16. B(C  15,C  14)                  1.3860         0.633994   
     17. B(C  15,C  10)                  1.3858         0.634490   
     18. B(C  16,C   7)                  1.5358         0.365725   
     19. B(C  17,C   8)                  1.5345         0.367509   
     20. B(O  18,C   2)                  1.3722         0.597359   
     21. B(O  19,C   0)                  1.3625         0.619103   
     22. B(O  20,C   1)                  1.3739         0.593622   
     23. B(O  21,C  13)                  1.3620         0.620193   
     24. B(O  22,C  12)                  1.3791         0.582414   
     25. B(C  23,O  20)                  1.4116         0.516931   
     26. B(C  24,C  23)                  1.5543         0.341692   
     27. B(C  25,C  24)                  1.5068         0.406770   
     28. B(C  26,C  23)                  1.5395         0.360720   
     29. B(O  27,C  26)                  1.4097         0.520607   
     30. B(C  28,C  25)                  1.3906         0.623408   
     31. B(C  29,C  28)                  1.3811         0.645551   
     32. B(C  30,C  29)                  1.4024         0.596946   
     33. B(C  31,C  30)                  1.3821         0.643189   
     34. B(C  32,C  31)                  1.3846         0.637346   
     35. B(C  32,C  25)                  1.3835         0.639954   
     36. B(C  33,O  19)                  1.4056         0.528339   
     37. B(C  34,O  18)                  1.4083         0.523165   
     38. B(C  35,O  22)                  1.4073         0.525064   
     39. B(O  36,C  24)                  1.4088         0.522205   
     40. B(O  37,C  16)                  1.4051         0.529462   
     41. B(O  38,C  17)                  1.4089         0.522031   
     42. B(O  39,C  29)                  1.3754         0.590432   
     43. B(O  40,C  30)                  1.3698         0.602659   
     44. B(C  41,O  39)                  1.4086         0.522558   
     45. B(H  42,C   3)                  1.0774         0.377214   
     46. B(H  43,C   5)                  1.0779         0.376516   
     47. B(H  44,C   6)                  1.0907         0.359197   
     48. B(H  45,C   6)                  1.0904         0.359510   
     49. B(H  46,C   7)                  1.0963         0.351870   
     50. B(H  47,C   8)                  1.0969         0.351145   
     51. B(H  48,C   9)                  1.0916         0.357961   
     52. B(H  49,C   9)                  1.0940         0.354842   
     53. B(H  50,C  11)                  1.0772         0.377409   
     54. B(H  51,C  14)                  1.0785         0.375701   
     55. B(H  52,C  15)                  1.0803         0.373173   
     56. B(H  53,C  16)                  1.0934         0.355621   
     57. B(H  54,C  16)                  1.0982         0.349403   
     58. B(H  55,C  17)                  1.0986         0.348929   
     59. B(H  56,C  17)                  1.0919         0.357651   
     60. B(H  57,O  21)                  0.9671         0.506573   
     61. B(H  57,O  22)                  2.1110         0.010000   
     62. B(H  58,C  23)                  1.0981         0.349560   
     63. B(H  59,C  24)                  1.1025         0.343898   
     64. B(H  60,C  26)                  1.0922         0.357198   
     65. B(H  61,C  26)                  1.0964         0.351687   
     66. B(H  62,O  27)                  0.9643         0.511744   
     67. B(H  63,C  28)                  1.0771         0.377594   
     68. B(H  64,C  31)                  1.0780         0.376399   
     69. B(H  65,C  32)                  1.0787         0.375373   
     70. B(H  66,C  33)                  1.0949         0.353711   
     71. B(H  67,H  64)                  4.0872         0.010000   
     72. B(H  67,C  33)                  1.0954         0.353016   
     73. B(H  68,C  33)                  1.0890         0.361443   
     74. B(H  69,C  34)                  1.0898         0.360338   
     75. B(H  70,C  34)                  1.0940         0.354872   
     76. B(H  71,C  34)                  1.0944         0.354322   
     77. B(H  72,C  35)                  1.0941         0.354755   
     78. B(H  73,C  35)                  1.0942         0.354643   
     79. B(H  74,C  35)                  1.0888         0.361654   
     80. B(H  75,O  27)                  1.9656         0.012932   
     81. B(H  75,O  36)                  0.9698         0.501503   
     82. B(H  76,O  40)                  1.9463         0.013882   
     83. B(H  76,O  37)                  0.9706         0.500148   
     84. B(H  77,O  38)                  0.9640         0.512325   
     85. B(H  78,O  39)                  2.0993         0.010000   
     86. B(H  78,O  40)                  0.9689         0.503281   
     87. B(H  79,H  70)                  2.5172         0.010000   
     88. B(H  79,C  41)                  1.0934         0.355622   
     89. B(H  80,C  41)                  1.0939         0.354950   
     90. B(H  81,O  21)                  2.3698         0.010000   
     91. B(H  81,C  41)                  1.0887         0.361866   
     92. A(C   1,C   0,O  19)          114.8997         0.427192   
     93. A(C   5,C   0,O  19)          124.6049         0.432640   
     94. A(C   1,C   0,C   5)          120.4942         0.431630   
     95. A(C   0,C   1,O  20)          114.8106         0.423990   
     96. A(C   0,C   1,C   2)          119.0201         0.427828   
     97. A(C   2,C   1,O  20)          125.9360         0.425609   
     98. A(C   3,C   2,O  18)          122.8860         0.429195   
     99. A(C   1,C   2,C   3)          119.3951         0.432604   
    100. A(C   1,C   2,O  18)          117.7182         0.426087   
    101. A(C   4,C   3,H  42)          118.3333         0.357303   
    102. A(C   2,C   3,H  42)          120.2612         0.356355   
    103. A(C   2,C   3,C   4)          121.3967         0.437001   
    104. A(C   5,C   4,C   6)          121.4051         0.405398   
    105. A(C   3,C   4,C   6)          119.1801         0.405592   
    106. A(C   3,C   4,C   5)          119.4045         0.438022   
    107. A(C   4,C   5,H  43)          119.0697         0.357027   
    108. A(C   0,C   5,H  43)          120.6758         0.356774   
    109. A(C   0,C   5,C   4)          120.2543         0.437479   
    110. A(C   4,C   6,H  44)          108.7919         0.329545   
    111. A(C   7,C   6,H  45)          109.8303         0.323052   
    112. A(C   4,C   6,C   7)          110.6998         0.368197   
    113. A(H  44,C   6,H  45)          108.2520         0.290650   
    114. A(C   4,C   6,H  45)          110.2756         0.329593   
    115. A(C   7,C   6,H  44)          108.9362         0.323005   
    116. A(C   6,C   7,C  16)          110.7722         0.360666   
    117. A(C   8,C   7,C  16)          110.3245         0.360301   
    118. A(C  16,C   7,H  46)          106.6192         0.321968   
    119. A(C   8,C   7,H  46)          106.8155         0.321603   
    120. A(C   6,C   7,H  46)          107.7558         0.321916   
    121. A(C   6,C   7,C   8)          114.1634         0.360241   
    122. A(C   7,C   8,C  17)          113.5997         0.360600   
    123. A(C  17,C   8,H  47)          107.0851         0.322116   
    124. A(C   7,C   8,C   9)          111.9452         0.360224   
    125. A(C   9,C   8,H  47)          108.5487         0.321794   
    126. A(C   7,C   8,H  47)          105.9634         0.321495   
    127. A(C   9,C   8,C  17)          109.4169         0.360949   
    128. A(H  48,C   9,H  49)          107.1458         0.289898   
    129. A(C  10,C   9,H  48)          109.1511         0.329346   
    130. A(C  10,C   9,H  49)          109.3173         0.328870   
    131. A(C   8,C   9,C  10)          113.9953         0.368166   
    132. A(C   8,C   9,H  48)          109.2353         0.322809   
    133. A(C   8,C   9,H  49)          107.7706         0.322346   
    134. A(C   9,C  10,C  11)          120.4599         0.403366   
    135. A(C  11,C  10,C  15)          118.6724         0.435528   
    136. A(C   9,C  10,C  15)          120.8607         0.405331   
    137. A(C  10,C  11,C  12)          120.7729         0.436717   
    138. A(C  10,C  11,H  50)          119.2921         0.355461   
    139. A(C  12,C  11,H  50)          119.9350         0.358047   
    140. A(C  11,C  12,C  13)          119.9715         0.433324   
    141. A(C  13,C  12,O  22)          114.5606         0.422790   
    142. A(C  11,C  12,O  22)          125.4677         0.429350   
    143. A(C  12,C  13,O  21)          120.1657         0.427572   
    144. A(C  12,C  13,C  14)          119.2596         0.433152   
    145. A(C  14,C  13,O  21)          120.5746         0.434053   
    146. A(C  13,C  14,H  51)          118.6705         0.357636   
    147. A(C  13,C  14,C  15)          120.1440         0.438653   
    148. A(C  15,C  14,H  51)          121.1830         0.356804   
    149. A(C  14,C  15,H  52)          119.1123         0.356395   
    150. A(C  10,C  15,H  52)          119.7386         0.356442   
    151. A(C  10,C  15,C  14)          121.1351         0.437632   
    152. A(O  37,C  16,H  54)          110.8321         0.339833   
    153. A(C   7,C  16,H  54)          108.7434         0.321598   
    154. A(O  37,C  16,H  53)          105.8631         0.340836   
    155. A(C   7,C  16,H  53)          110.7910         0.322528   
    156. A(C   7,C  16,O  37)          112.2594         0.382030   
    157. A(H  53,C  16,H  54)          108.2692         0.288899   
    158. A(O  38,C  17,H  56)          105.1168         0.340356   
    159. A(C   8,C  17,O  38)          112.2301         0.381416   
    160. A(H  55,C  17,H  56)          108.4079         0.289096   
    161. A(C   8,C  17,H  56)          110.8569         0.323087   
    162. A(O  38,C  17,H  55)          110.0529         0.338955   
    163. A(C   8,C  17,H  55)          110.0162         0.321782   
    164. A(C   2,O  18,C  34)          118.1600         0.412874   
    165. A(C   0,O  19,C  33)          118.3193         0.416233   
    166. A(C   1,O  20,C  23)          121.5152         0.411538   
    167. A(C  13,O  21,H  57)          107.4847         0.368482   
    168. A(C  12,O  22,C  35)          117.9910         0.411286   
    169. A(C  26,C  23,H  58)          109.5578         0.320897   
    170. A(C  24,C  23,H  58)          108.3213         0.318070   
    171. A(O  20,C  23,H  58)          111.3930         0.338502   
    172. A(C  24,C  23,C  26)          110.9427         0.355745   
    173. A(O  20,C  23,C  26)          104.1354         0.379538   
    174. A(O  20,C  23,C  24)          112.4495         0.375996   
    175. A(C  23,C  24,O  36)          110.4348         0.376656   
    176. A(O  36,C  24,H  59)          110.6603         0.338153   
    177. A(C  25,C  24,H  59)          109.3790         0.326410   
    178. A(C  23,C  24,H  59)          107.5534         0.317225   
    179. A(C  25,C  24,O  36)          108.5363         0.388234   
    180. A(C  23,C  24,C  25)          110.2730         0.363098   
    181. A(C  28,C  25,C  32)          119.8068         0.436980   
    182. A(C  24,C  25,C  32)          121.5727         0.404927   
    183. A(C  24,C  25,C  28)          118.6161         0.403059   
    184. A(O  27,C  26,H  61)          111.2017         0.339246   
    185. A(H  60,C  26,H  61)          108.2092         0.289395   
    186. A(C  23,C  26,H  61)          108.0709         0.321215   
    187. A(O  27,C  26,H  60)          106.2238         0.340128   
    188. A(C  23,C  26,H  60)          109.5268         0.322034   
    189. A(C  23,C  26,O  27)          113.4824         0.380004   
    190. A(C  26,O  27,H  62)          108.8290         0.358244   
    191. A(C  29,C  28,H  63)          121.1916         0.358207   
    192. A(C  25,C  28,H  63)          118.4965         0.356089   
    193. A(C  25,C  28,C  29)          120.3046         0.437667   
    194. A(C  30,C  29,O  39)          114.7886         0.424572   
    195. A(C  28,C  29,O  39)          125.6319         0.430570   
    196. A(C  28,C  29,C  30)          119.5795         0.434261   
    197. A(C  31,C  30,O  40)          120.4548         0.431874   
    198. A(C  29,C  30,O  40)          119.6464         0.426132   
    199. A(C  29,C  30,C  31)          119.8926         0.433974   
    200. A(C  32,C  31,H  64)          120.8783         0.357236   
    201. A(C  30,C  31,H  64)          119.0234         0.357791   
    202. A(C  30,C  31,C  32)          120.0897         0.439126   
    203. A(C  31,C  32,H  65)          119.7968         0.357071   
    204. A(C  25,C  32,H  65)          119.9205         0.357319   
    205. A(C  25,C  32,C  31)          120.2820         0.438726   
    206. A(H  67,C  33,H  68)          109.2579         0.290103   
    207. A(H  66,C  33,H  68)          109.1762         0.290193   
    208. A(O  19,C  33,H  68)          105.5892         0.341642   
    209. A(H  66,C  33,H  67)          109.3259         0.289121   
    210. A(O  19,C  33,H  67)          111.6838         0.340297   
    211. A(O  19,C  33,H  66)          111.7037         0.340409   
    212. A(H  69,C  34,H  71)          108.9643         0.290132   
    213. A(O  18,C  34,H  71)          111.4320         0.339947   
    214. A(H  69,C  34,H  70)          109.6839         0.290202   
    215. A(O  18,C  34,H  70)          111.7620         0.340035   
    216. A(O  18,C  34,H  69)          105.5315         0.340905   
    217. A(H  70,C  34,H  71)          109.3673         0.289437   
    218. A(H  73,C  35,H  74)          109.2571         0.290339   
    219. A(H  72,C  35,H  74)          109.5092         0.290354   
    220. A(O  22,C  35,H  74)          105.6289         0.341320   
    221. A(H  72,C  35,H  73)          109.6669         0.289463   
    222. A(O  22,C  35,H  73)          111.3318         0.340205   
    223. A(O  22,C  35,H  72)          111.3484         0.340223   
    224. A(C  24,O  36,H  75)          108.1891         0.357201   
    225. A(C  16,O  37,H  76)          107.6907         0.357875   
    226. A(C  17,O  38,H  77)          108.3733         0.358480   
    227. A(C  29,O  39,C  41)          117.9845         0.411935   
    228. A(C  30,O  40,H  78)          107.3478         0.366264   
    229. A(H  80,C  41,H  81)          110.1157         0.290405   
    230. A(H  79,C  41,H  81)          109.3663         0.290492   
    231. A(O  39,C  41,H  81)          105.3355         0.341081   
    232. A(H  79,C  41,H  80)          109.3788         0.289613   
    233. A(O  39,C  41,H  80)          111.0855         0.339982   
    234. A(O  39,C  41,H  79)          111.4867         0.340090   
    235. D(O  20,C   1,C   0,O  19)     -5.9030         0.023887   
    236. D(C   2,C   1,C   0,O  19)    179.3177         0.023887   
    237. D(C   2,C   1,C   0,C   5)     -0.3086         0.023887   
    238. D(O  20,C   1,C   0,C   5)    174.4707         0.023887   
    239. D(O  18,C   2,C   1,C   0)    178.3668         0.024982   
    240. D(C   3,C   2,C   1,C   0)     -1.3315         0.024982   
    241. D(C   3,C   2,C   1,O  20)   -175.4766         0.024982   
    242. D(O  18,C   2,C   1,O  20)      4.2217         0.024982   
    243. D(C   4,C   3,C   2,C   1)      2.1877         0.027222   
    244. D(H  42,C   3,C   2,O  18)      1.4128         0.027222   
    245. D(C   4,C   3,C   2,O  18)   -177.4942         0.027222   
    246. D(H  42,C   3,C   2,C   1)   -178.9053         0.027222   
    247. D(C   6,C   4,C   3,H  42)      0.8689         0.028143   
    248. D(C   5,C   4,C   3,H  42)    179.7177         0.028143   
    249. D(C   5,C   4,C   3,C   2)     -1.3549         0.028143   
    250. D(C   6,C   4,C   3,C   2)    179.7963         0.028143   
    251. D(H  43,C   5,C   4,C   6)     -1.3189         0.027982   
    252. D(H  43,C   5,C   4,C   3)    179.8588         0.027982   
    253. D(C   0,C   5,C   4,C   3)     -0.3298         0.027982   
    254. D(C   4,C   5,C   0,O  19)   -178.4376         0.027734   
    255. D(H  43,C   5,C   0,C   1)   -179.0411         0.027734   
    256. D(H  43,C   5,C   0,O  19)      1.3708         0.027734   
    257. D(C   0,C   5,C   4,C   6)    178.4925         0.027982   
    258. D(C   4,C   5,C   0,C   1)      1.1506         0.027734   
    259. D(H  45,C   6,C   4,C   3)   -163.0527         0.012608   
    260. D(H  44,C   6,C   4,C   5)    136.7027         0.012608   
    261. D(H  44,C   6,C   4,C   3)    -44.4724         0.012608   
    262. D(C   7,C   6,C   4,C   5)   -103.6263         0.012608   
    263. D(C   7,C   6,C   4,C   3)     75.1986         0.012608   
    264. D(C   8,C   7,C   6,H  44)    -39.2765         0.010688   
    265. D(C   8,C   7,C   6,C   4)   -158.8609         0.010688   
    266. D(C  16,C   7,C   6,H  45)    -46.1343         0.010688   
    267. D(C  16,C   7,C   6,H  44)   -164.5400         0.010688   
    268. D(C   8,C   7,C   6,H  45)     79.1291         0.010688   
    269. D(C  16,C   7,C   6,C   4)     75.8757         0.010688   
    270. D(C  17,C   8,C   7,H  46)   -164.9155         0.010570   
    271. D(C  17,C   8,C   7,C  16)     79.5814         0.010570   
    272. D(C  17,C   8,C   7,C   6)    -45.9183         0.010570   
    273. D(C   9,C   8,C   7,C  16)   -155.8672         0.010570   
    274. D(C   9,C   8,C   7,H  46)    -40.3640         0.010570   
    275. D(C   9,C   8,C   7,C   6)     78.6331         0.010570   
    276. D(H  48,C   9,C   8,C  17)     61.6093         0.010683   
    277. D(H  48,C   9,C   8,C   7)    -65.2369         0.010683   
    278. D(C  10,C   9,C   8,H  47)    -59.4613         0.010683   
    279. D(C  10,C   9,C   8,C  17)   -176.0031         0.010683   
    280. D(H  48,C   9,C   8,H  47)    178.1510         0.010683   
    281. D(C  10,C   9,C   8,C   7)     57.1507         0.010683   
    282. D(C  15,C  10,C   9,H  48)     -5.6778         0.012603   
    283. D(C  15,C  10,C   9,C   8)   -128.1115         0.012603   
    284. D(C  11,C  10,C   9,H  49)    -67.7981         0.012603   
    285. D(C  11,C  10,C   9,H  48)    175.3024         0.012603   
    286. D(C  11,C  10,C   9,C   8)     52.8686         0.012603   
    287. D(H  50,C  11,C  10,C  15)    179.8793         0.026351   
    288. D(H  50,C  11,C  10,C   9)     -1.0797         0.026351   
    289. D(C  12,C  11,C  10,C  15)     -0.1432         0.026351   
    290. D(C  12,C  11,C  10,C   9)    178.8978         0.026351   
    291. D(O  22,C  12,C  11,H  50)     -1.5984         0.028856   
    292. D(C  13,C  12,C  11,H  50)    178.2549         0.028856   
    293. D(O  22,C  12,C  11,C  10)    178.4243         0.028856   
    294. D(C  13,C  12,C  11,C  10)     -1.7225         0.028856   
    295. D(O  21,C  13,C  12,C  11)   -177.6029         0.024049   
    296. D(C  14,C  13,C  12,O  22)   -177.8732         0.024049   
    297. D(C  14,C  13,C  12,C  11)      2.2582         0.024049   
    298. D(O  21,C  13,C  12,O  22)      2.2657         0.024049   
    299. D(H  51,C  14,C  13,O  21)     -0.5093         0.028720   
    300. D(H  51,C  14,C  13,C  12)    179.6302         0.028720   
    301. D(C  15,C  14,C  13,O  21)    178.9213         0.028720   
    302. D(C  15,C  14,C  13,C  12)     -0.9392         0.028720   
    303. D(H  52,C  15,C  14,H  51)     -0.1638         0.027892   
    304. D(H  52,C  15,C  14,C  13)   -179.5798         0.027892   
    305. D(C  10,C  15,C  14,H  51)    178.4727         0.027892   
    306. D(C  10,C  15,C  14,C  13)     -0.9434         0.027892   
    307. D(H  52,C  15,C  10,C  11)   -179.8838         0.027938   
    308. D(H  52,C  15,C  10,C   9)      1.0792         0.027938   
    309. D(C  14,C  15,C  10,C  11)      1.4882         0.027938   
    310. D(C  14,C  15,C  10,C   9)   -177.5488         0.027938   
    311. D(H  53,C  16,C   7,H  46)   -171.1788         0.010708   
    312. D(H  53,C  16,C   7,C   8)    -55.5524         0.010708   
    313. D(H  53,C  16,C   7,C   6)     71.8465         0.010708   
    314. D(O  37,C  16,C   7,H  46)    -53.0583         0.010708   
    315. D(O  37,C  16,C   7,C   8)     62.5681         0.010708   
    316. D(O  37,C  16,C   7,C   6)   -170.0330         0.010708   
    317. D(H  55,C  17,C   8,H  47)     71.0587         0.010806   
    318. D(H  55,C  17,C   8,C   9)   -171.4764         0.010806   
    319. D(H  55,C  17,C   8,C   7)    -45.5732         0.010806   
    320. D(O  38,C  17,C   8,H  47)    -51.8376         0.010806   
    321. D(O  38,C  17,C   8,C   9)     65.6273         0.010806   
    322. D(O  38,C  17,C   8,C   7)   -168.4695         0.010806   
    323. D(C  34,O  18,C   2,C   3)     -0.7339         0.026047   
    324. D(C  34,O  18,C   2,C   1)    179.5792         0.026047   
    325. D(C  33,O  19,C   0,C   5)     -0.5910         0.028115   
    326. D(C  33,O  19,C   0,C   1)    179.8002         0.028115   
    327. D(C  23,O  20,C   1,C   2)    -45.1038         0.025701   
    328. D(C  23,O  20,C   1,C   0)    140.5359         0.025701   
    329. D(H  57,O  21,C  13,C  14)   -179.6985         0.031148   
    330. D(H  57,O  21,C  13,C  12)      0.1608         0.031148   
    331. D(C  35,O  22,C  12,C  13)    176.6912         0.027221   
    332. D(C  35,O  22,C  12,C  11)     -3.4485         0.027221   
    333. D(H  58,C  23,O  20,C   1)     50.9515         0.021176   
    334. D(C  26,C  23,O  20,C   1)    168.9478         0.021176   
    335. D(C  24,C  23,O  20,C   1)    -70.8619         0.021176   
    336. D(O  36,C  24,C  23,H  58)     60.1596         0.010000   
    337. D(O  36,C  24,C  23,C  26)    -60.1256         0.010000   
    338. D(O  36,C  24,C  23,O  20)   -176.2973         0.010000   
    339. D(C  25,C  24,C  23,H  58)    -59.7930         0.010000   
    340. D(C  25,C  24,C  23,C  26)    179.9218         0.010000   
    341. D(C  25,C  24,C  23,O  20)     63.7501         0.010000   
    342. D(C  32,C  25,C  24,O  36)    135.4392         0.012262   
    343. D(C  32,C  25,C  24,C  23)   -103.4687         0.012262   
    344. D(C  28,C  25,C  24,H  59)   -166.1487         0.012262   
    345. D(C  28,C  25,C  24,O  36)    -45.3235         0.012262   
    346. D(C  28,C  25,C  24,C  23)     75.7686         0.012262   
    347. D(H  60,C  26,C  23,H  58)   -170.2337         0.010436   
    348. D(H  60,C  26,C  23,C  24)    -50.6859         0.010436   
    349. D(H  60,C  26,C  23,O  20)     70.5143         0.010436   
    350. D(O  27,C  26,C  23,H  58)    -51.7257         0.010436   
    351. D(O  27,C  26,C  23,C  24)     67.8221         0.010436   
    352. D(O  27,C  26,C  23,O  20)   -170.9777         0.010436   
    353. D(H  62,O  27,C  26,H  61)    -58.2037         0.023326   
    354. D(H  62,O  27,C  26,H  60)   -175.7166         0.023326   
    355. D(H  62,O  27,C  26,C  23)     63.8885         0.023326   
    356. D(H  63,C  28,C  25,C  32)   -177.2068         0.026911   
    357. D(H  63,C  28,C  25,C  24)      3.5420         0.026911   
    358. D(C  29,C  28,C  25,C  32)      1.8221         0.026911   
    359. D(C  29,C  28,C  25,C  24)   -177.4290         0.026911   
    360. D(C  30,C  29,C  28,H  63)    178.8843         0.028988   
    361. D(C  30,C  29,C  28,C  25)     -0.1180         0.028988   
    362. D(O  39,C  29,C  28,H  63)     -1.1487         0.028988   
    363. D(O  39,C  29,C  28,C  25)    179.8489         0.028988   
    364. D(O  40,C  30,C  29,O  39)     -0.6794         0.024552   
    365. D(O  40,C  30,C  29,C  28)    179.2911         0.024552   
    366. D(C  31,C  30,C  29,O  39)    178.4204         0.024552   
    367. D(C  31,C  30,C  29,C  28)     -1.6091         0.024552   
    368. D(H  64,C  31,C  30,O  40)      1.7726         0.028762   
    369. D(H  64,C  31,C  30,C  29)   -177.3198         0.028762   
    370. D(C  32,C  31,C  30,O  40)   -179.2768         0.028762   
    371. D(C  32,C  31,C  30,C  29)      1.6308         0.028762   
    372. D(H  65,C  32,C  31,H  64)     -1.3092         0.028207   
    373. D(H  65,C  32,C  31,C  30)    179.7600         0.028207   
    374. D(C  25,C  32,C  31,H  64)    179.0106         0.028207   
    375. D(C  25,C  32,C  31,C  30)      0.0797         0.028207   
    376. D(H  65,C  32,C  25,C  28)    178.5119         0.028454   
    377. D(H  65,C  32,C  25,C  24)     -2.2597         0.028454   
    378. D(C  31,C  32,C  25,C  28)     -1.8082         0.028454   
    379. D(C  31,C  32,C  25,C  24)    177.4202         0.028454   
    380. D(H  68,C  33,O  19,C   0)    179.8192         0.022161   
    381. D(H  67,C  33,O  19,C   0)     61.1710         0.022161   
    382. D(H  66,C  33,O  19,C   0)    -61.6201         0.022161   
    383. D(H  71,C  34,O  18,C   2)     62.9469         0.021711   
    384. D(H  70,C  34,O  18,C   2)    -59.7570         0.021711   
    385. D(H  69,C  34,O  18,C   2)   -178.9249         0.021711   
    386. D(H  74,C  35,O  22,C  12)   -176.8254         0.023747   
    387. D(H  73,C  35,O  22,C  12)     64.6910         0.023747   
    388. D(H  72,C  35,O  22,C  12)    -58.0309         0.023747   
    389. D(H  75,O  36,C  24,H  59)    -72.2184         0.021628   
    390. D(H  75,O  36,C  24,C  25)    167.7513         0.021628   
    391. D(H  75,O  36,C  24,C  23)     46.7589         0.021628   
    392. D(H  76,O  37,C  16,H  54)    -59.8101         0.022260   
    393. D(H  76,O  37,C  16,H  53)   -176.9917         0.022260   
    394. D(H  76,O  37,C  16,C   7)     62.0085         0.022260   
    395. D(H  77,O  38,C  17,H  56)   -179.7789         0.021613   
    396. D(H  77,O  38,C  17,H  55)    -63.2396         0.021613   
    397. D(H  77,O  38,C  17,C   8)     59.6360         0.021613   
    398. D(C  41,O  39,C  29,C  30)   -171.4641         0.028027   
    399. D(C  41,O  39,C  29,C  28)      8.5675         0.028027   
    400. D(H  78,O  40,C  30,C  31)   -177.8151         0.029284   
    401. D(H  78,O  40,C  30,C  29)      1.2795         0.029284   
    402. D(H  81,C  41,O  39,C  29)    178.3651         0.023510   
    403. D(H  80,C  41,O  39,C  29)     59.1596         0.023510   
    404. D(H  79,C  41,O  39,C  29)    -63.1139         0.023510   
    -----------------------------------------------------------------

Number of atoms                         .... 82
Number of degrees of freedom            .... 404


         *************************************************************
         *                GEOMETRY OPTIMIZATION CYCLE   1            *
         *************************************************************
---------------------------------
CARTESIAN COORDINATES (ANGSTROEM)
---------------------------------
  C     20.948561  -30.122223    2.167941
  C     21.590944  -29.866395    0.943752
  C     20.912961  -30.142468   -0.249812
  C     19.636089  -30.687114   -0.198379
  C     19.000049  -30.922061    1.009153
  C     19.660086  -30.634350    2.192999
  C     17.616477  -31.508938    1.006563
  C     17.663255  -33.008163    0.675532
  C     16.334991  -33.578814    0.151617
  C     16.107583  -33.237313   -1.328697
  C     17.205265  -33.709235   -2.240430
  C     17.615807  -35.040545   -2.221387
  C     18.608628  -35.486400   -3.072611
  C     19.191107  -34.601825   -3.995940
  C     18.792643  -33.278260   -4.007435
  C     17.814950  -32.838062   -3.129142
  C     18.151497  -33.818152    1.885557
  C     15.112956  -33.140799    0.969741
  O     21.551603  -29.850711   -1.428800
  O     21.689473  -29.836872    3.275193
  O     22.814461  -29.250831    1.052285
  O     20.135366  -35.048683   -4.869881
  O     19.109580  -36.770635   -3.114582
  C     23.897555  -29.610210    0.221420
  C     24.470370  -31.013249    0.566617
  C     23.432609  -32.076799    0.316740
  C     24.945479  -28.510834    0.473186
  O     26.040104  -28.564601   -0.413405
  C     23.166237  -32.452188   -0.995477
  C     22.184849  -33.384971   -1.267949
  C     21.458708  -33.954459   -0.211936
  C     21.751469  -33.604714    1.092739
  C     22.736960  -32.668450    1.355983
  C     21.114861  -30.061726    4.538168
  C     20.881801  -30.133013   -2.635055
  C     18.627856  -37.698643   -2.172592
  O     25.598989  -31.293076   -0.228810
  O     18.420447  -35.157316    1.556129
  O     13.957089  -33.873748    0.635372
  O     21.829726  -33.832242   -2.519173
  O     20.475109  -34.868912   -0.481593
  C     22.632274  -33.447541   -3.611048
  H     19.108710  -30.921388   -1.108156
  H     19.159117  -30.817158    3.129697
  H     17.019489  -30.997927    0.250216
  H     17.140535  -31.358863    1.976114
  H     18.405442  -33.152253   -0.118354
  H     16.415016  -34.668308    0.250058
  H     15.993362  -32.156910   -1.435097
  H     15.161537  -33.693367   -1.635059
  H     17.149994  -35.725930   -1.533151
  H     19.250286  -32.606269   -4.715995
  H     17.511323  -31.801693   -3.157135
  H     17.385958  -33.850206    2.665597
  H     19.044443  -33.330834    2.299356
  H     15.324140  -33.239501    2.043302
  H     14.859470  -32.099180    0.762549
  H     20.264355  -35.992136   -4.700952
  H     23.608195  -29.606576   -0.837850
  H     24.739454  -31.008695    1.635798
  H     25.360100  -28.624749    1.477188
  H     24.439218  -27.539746    0.419714
  H     25.723422  -28.399872   -1.309238
  H     23.751674  -32.011591   -1.784941
  H     21.214447  -34.083310    1.895565
  H     22.958915  -32.396126    2.375862
  H     20.220675  -29.448711    4.691111
  H     20.860395  -31.117005    4.684974
  H     21.875430  -29.771663    5.261556
  H     21.572406  -29.843719   -3.426939
  H     20.641245  -31.196322   -2.726171
  H     19.964428  -29.543902   -2.730413
  H     18.801259  -37.353588   -1.148942
  H     17.561818  -37.897148   -2.318669
  H     19.190910  -38.613911   -2.348088
  H     26.178328  -30.515388   -0.216578
  H     19.133431  -35.161583    0.897610
  H     14.129372  -34.806954    0.805042
  H     20.454493  -34.996328   -1.441830
  H     22.619939  -32.363713   -3.754936
  H     23.664586  -33.784404   -3.478691
  H     22.188726  -33.932045   -4.479218

----------------------------
CARTESIAN COORDINATES (A.U.)
----------------------------
  NO LB      ZA    FRAG     MASS         X           Y           Z
   0 C     6.0000    0    12.011   39.587043  -56.922752    4.096814
   1 C     6.0000    0    12.011   40.800972  -56.439307    1.783433
   2 C     6.0000    0    12.011   39.519770  -56.961010   -0.472076
   3 C     6.0000    0    12.011   37.106831  -57.990242   -0.374882
   4 C     6.0000    0    12.011   35.904889  -58.434227    1.907023
   5 C     6.0000    0    12.011   37.152179  -57.890533    4.144167
   6 C     6.0000    0    12.011   33.290317  -59.543264    1.902129
   7 C     6.0000    0    12.011   33.378715  -62.376388    1.276571
   8 C     6.0000    0    12.011   30.868660  -63.454763    0.286515
   9 C     6.0000    0    12.011   30.438920  -62.809418   -2.510873
  10 C     6.0000    0    12.011   32.513239  -63.701222   -4.233799
  11 C     6.0000    0    12.011   33.289051  -66.217033   -4.197813
  12 C     6.0000    0    12.011   35.165211  -67.059577   -5.806394
  13 C     6.0000    0    12.011   36.265937  -65.387973   -7.551233
  14 C     6.0000    0    12.011   35.512949  -62.886797   -7.572955
  15 C     6.0000    0    12.011   33.665377  -62.054944   -5.913221
  16 C     6.0000    0    12.011   34.301358  -63.907045    3.563187
  17 C     6.0000    0    12.011   28.559347  -62.627033    1.832545
  18 O     8.0000    0    15.999   40.726628  -56.409668   -2.700041
  19 O     8.0000    0    15.999   40.987164  -56.383518    6.189219
  20 O     8.0000    0    15.999   43.113083  -55.276061    1.988530
  21 O     8.0000    0    15.999   38.050327  -66.232412   -9.202742
  22 O     8.0000    0    15.999   36.111873  -69.486430   -5.885707
  23 C     6.0000    0    12.011   45.159834  -55.955187    0.418423
  24 C     6.0000    0    12.011   46.242298  -58.606546    1.070751
  25 C     6.0000    0    12.011   44.281214  -60.616366    0.598552
  26 C     6.0000    0    12.011   47.140123  -53.877668    0.894193
  27 O     8.0000    0    15.999   49.208665  -53.979273   -0.781222
  28 C     6.0000    0    12.011   43.777844  -61.325747   -1.881179
  29 C     6.0000    0    12.011   41.923289  -63.088453   -2.396077
  30 C     6.0000    0    12.011   40.551081  -64.164629   -0.400501
  31 C     6.0000    0    12.011   41.104320  -63.503706    2.064977
  32 C     6.0000    0    12.011   42.966628  -61.734424    2.562436
  33 C     6.0000    0    12.011   39.901304  -56.808429    8.575894
  34 C     6.0000    0    12.011   39.460885  -56.943142   -4.979532
  35 C     6.0000    0    12.011   35.201546  -71.240111   -4.105604
  36 O     8.0000    0    15.999   48.375079  -59.135343   -0.432389
  37 O     8.0000    0    15.999   34.809600  -66.437698    2.940658
  38 O     8.0000    0    15.999   26.375076  -64.012106    1.200678
  39 O     8.0000    0    15.999   41.252205  -63.933671   -4.760546
  40 O     8.0000    0    15.999   38.692348  -65.892695   -0.910078
  41 C     6.0000    0    12.011   42.768799  -63.206692   -6.823892
  42 H     1.0000    0     1.008   36.110229  -58.432955   -2.094111
  43 H     1.0000    0     1.008   36.205484  -58.235989    5.914271
  44 H     1.0000    0     1.008   32.162172  -58.577592    0.472840
  45 H     1.0000    0     1.008   32.390916  -59.259662    3.734314
  46 H     1.0000    0     1.008   34.781245  -62.648680   -0.223657
  47 H     1.0000    0     1.008   31.019885  -65.513607    0.472540
  48 H     1.0000    0     1.008   30.223073  -60.767753   -2.711940
  49 H     1.0000    0     1.008   28.651153  -63.671236   -3.089814
  50 H     1.0000    0     1.008   32.408791  -67.512224   -2.897235
  51 H     1.0000    0     1.008   36.377768  -61.616918   -8.911939
  52 H     1.0000    0     1.008   33.091605  -60.096491   -5.966120
  53 H     1.0000    0     1.008   32.854699  -63.967618    5.037248
  54 H     1.0000    0     1.008   35.988782  -62.986147    4.345153
  55 H     1.0000    0     1.008   28.958428  -62.813554    3.861282
  56 H     1.0000    0     1.008   28.080329  -60.658659    1.441009
  57 H     1.0000    0     1.008   38.294081  -68.015280   -8.883511
  58 H     1.0000    0     1.008   44.613024  -55.948321   -1.583306
  59 H     1.0000    0     1.008   46.750794  -58.597941    3.091211
  60 H     1.0000    0     1.008   47.923645  -54.092935    2.791480
  61 H     1.0000    0     1.008   46.183429  -52.042578    0.793145
  62 H     1.0000    0     1.008   48.610224  -53.667981   -2.474101
  63 H     1.0000    0     1.008   44.884160  -60.493140   -3.373050
  64 H     1.0000    0     1.008   40.089494  -64.408121    3.582098
  65 H     1.0000    0     1.008   43.386061  -61.219805    4.489728
  66 H     1.0000    0     1.008   38.211538  -55.650000    8.864914
  67 H     1.0000    0     1.008   39.420433  -58.802617    8.853317
  68 H     1.0000    0     1.008   41.338571  -56.260289    9.942900
  69 H     1.0000    0     1.008   40.765940  -56.396455   -6.475977
  70 H     1.0000    0     1.008   39.006299  -58.952504   -5.151717
  71 H     1.0000    0     1.008   37.727302  -55.829884   -5.159733
  72 H     1.0000    0     1.008   35.529231  -70.588051   -2.171186
  73 H     1.0000    0     1.008   33.187026  -71.615232   -4.381649
  74 H     1.0000    0     1.008   36.265565  -72.969718   -4.437243
  75 H     1.0000    0     1.008   49.469871  -57.665726   -0.409273
  76 H     1.0000    0     1.008   36.156944  -66.445762    1.696237
  77 H     1.0000    0     1.008   26.700643  -65.775611    1.521310
  78 H     1.0000    0     1.008   38.653391  -66.133476   -2.724664
  79 H     1.0000    0     1.008   42.745490  -61.158555   -7.095801
  80 H     1.0000    0     1.008   44.719586  -63.843272   -6.573774
  81 H     1.0000    0     1.008   41.930615  -64.122273   -8.464496

--------------------------------
INTERNAL COORDINATES (ANGSTROEM)
--------------------------------
 C      0   0   0     0.000000000000     0.00000000     0.00000000
 C      1   0   0     1.405966645967     0.00000000     0.00000000
 C      2   1   0     1.400168580187   119.02009856     0.00000000
 C      3   2   1     1.389132041282   119.39506714   358.66853585
 C      4   3   2     1.384876001440   121.39673108     2.18773037
 C      5   4   3     1.385610747367   119.40445304   358.64507615
 C      5   4   3     1.502897740821   119.18011039   179.79633714
 C      7   5   4     1.536048236206   110.69980224    75.19857263
 C      8   7   5     1.537665232669   114.16343573   201.13914777
 C      9   8   7     1.536121272459   111.94515506    78.63308916
 C     10   9   8     1.502955283950   113.99525029    57.15074179
 C     11  10   9     1.393302791749   120.45985329    52.86858394
 C     12  11  10     1.381688750352   120.77286871   178.89781540
 C     13  12  11     1.405094483161   119.97150707   358.27753554
 C     14  13  12     1.382291504482   119.25961416     2.25820595
 C     11  10   9     1.385809336770   120.86070635   231.88845179
 C      8   7   5     1.535780688028   110.77218656    75.87572354
 C      9   8   7     1.534456106208   113.59969948   314.08166501
 O      3   2   1     1.372224330944   117.71823095   178.36677095
 O      1   2   3     1.362491817485   114.89974072   179.31770051
 O      2   1   3     1.373932740466   114.81058590   174.77926342
 O     14  13  12     1.362012884095   120.16566135   182.39706950
 O     13  12  11     1.379121043157   125.46773314   178.42428909
 C     21   2   1     1.411588177138   121.51522637   140.53589301
 C     24  21   2     1.554283168659   112.44946752   289.13811369
 C     25  24  21     1.506826499884   110.27301664    63.75013084
 C     24  21   2     1.539531832760   104.13543388   168.94783499
 O     27  24  21     1.409659510551   113.48239201   189.02229466
 C     26  25  24     1.390605497937   118.61607868    75.76859395
 C     29  26  25     1.381104481388   120.30455315   182.57095401
 C     30  29  26     1.402412559566   119.57945082   359.88196336
 C     31  30  29     1.382102624543   119.89264125   358.39085839
 C     26  25  24     1.383475099338   121.57270889   256.53126673
 C     20   1   2     1.405646435415   118.31928878   179.80021973
 C     19   3   2     1.408325036717   118.15997195   179.57915243
 C     23  13  12     1.407338746210   117.99101574   356.55147248
 O     25  24  21     1.408825468869   110.43480165   183.70273621
 O     17   8   7     1.405068336064   112.25938044   189.96702648
 O     18   9   8     1.408916111200   112.23005952   191.53046099
 O     30  29  26     1.375399330329   125.63191364   179.84894373
 O     31  30  29     1.369819904209   119.64640868   179.29105865
 C     40  30  29     1.408641093419   117.98450889     8.56752850
 H      4   3   2     1.077360868448   120.26121872   181.09469938
 H      6   5   4     1.077865207814   119.06969353   179.85875942
 H      7   5   4     1.090683273385   108.79191893   315.52759239
 H      7   5   4     1.090446058923   110.27559607   196.94727216
 H      8   7   5     1.096293817398   107.75584515   319.60242430
 H      9   8   7     1.096854678739   105.96338486   196.79542119
 H     10   9   8     1.091621608380   109.23529116   294.76310629
 H     10   9   8     1.094003985243   107.77064403   178.67764693
 H     12  11  10     1.077220600280   119.29208008   358.92031138
 H     15  14  13     1.078455207831   118.67052371   179.63018495
 H     16  11  10     1.080292727321   119.73859430     1.07916975
 H     17   8   7     1.093407316336   110.79104399    71.84654359
 H     17   8   7     1.098208452055   108.74340702   312.96935112
 H     18   9   8     1.098578556842   110.01617084   314.42676134
 H     18   9   8     1.091857512180   110.85694383    74.32381426
 H     22  14  13     0.967098063450   107.48469735     0.16082276
 H     24  21   2     1.098086545132   111.39303954    50.95152329
 H     25  24  21     1.102531406815   107.55336090   304.55109654
 H     27  24  21     1.092202535173   109.52679387    70.51430028
 H     27  24  21     1.096435253142   108.07087856   312.83790758
 H     28  27  24     0.964333549501   108.82898730    63.88845478
 H     29  26  25     1.077086752509   118.49650850     3.54200423
 H     32  31  30     1.077950130570   119.02344719   182.68017447
 H     33  26  25     1.078692545277   119.92050037   357.74031072
 H     34  20   1     1.094872666899   111.70373000   298.37985910
 H     34  20   1     1.095408021829   111.68375059    61.17101633
 H     34  20   1     1.088986977969   105.58924905   179.81921698
 H     35  19   3     1.089820229510   105.53153333   181.07514291
 H     35  19   3     1.093981320960   111.76196820   300.24297929
 H     35  19   3     1.094402853080   111.43202520    62.94694688
 H     36  23  13     1.094070718167   111.34843453   301.96907510
 H     36  23  13     1.094157056426   111.33178802    64.69097632
 H     36  23  13     1.088827538931   105.62891929   183.17459053
 H     37  25  24     0.969836044743   108.18907236    46.75890005
 H     38  17   8     0.970572515882   107.69074504    62.00851570
 H     39  18   9     0.964024770696   108.37332746    59.63603626
 H     41  31  30     0.968873179389   107.34779369     1.27953343
 H     42  40  30     1.093406282481   111.48666451   296.88608592
 H     42  40  30     1.093921124402   111.08547664    59.15964650
 H     42  40  30     1.088668119226   105.33545170   178.36512727

---------------------------
INTERNAL COORDINATES (A.U.)
---------------------------
 C      0   0   0     0.000000000000     0.00000000     0.00000000
 C      1   0   0     2.656891914305     0.00000000     0.00000000
 C      2   1   0     2.645935157876   119.02009856     0.00000000
 C      3   2   1     2.625079121878   119.39506714   358.66853585
 C      4   3   2     2.617036372161   121.39673108     2.18773037
 C      5   4   3     2.618424840742   119.40445304   358.64507615
 C      5   4   3     2.840065137440   119.18011039   179.79633714
 C      7   5   4     2.902710494922   110.69980224    75.19857263
 C      8   7   5     2.905766175397   114.16343573   201.13914777
 C      9   8   7     2.902848513438   111.94515506    78.63308916
 C     10   9   8     2.840173878194   113.99525029    57.15074179
 C     11  10   9     2.632960698034   120.45985329    52.86858394
 C     12  11  10     2.611013340486   120.77286871   178.89781540
 C     13  12  11     2.655243765457   119.97150707   358.27753554
 C     14  13  12     2.612152380718   119.25961416     2.25820595
 C     11  10   9     2.618800120326   120.86070635   231.88845179
 C      8   7   5     2.902204902138   110.77218656    75.87572354
 C      9   8   7     2.899701805257   113.59969948   314.08166501
 O      3   2   1     2.593128179787   117.71823095   178.36677095
 O      1   2   3     2.574736394756   114.89974072   179.31770051
 O      2   1   3     2.596356605909   114.81058590   174.77926342
 O     14  13  12     2.573831341812   120.16566135   182.39706950
 O     13  12  11     2.606161077094   125.46773314   178.42428909
 C     21   2   1     2.667515068671   121.51522637   140.53589301
 C     24  21   2     2.937169523328   112.44946752   289.13811369
 C     25  24  21     2.847489416115   110.27301664    63.75013084
 C     24  21   2     2.909293538371   104.13543388   168.94783499
 O     27  24  21     2.663870417019   113.48239201   189.02229466
 C     26  25  24     2.627863551425   118.61607868    75.76859395
 C     29  26  25     2.609909232155   120.30455315   182.57095401
 C     30  29  26     2.650175664352   119.57945082   359.88196336
 C     31  30  29     2.611795449361   119.89264125   358.39085839
 C     26  25  24     2.614389050849   121.57270889   256.53126673
 C     20   1   2     2.656286804057   118.31928878   179.80021973
 C     19   3   2     2.661348626940   118.15997195   179.57915243
 C     23  13  12     2.659484807993   117.99101574   356.55147248
 O     25  24  21     2.662294306656   110.43480165   183.70273621
 O     17   8   7     2.655194354606   112.25938044   189.96702648
 O     18   9   8     2.662465595836   112.23005952   191.53046099
 O     30  29  26     2.599128059100   125.63191364   179.84894373
 O     31  30  29     2.588584471750   119.64640868   179.29105865
 C     40  30  29     2.661945887550   117.98450889     8.56752850
 H      4   3   2     2.035916988770   120.26121872   181.09469938
 H      6   5   4     2.036870052050   119.06969353   179.85875942
 H      7   5   4     2.061092685546   108.79191893   315.52759239
 H      7   5   4     2.060644415178   110.27559607   196.94727216
 H      8   7   5     2.071695077194   107.75584515   319.60242430
 H      9   8   7     2.072754951527   105.96338486   196.79542119
 H     10   9   8     2.062865881708   109.23529116   294.76310629
 H     10   9   8     2.067367921527   107.77064403   178.67764693
 H     12  11  10     2.035651920348   119.29208008   358.92031138
 H     15  14  13     2.037984990502   118.67052371   179.63018495
 H     16  11  10     2.041457399103   119.73859430     1.07916975
 H     17   8   7     2.066240380701   110.79104399    71.84654359
 H     17   8   7     2.075313212342   108.74340702   312.96935112
 H     18   9   8     2.076012609029   110.01617084   314.42676134
 H     18   9   8     2.063311675285   110.85694383    74.32381426
 H     22  14  13     1.827550484566   107.48469735     0.16082276
 H     24  21   2     2.075082841643   111.39303954    50.95152329
 H     25  24  21     2.083482412927   107.55336090   304.55109654
 H     27  24  21     2.063963674252   109.52679387    70.51430028
 H     27  24  21     2.071962352015   108.07087856   312.83790758
 H     28  27  24     1.822326310310   108.82898730    63.88845478
 H     29  26  25     2.035398984717   118.49650850     3.54200423
 H     32  31  30     2.037030532803   119.02344719   182.68017447
 H     33  26  25     2.038433493277   119.92050037   357.74031072
 H     34  20   1     2.069009491954   111.70373000   298.37985910
 H     34  20   1     2.070021166158   111.68375059    61.17101633
 H     34  20   1     2.057887151767   105.58924905   179.81921698
 H     35  19   3     2.059461768982   105.53153333   181.07514291
 H     35  19   3     2.067325092241   111.76196820   300.24297929
 H     35  19   3     2.068121672503   111.43202520    62.94694688
 H     36  23  13     2.067494028478   111.34843453   301.96907510
 H     36  23  13     2.067657184142   111.33178802    64.69097632
 H     36  23  13     2.057585855651   105.62891929   183.17459053
 H     37  25  24     1.832724519369   108.18907236    46.75890005
 H     38  17   8     1.834116248128   107.69074504    62.00851570
 H     39  18   9     1.821742802931   108.37332746    59.63603626
 H     41  31  30     1.830904967547   107.34779369     1.27953343
 H     42  40  30     2.066238426998   111.48666451   296.88608592
 H     42  40  30     2.067211337230   111.08547664    59.15964650
 H     42  40  30     2.057284596069   105.33545170   178.36512727

---------------------
BASIS SET INFORMATION
---------------------
There are 3 groups of distinct atoms

 Group   1 Type C   : 11s6p2d1f contracted to 5s3p2d1f pattern {62111/411/11/1}
 Group   2 Type O   : 11s6p2d1f contracted to 5s3p2d1f pattern {62111/411/11/1}
 Group   3 Type H   : 5s1p contracted to 3s1p pattern {311/1}

Atom   0C    basis set group =>   1
Atom   1C    basis set group =>   1
Atom   2C    basis set group =>   1
Atom   3C    basis set group =>   1
Atom   4C    basis set group =>   1
Atom   5C    basis set group =>   1
Atom   6C    basis set group =>   1
Atom   7C    basis set group =>   1
Atom   8C    basis set group =>   1
Atom   9C    basis set group =>   1
Atom  10C    basis set group =>   1
Atom  11C    basis set group =>   1
Atom  12C    basis set group =>   1
Atom  13C    basis set group =>   1
Atom  14C    basis set group =>   1
Atom  15C    basis set group =>   1
Atom  16C    basis set group =>   1
Atom  17C    basis set group =>   1
Atom  18O    basis set group =>   2
Atom  19O    basis set group =>   2
Atom  20O    basis set group =>   2
Atom  21O    basis set group =>   2
Atom  22O    basis set group =>   2
Atom  23C    basis set group =>   1
Atom  24C    basis set group =>   1
Atom  25C    basis set group =>   1
Atom  26C    basis set group =>   1
Atom  27O    basis set group =>   2
Atom  28C    basis set group =>   1
Atom  29C    basis set group =>   1
Atom  30C    basis set group =>   1
Atom  31C    basis set group =>   1
Atom  32C    basis set group =>   1
Atom  33C    basis set group =>   1
Atom  34C    basis set group =>   1
Atom  35C    basis set group =>   1
Atom  36O    basis set group =>   2
Atom  37O    basis set group =>   2
Atom  38O    basis set group =>   2
Atom  39O    basis set group =>   2
Atom  40O    basis set group =>   2
Atom  41C    basis set group =>   1
Atom  42H    basis set group =>   3
Atom  43H    basis set group =>   3
Atom  44H    basis set group =>   3
Atom  45H    basis set group =>   3
Atom  46H    basis set group =>   3
Atom  47H    basis set group =>   3
Atom  48H    basis set group =>   3
Atom  49H    basis set group =>   3
Atom  50H    basis set group =>   3
Atom  51H    basis set group =>   3
Atom  52H    basis set group =>   3
Atom  53H    basis set group =>   3
Atom  54H    basis set group =>   3
Atom  55H    basis set group =>   3
Atom  56H    basis set group =>   3
Atom  57H    basis set group =>   3
Atom  58H    basis set group =>   3
Atom  59H    basis set group =>   3
Atom  60H    basis set group =>   3
Atom  61H    basis set group =>   3
Atom  62H    basis set group =>   3
Atom  63H    basis set group =>   3
Atom  64H    basis set group =>   3
Atom  65H    basis set group =>   3
Atom  66H    basis set group =>   3
Atom  67H    basis set group =>   3
Atom  68H    basis set group =>   3
Atom  69H    basis set group =>   3
Atom  70H    basis set group =>   3
Atom  71H    basis set group =>   3
Atom  72H    basis set group =>   3
Atom  73H    basis set group =>   3
Atom  74H    basis set group =>   3
Atom  75H    basis set group =>   3
Atom  76H    basis set group =>   3
Atom  77H    basis set group =>   3
Atom  78H    basis set group =>   3
Atom  79H    basis set group =>   3
Atom  80H    basis set group =>   3
Atom  81H    basis set group =>   3
---------------------------------
AUXILIARY/J BASIS SET INFORMATION
---------------------------------
There are 3 groups of distinct atoms

 Group   1 Type C   : 12s5p4d2f1g contracted to 6s4p3d1f1g pattern {711111/2111/211/2/1}
 Group   2 Type O   : 12s5p4d2f1g contracted to 6s4p3d1f1g pattern {711111/2111/211/2/1}
 Group   3 Type H   : 5s2p1d contracted to 3s1p1d pattern {311/2/1}

Atom   0C    basis set group =>   1
Atom   1C    basis set group =>   1
Atom   2C    basis set group =>   1
Atom   3C    basis set group =>   1
Atom   4C    basis set group =>   1
Atom   5C    basis set group =>   1
Atom   6C    basis set group =>   1
Atom   7C    basis set group =>   1
Atom   8C    basis set group =>   1
Atom   9C    basis set group =>   1
Atom  10C    basis set group =>   1
Atom  11C    basis set group =>   1
Atom  12C    basis set group =>   1
Atom  13C    basis set group =>   1
Atom  14C    basis set group =>   1
Atom  15C    basis set group =>   1
Atom  16C    basis set group =>   1
Atom  17C    basis set group =>   1
Atom  18O    basis set group =>   2
Atom  19O    basis set group =>   2
Atom  20O    basis set group =>   2
Atom  21O    basis set group =>   2
Atom  22O    basis set group =>   2
Atom  23C    basis set group =>   1
Atom  24C    basis set group =>   1
Atom  25C    basis set group =>   1
Atom  26C    basis set group =>   1
Atom  27O    basis set group =>   2
Atom  28C    basis set group =>   1
Atom  29C    basis set group =>   1
Atom  30C    basis set group =>   1
Atom  31C    basis set group =>   1
Atom  32C    basis set group =>   1
Atom  33C    basis set group =>   1
Atom  34C    basis set group =>   1
Atom  35C    basis set group =>   1
Atom  36O    basis set group =>   2
Atom  37O    basis set group =>   2
Atom  38O    basis set group =>   2
Atom  39O    basis set group =>   2
Atom  40O    basis set group =>   2
Atom  41C    basis set group =>   1
Atom  42H    basis set group =>   3
Atom  43H    basis set group =>   3
Atom  44H    basis set group =>   3
Atom  45H    basis set group =>   3
Atom  46H    basis set group =>   3
Atom  47H    basis set group =>   3
Atom  48H    basis set group =>   3
Atom  49H    basis set group =>   3
Atom  50H    basis set group =>   3
Atom  51H    basis set group =>   3
Atom  52H    basis set group =>   3
Atom  53H    basis set group =>   3
Atom  54H    basis set group =>   3
Atom  55H    basis set group =>   3
Atom  56H    basis set group =>   3
Atom  57H    basis set group =>   3
Atom  58H    basis set group =>   3
Atom  59H    basis set group =>   3
Atom  60H    basis set group =>   3
Atom  61H    basis set group =>   3
Atom  62H    basis set group =>   3
Atom  63H    basis set group =>   3
Atom  64H    basis set group =>   3
Atom  65H    basis set group =>   3
Atom  66H    basis set group =>   3
Atom  67H    basis set group =>   3
Atom  68H    basis set group =>   3
Atom  69H    basis set group =>   3
Atom  70H    basis set group =>   3
Atom  71H    basis set group =>   3
Atom  72H    basis set group =>   3
Atom  73H    basis set group =>   3
Atom  74H    basis set group =>   3
Atom  75H    basis set group =>   3
Atom  76H    basis set group =>   3
Atom  77H    basis set group =>   3
Atom  78H    basis set group =>   3
Atom  79H    basis set group =>   3
Atom  80H    basis set group =>   3
Atom  81H    basis set group =>   3
--------------------------------------------------------------------------
WARNING: There was an error initializing an OpenFabrics device.

  Local host:   c01b01n05
  Local device: mlx5_0
--------------------------------------------------------------------------
--------------------------------------------------------------------------
WARNING: There is at least one non-excluded one OpenFabrics device found,
but there are no active ports detected (or Open MPI was unable to use
them).  This is most certainly not what you wanted.  Check your
cables, subnet manager configuration, etc.  The openib BTL will be
ignored for this job.

  Local host: c01b01n05
--------------------------------------------------------------------------


           ************************************************************
           *        Program running with 64 parallel MPI-processes    *
           *              working on a common directory               *
           ************************************************************
------------------------------------------------------------------------------
                             ORCA STARTUP CALCULATIONS
                           -- RI-GTO INTEGRALS CHOSEN --
------------------------------------------------------------------------------
------------------------------------------------------------------------------
                   ___                                                        
                  /   \      - P O W E R E D   B Y -                         
                 /     \                                                     
                 |  |  |   _    _      __       _____    __    __             
                 |  |  |  | |  | |    /  \     |  _  \  |  |  /  |          
                  \  \/   | |  | |   /    \    | | | |  |  | /  /          
                 / \  \   | |__| |  /  /\  \   | |_| |  |  |/  /          
                |  |  |   |  __  | /  /__\  \  |    /   |      \           
                |  |  |   | |  | | |   __   |  |    \   |  |\   \          
                \     /   | |  | | |  |  |  |  | |\  \  |  | \   \       
                 \___/    |_|  |_| |__|  |__|  |_| \__\ |__|  \__/        
                                                                              
                      - O R C A' S   B I G   F R I E N D -                    
                                      &                                       
                       - I N T E G R A L  F E E D E R -                       
                                                                              
 v1 FN, 2020, v2 2021, v3 2022-2024                                           
------------------------------------------------------------------------------


----------------------
SHARK INTEGRAL PACKAGE
----------------------

Number of atoms                             ...     82
Number of basis functions                   ...   1542
Number of shells                            ...    622
Maximum angular momentum                    ...      3
Integral batch strategy                     ... SHARK/LIBINT Hybrid
RI-J (if used) integral strategy            ... SPLIT-RIJ (Revised 2003 algorithm where possible)
Printlevel                                  ...      1
Contraction scheme used                     ... SEGMENTED contraction
Prescreening option                         ... SCHWARTZ
   Thresh                                   ... 2.500e-11
   Tcut                                     ... 2.500e-12
   Tpresel                                  ... 2.500e-12 
Coulomb Range Separation                    ... NOT USED
Exchange Range Separation                   ... NOT USED
Multipole approximations                    ... NOT USED
Finite Nucleus Model                        ... NOT USED
CABS basis                                  ... NOT available
Auxiliary Coulomb fitting basis             ... AVAILABLE
   # of basis functions in Aux-J            ...   2498
   # of shells in Aux-J                     ...    830
   Maximum angular momentum in Aux-J        ...      4
Auxiliary J/K fitting basis                 ... NOT available
Auxiliary Correlation fitting basis         ... NOT available
Auxiliary 'external' fitting basis          ... NOT available

Checking pre-screening integrals            ... done (  0.4 sec) Dimension = 622
   => SHARK Basis and OBASIS are compatible. Storing Pre-screening
Shell pair information
Shell pair cut-off parameter TPreSel        ...   2.5e-12
Total number of shell pairs                 ...    193753
Shell pairs after pre-screening             ...    115635
Total number of primitive shell pairs       ...    584784
Primitive shell pairs kept                  ...    217978
          la=0 lb=0:  32172 shell pairs
          la=1 lb=0:  34487 shell pairs
          la=1 lb=1:   9349 shell pairs
          la=2 lb=0:  15687 shell pairs
          la=2 lb=1:   8627 shell pairs
          la=2 lb=2:   1981 shell pairs
          la=3 lb=0:   7158 shell pairs
          la=3 lb=1:   3994 shell pairs
          la=3 lb=2:   1755 shell pairs
          la=3 lb=3:    425 shell pairs

Checking whether 4 symmetric matrices of dimension 1542 fit in memory
:Max Core in MB      =   6000.00
 MB in use           =    138.56
 MB left             =   5861.44
 MB needed           =     36.31
 Data fit in memory  = YES
[c01b01n05:2790444] 58 more processes have sent help message help-mpi-btl-openib.txt / error in device init
[c01b01n05:2790444] Set MCA parameter "orte_base_help_aggregate" to 0 to see all help / error messages
[c01b01n05:2790444] 4 more processes have sent help message help-mpi-btl-openib.txt / no active ports found
Calculating RI/J V-Matrix + Cholesky decomp.... done (  2.1 sec)
Calculating Nuclear repulsion               ... done (  0.1 sec) ENN=   5739.371872141857 Eh

Diagonalization of the overlap matrix:
Smallest eigenvalue                        ... 3.193e-06
Time for diagonalization                   ...   30.829 sec
Threshold for overlap eigenvalues          ... 1.000e-07
Number of eigenvalues below threshold      ... 0
Time for construction of square roots      ...    1.734 sec
Total time needed                          ...   32.892 sec

-------------------
DFT GRID GENERATION
-------------------

General Integration Accuracy     IntAcc      ... 4.388
Radial Grid Type                 RadialGrid  ... OptM3 with GC (2021)
Angular Grid (max. ang.)         AngularGrid ... 4 (Lebedev-302)
Angular grid pruning method      GridPruning ... 4 (adaptive)
Weight generation scheme         WeightScheme... mBecke (2022)
Basis function cutoff            BFCut       ... 1.0000e-11
Integration weight cutoff        WCut        ... 1.0000e-14
Partially contracted basis set               ... off
Rotationally invariant grid construction     ... off
Angular grids for H and He will be reduced by one unit

Total number of grid points                  ...   373659
Total number of batches                      ...     5879
Average number of points per batch           ...       63
Average number of grid points per atom       ...     4557

--------------------
COSX GRID GENERATION
--------------------

GRIDX 1
-------
General Integration Accuracy     IntAcc      ... 3.816
Radial Grid Type                 RadialGrid  ... OptM3 with GC (2021)
Angular Grid (max. ang.)         AngularGrid ... 1 (Lebedev-50)
Angular grid pruning method      GridPruning ... 4 (adaptive)
Weight generation scheme         WeightScheme... mBecke (2022)
Basis function cutoff            BFCut       ... 1.0000e-11
Integration weight cutoff        WCut        ... 1.0000e-14
Partially contracted basis set               ... on
Rotationally invariant grid construction     ... off
Angular grids for H and He will be reduced by one unit

Total number of grid points                  ...    47300
Total number of batches                      ...      414
Average number of points per batch           ...      114
Average number of grid points per atom       ...      577
UseSFitting                                  ... on

GRIDX 2
-------
General Integration Accuracy     IntAcc      ... 4.020
Radial Grid Type                 RadialGrid  ... OptM3 with GC (2021)
Angular Grid (max. ang.)         AngularGrid ... 2 (Lebedev-110)
Angular grid pruning method      GridPruning ... 4 (adaptive)
Weight generation scheme         WeightScheme... mBecke (2022)
Basis function cutoff            BFCut       ... 1.0000e-11
Integration weight cutoff        WCut        ... 1.0000e-14
Partially contracted basis set               ... on
Rotationally invariant grid construction     ... off
Angular grids for H and He will be reduced by one unit

[...]
freq.     628.39  E(vib)   ...       0.09 
freq.     636.73  E(vib)   ...       0.09 
freq.     659.91  E(vib)   ...       0.08 
freq.     667.58  E(vib)   ...       0.08 
freq.     699.94  E(vib)   ...       0.07 
freq.     729.84  E(vib)   ...       0.06 
freq.     747.21  E(vib)   ...       0.06 
freq.     747.64  E(vib)   ...       0.06 
freq.     756.66  E(vib)   ...       0.06 
freq.     768.30  E(vib)   ...       0.06 
freq.     792.40  E(vib)   ...       0.05 
freq.     813.80  E(vib)   ...       0.05 
freq.     819.34  E(vib)   ...       0.05 
freq.     819.85  E(vib)   ...       0.05 
freq.     833.22  E(vib)   ...       0.04 
freq.     839.77  E(vib)   ...       0.04 
freq.     849.41  E(vib)   ...       0.04 
freq.     855.44  E(vib)   ...       0.04 
freq.     871.45  E(vib)   ...       0.04 
freq.     879.22  E(vib)   ...       0.04 
freq.     881.27  E(vib)   ...       0.04 
freq.     901.73  E(vib)   ...       0.03 
freq.     902.90  E(vib)   ...       0.03 
freq.     931.95  E(vib)   ...       0.03 
freq.     941.49  E(vib)   ...       0.03 
freq.     949.87  E(vib)   ...       0.03 
freq.     956.72  E(vib)   ...       0.03 
freq.     960.73  E(vib)   ...       0.03 
freq.     966.45  E(vib)   ...       0.03 
freq.     970.48  E(vib)   ...       0.03 
freq.     999.40  E(vib)   ...       0.02 
freq.    1018.23  E(vib)   ...       0.02 
freq.    1022.52  E(vib)   ...       0.02 
freq.    1028.60  E(vib)   ...       0.02 
freq.    1037.65  E(vib)   ...       0.02 
freq.    1039.08  E(vib)   ...       0.02 
freq.    1048.27  E(vib)   ...       0.02 
freq.    1049.50  E(vib)   ...       0.02 
freq.    1060.79  E(vib)   ...       0.02 
freq.    1068.85  E(vib)   ...       0.02 
freq.    1077.13  E(vib)   ...       0.02 
freq.    1083.74  E(vib)   ...       0.02 
freq.    1103.72  E(vib)   ...       0.02 
freq.    1115.38  E(vib)   ...       0.01 
freq.    1127.22  E(vib)   ...       0.01 
freq.    1140.33  E(vib)   ...       0.01 
freq.    1142.45  E(vib)   ...       0.01 
freq.    1148.50  E(vib)   ...       0.01 
freq.    1169.99  E(vib)   ...       0.01 
freq.    1170.39  E(vib)   ...       0.01 
freq.    1170.94  E(vib)   ...       0.01 
freq.    1171.88  E(vib)   ...       0.01 
freq.    1172.15  E(vib)   ...       0.01 
freq.    1173.63  E(vib)   ...       0.01 
freq.    1177.26  E(vib)   ...       0.01 
freq.    1181.05  E(vib)   ...       0.01 
freq.    1192.36  E(vib)   ...       0.01 
freq.    1198.87  E(vib)   ...       0.01 
freq.    1203.08  E(vib)   ...       0.01 
freq.    1205.65  E(vib)   ...       0.01 
freq.    1207.03  E(vib)   ...       0.01 
freq.    1212.86  E(vib)   ...       0.01 
freq.    1220.66  E(vib)   ...       0.01 
freq.    1227.26  E(vib)   ...       0.01 
freq.    1228.01  E(vib)   ...       0.01 
freq.    1244.44  E(vib)   ...       0.01 
freq.    1247.33  E(vib)   ...       0.01 
freq.    1251.07  E(vib)   ...       0.01 
freq.    1261.70  E(vib)   ...       0.01 
freq.    1273.21  E(vib)   ...       0.01 
freq.    1285.72  E(vib)   ...       0.01 
freq.    1287.82  E(vib)   ...       0.01 
freq.    1294.94  E(vib)   ...       0.01 
freq.    1295.34  E(vib)   ...       0.01 
freq.    1311.66  E(vib)   ...       0.01 
freq.    1314.43  E(vib)   ...       0.01 
freq.    1330.20  E(vib)   ...       0.01 
freq.    1336.25  E(vib)   ...       0.01 
freq.    1343.14  E(vib)   ...       0.01 
freq.    1343.54  E(vib)   ...       0.01 
freq.    1347.59  E(vib)   ...       0.01 
freq.    1355.59  E(vib)   ...       0.01 
freq.    1364.98  E(vib)   ...       0.01 
freq.    1373.45  E(vib)   ...       0.01 
freq.    1378.93  E(vib)   ...       0.01 
freq.    1389.48  E(vib)   ...       0.00 
freq.    1389.77  E(vib)   ...       0.00 
freq.    1396.99  E(vib)   ...       0.00 
freq.    1402.63  E(vib)   ...       0.00 
freq.    1406.05  E(vib)   ...       0.00 
freq.    1406.70  E(vib)   ...       0.00 
freq.    1411.24  E(vib)   ...       0.00 
freq.    1420.21  E(vib)   ...       0.00 
freq.    1432.15  E(vib)   ...       0.00 
freq.    1448.45  E(vib)   ...       0.00 
freq.    1452.57  E(vib)   ...       0.00 
freq.    1459.64  E(vib)   ...       0.00 
freq.    1470.68  E(vib)   ...       0.00 
freq.    1478.84  E(vib)   ...       0.00 
freq.    1478.92  E(vib)   ...       0.00 
freq.    1479.32  E(vib)   ...       0.00 
freq.    1479.88  E(vib)   ...       0.00 
freq.    1481.04  E(vib)   ...       0.00 
freq.    1482.76  E(vib)   ...       0.00 
freq.    1484.78  E(vib)   ...       0.00 
freq.    1485.71  E(vib)   ...       0.00 
freq.    1488.54  E(vib)   ...       0.00 
freq.    1490.68  E(vib)   ...       0.00 
freq.    1491.58  E(vib)   ...       0.00 
freq.    1491.77  E(vib)   ...       0.00 
freq.    1494.12  E(vib)   ...       0.00 
freq.    1496.22  E(vib)   ...       0.00 
freq.    1499.06  E(vib)   ...       0.00 
freq.    1499.48  E(vib)   ...       0.00 
freq.    1508.14  E(vib)   ...       0.00 
freq.    1535.01  E(vib)   ...       0.00 
freq.    1542.40  E(vib)   ...       0.00 
freq.    1545.73  E(vib)   ...       0.00 
freq.    1627.68  E(vib)   ...       0.00 
freq.    1634.06  E(vib)   ...       0.00 
freq.    1642.54  E(vib)   ...       0.00 
freq.    1648.63  E(vib)   ...       0.00 
freq.    1648.87  E(vib)   ...       0.00 
freq.    1652.49  E(vib)   ...       0.00 
freq.    2996.37  E(vib)   ...       0.00 
freq.    3013.71  E(vib)   ...       0.00 
freq.    3016.53  E(vib)   ...       0.00 
freq.    3017.12  E(vib)   ...       0.00 
freq.    3021.69  E(vib)   ...       0.00 
freq.    3023.40  E(vib)   ...       0.00 
freq.    3025.77  E(vib)   ...       0.00 
freq.    3026.54  E(vib)   ...       0.00 
freq.    3026.58  E(vib)   ...       0.00 
freq.    3028.79  E(vib)   ...       0.00 
freq.    3037.84  E(vib)   ...       0.00 
freq.    3042.40  E(vib)   ...       0.00 
freq.    3060.20  E(vib)   ...       0.00 
freq.    3064.05  E(vib)   ...       0.00 
freq.    3070.00  E(vib)   ...       0.00 
freq.    3074.41  E(vib)   ...       0.00 
freq.    3076.90  E(vib)   ...       0.00 
freq.    3077.28  E(vib)   ...       0.00 
freq.    3084.52  E(vib)   ...       0.00 
freq.    3087.31  E(vib)   ...       0.00 
freq.    3089.55  E(vib)   ...       0.00 
freq.    3097.24  E(vib)   ...       0.00 
freq.    3134.70  E(vib)   ...       0.00 
freq.    3138.50  E(vib)   ...       0.00 
freq.    3142.34  E(vib)   ...       0.00 
freq.    3163.42  E(vib)   ...       0.00 
freq.    3170.54  E(vib)   ...       0.00 
freq.    3181.32  E(vib)   ...       0.00 
freq.    3187.76  E(vib)   ...       0.00 
freq.    3196.08  E(vib)   ...       0.00 
freq.    3203.64  E(vib)   ...       0.00 
freq.    3211.75  E(vib)   ...       0.00 
freq.    3212.88  E(vib)   ...       0.00 
freq.    3216.81  E(vib)   ...       0.00 
freq.    3580.81  E(vib)   ...       0.00 
freq.    3636.15  E(vib)   ...       0.00 
freq.    3703.21  E(vib)   ...       0.00 
freq.    3723.52  E(vib)   ...       0.00 
freq.    3766.77  E(vib)   ...       0.00 
freq.    3769.76  E(vib)   ...       0.00 

------------
INNER ENERGY
------------

The inner energy is: U= E(el) + E(ZPE) + E(vib) + E(rot) + E(trans)
    E(el)   - is the total energy from the electronic structure calculation
              = E(kin-el) + E(nuc-el) + E(el-el) + E(nuc-nuc)
    E(ZPE)  - the the zero temperature vibrational energy from the frequency calculation
    E(vib)  - the the finite temperature correction to E(ZPE) due to population
              of excited vibrational states
    E(rot)  - is the rotational thermal energy
    E(trans)- is the translational thermal energy

Summary of contributions to the inner energy U:
Electronic energy                ...  -2032.63387957 Eh
Zero point energy                ...      0.67896164 Eh     426.05 kcal/mol
Thermal vibrational correction   ...      0.04036093 Eh      25.33 kcal/mol
Thermal rotational correction    ...      0.00141627 Eh       0.89 kcal/mol
Thermal translational correction ...      0.00141627 Eh       0.89 kcal/mol
-----------------------------------------------------------------------
Total thermal energy                  -2031.91172446 Eh


Summary of corrections to the electronic energy:
(perhaps to be used in another calculation)
Total thermal correction                  0.04319347 Eh      27.10 kcal/mol
Non-thermal (ZPE) correction              0.67896164 Eh     426.05 kcal/mol
-----------------------------------------------------------------------
Total correction                          0.72215511 Eh     453.16 kcal/mol


--------
ENTHALPY
--------

The enthalpy is H = U + kB*T
                kB is Boltzmann's constant
Total thermal energy              ...  -2031.91172446 Eh 
Thermal Enthalpy correction       ...      0.00094421 Eh       0.59 kcal/mol
-----------------------------------------------------------------------
Total Enthalpy                    ...  -2031.91078026 Eh


Note: Only C1 symmetry has been detected, increase convergence thresholds 
      if your molecule has a higher symmetry. Symmetry factor of 1.0 is   
      used for the rotational entropy correction. 
 

Note: Rotational entropy computed according to Herzberg 
Infrared and Raman Spectra, Chapter V,1, Van Nostrand Reinhold, 1945 
Point Group:  C1, Symmetry Number:   1  
Rotational constants in cm-1:     0.004066     0.002161     0.001773 

Vibrational entropy computed according to the QRRHO of S. Grimme
Chem.Eur.J. 2012 18 9955 using a reference frequency of 100.0 cm-1


-------
ENTROPY
-------

The entropy contributions are T*S = T*(S(el)+S(vib)+S(rot)+S(trans))
     S(el)   - electronic entropy
     S(vib)  - vibrational entropy
     S(rot)  - rotational entropy
     S(trans)- translational entropy
The entropies will be listed as multiplied by the temperature to get
units of energy

Electronic entropy                ...      0.00000000 Eh      0.00 kcal/mol
Vibrational entropy               ...      0.07239179 Eh     45.43 kcal/mol
Rotational entropy                ...      0.01799789 Eh     11.29 kcal/mol
Translational entropy             ...      0.02138181 Eh     13.42 kcal/mol
-----------------------------------------------------------------------
Final entropy term                ...      0.11177149 Eh     70.14 kcal/mol

In case the symmetry of your molecule has not been determined correctly
or in case you have a reason to use a different symmetry number we print 
out the resulting rotational entropy values for sn=1,12:

 non-linear molecules -----------------------------------
|  sn= 1 | S(rot)=       0.01799789 Eh     11.29 kcal/mol|
|  sn= 2 | S(rot)=       0.01734344 Eh     10.88 kcal/mol|
|  sn= 3 | S(rot)=       0.01696060 Eh     10.64 kcal/mol|
|  sn= 4 | S(rot)=       0.01668898 Eh     10.47 kcal/mol|
|  sn= 5 | S(rot)=       0.01647829 Eh     10.34 kcal/mol|
|  sn= 6 | S(rot)=       0.01630615 Eh     10.23 kcal/mol|
|  sn= 7 | S(rot)=       0.01616060 Eh     10.14 kcal/mol|
|  sn= 8 | S(rot)=       0.01603452 Eh     10.06 kcal/mol|
|  sn= 9 | S(rot)=       0.01592331 Eh      9.99 kcal/mol|
|  sn=10 | S(rot)=       0.01582383 Eh      9.93 kcal/mol|
|  sn=11 | S(rot)=       0.01573384 Eh      9.87 kcal/mol|
|  sn=12 | S(rot)=       0.01565169 Eh      9.82 kcal/mol|
 linear molecules ---------------------------------------
|  Dinfh | S(rot)=       0.01130739 Eh      7.10 kcal/mol|
|  Cinfv | S(rot)=       0.01196185 Eh      7.51 kcal/mol|
 --------------------------------------------------------


-------------------
GIBBS FREE ENERGY
-------------------

The Gibbs free energy is G = H - T*S

Total enthalpy                    ...  -2031.91078026 Eh 
Total entropy correction          ...     -0.11177149 Eh    -70.14 kcal/mol
-----------------------------------------------------------------------
Final Gibbs free energy         ...  -2032.02255175 Eh

For completeness - the Gibbs free energy minus the electronic energy
G-E(el)                           ...      0.61132782 Eh    383.61 kcal/mol


Maximum memory used throughout the entire PROP-calculation: 1820.1 MB
--------------------------------------------------------------------------
WARNING: There was an error initializing an OpenFabrics device.

  Local host:   c01b01n05
  Local device: mlx5_0
--------------------------------------------------------------------------
--------------------------------------------------------------------------
WARNING: There is at least one non-excluded one OpenFabrics device found,
but there are no active ports detected (or Open MPI was unable to use
them).  This is most certainly not what you wanted.  Check your
cables, subnet manager configuration, etc.  The openib BTL will be
ignored for this job.

  Local host: c01b01n05
--------------------------------------------------------------------------
[c01b01n05:2887798] 58 more processes have sent help message help-mpi-btl-openib.txt / error in device init
[c01b01n05:2887798] Set MCA parameter "orte_base_help_aggregate" to 0 to see all help / error messages
[c01b01n05:2887798] 4 more processes have sent help message help-mpi-btl-openib.txt / no active ports found

--------------------------------
SUGGESTED CITATIONS FOR THIS RUN
--------------------------------

Below you find a list of papers that are relevant to this ORCA run
We neither can nor want to force you to cite these papers, but we appreciate if you do
You receive ORCA, which is the product of decades of hard work by many enthusiastic individuals, for free
The only thing we kindly ask in return is that you cite our papers,
We deeply appreciate it, if you show your appreciation for ORCA by not just citing the generic ORCA reference.

Please note that relegating all ORCA citations to the supporting information does *not* help us.
SI sections are not indexed - citations you put there will not count into any citation statistics
But we need these citations in order to attract the funding resources that allow us to do what we are doing

Therefore, if you are a happy ORCA user, please consider citing a few of the papers listed below in the main body of your paper

In addition to the list printed below, the program has created the file opt-conf-7.bibtex that contains the list in bibtex format
You can import this file easily into all common literature databanks and citation aid programs


List of essential papers. We consider these as the minimum necessary citations

  1. Neese, F.
     Software update: the ORCA program system, version 6.0
     WIRES Comput. Molec. Sci. 2025 15(1), e70019
     doi.org/10.1002/wcms.7019

List of papers to cite with high priority. The work reported in these papers was absolutely
necessary for this run to complete.
Our perspective: the developers of density functionals and basis sets usually get cited in chemistry papers
Good! But without the algorithms to do something with them, the functionals or basis sets would not do anything.
Hence, in our opinion, the algorithm design and method developments papers are equally worthy of getting cited

  1. Neese, F.
     An improvement of the resolution of the identity approximation for the formation of the Coulomb matrix
     J. Comp. Chem. 2003 24(14), 1740-1747
     doi.org/10.1002/jcc.10318
  2. Neese, F.; Wennmohs, F.; Hansen, A.; Becker, U.
     Efficient, approximate and parallel Hartree-Fock and hybrid DFT calculations. A 'chain-of-spheres' algorithm for the Hartree-Fock exchange
     Chem. Phys. 2009 356(1-3), 98-109
     doi.org/10.1016/j.chemphys.2008.10.036
  3. Bykov, D.; Petrenko, T.; Izsak, R.; Kossmann, S.; Becker, U.; Valeev, E.; Neese, F.
     Efficient implementation of the analytic second derivatives of Hartree-Fock and hybrid DFT energies: a detailed analysis of different approximations
     Molec. Phys. 2015 113 , 1961-1977
     doi.org/10.1080/00268976.2015.1025114
  4. Caldeweyher, E.; Bannwarth, C.; Grimme, S.
     Extension of the D3 dispersion coefficient model
     J. Chem. Phys. 2017 147 , 034112
     doi.org/10.1063/1.4993215
  5. Caldeweyher, E.; Ehlert, S.; Hansen, A.; Neugebauer, H.; Spicher, S.; Bannwarth, C.; Grimme, S.
     A generally applicable atomic-charge dependent London dispersion correction
     J. Chem. Phys. 2019 150 , 154122
     doi.org/10.1063/1.5090222
  6. Garcia-Rates, M.; Neese, F.
     Efficient implementation of the analytical second derivatives of hartree-fock and hybrid DFT energies within the framework of the conductor-like polarizable continuum model
     J. Comput. Chem. 2019 40 , 1816-1828
     doi.org/10.1002/jcc.25833
  7. Caldeweyher, E.; Mewes, J.; Ehlert, S.; Grimme, S.
     Extension and evaluation of the D4 London-dispersion model for periodic systems
     Phys. Chem. Chem. Phys. 2020 22(16), 8499-8512
     doi.org/10.1039/D0CP00502A
  8. Garcia-Rates, M.; Neese, F.
     Effect of the Solute Cavity on the Solvation Energy and its Derivatives within the Framework of the Gaussian Charge Scheme
     J. Comput. Chem. 2020 41 , 922-939
     doi.org/10.1002/jcc.26139
  9. Helmich-Paris, B.; de Souza, B.; Neese, F.; Izsák, R.
     An improved chain of spheres for exchange algorithm
     J. Chem. Phys. 2021 155(10), 104109
     doi.org/10.1063/5.0058766
 10. Neese, F.
     The SHARK Integral Generation and Digestion System
     J. Comp. Chem. 2022 44(3), 381
     doi.org/10.1002/jcc.26942
 11. Wittmann, L.; Gordiy, I.; Friede, M.; Helmich-Paris, B.; Grimme, S.; Hansen, A.; Bursch, M.
     Extension of the D3 and D4 London Dispersion Corrections to the full Actinides Series
     Phys. Chem. Chem. Phys. 2024 26(32), 21379-21394
     doi.org/10.1039/D4CP01514B

List of suggested additional citations. These are papers that are important in the 'surrounding' of 
of this run, or papers that preceded the highly important papers. If you like your results we are grateful for a citation.

  1. Izsak, R.; Neese, F.
     An overlap fitted chain of spheres exchange method
     J. Chem. Phys. 2011 135 , 144105
     doi.org/10.1063/1.3646921
  2. Izsak, R.; Hansen, A.; Neese, F.
     The resolution of identity and chain of spheres approximations for the LPNO-CCSD singles Fock term
     Molec. Phys. 2012 110 , 2413-2417
     doi.org/10.1080/00268976.2012.687466
  3. Neese, F.
     The ORCA program system
     WIRES Comput. Molec. Sci. 2012 2(1), 73-78
     doi.org/10.1002/wcms.81
  4. Izsak, R.; Neese, F.; Klopper, W.
     Robust fitting techniques in the chain of spheres approximation to the Fock exchange: The role of the complementary space
     J. Chem. Phys. 2013 139 , 
     doi.org/10.1063/1.4819264
  5. Neese, F.
     Software update: the ORCA program system, version 4.0
     WIRES Comput. Molec. Sci. 2018 8(1), 1-6
     doi.org/10.1002/wcms.1327
  6. Neese, F.; Wennmohs, F.; Becker, U.; Riplinger, C.
     The ORCA quantum chemistry program package
     J. Chem. Phys. 2020 152(22), 224108
     doi.org/10.1063/5.0004608
  7. Neese, F.
     Software update: The ORCA program system—Version 5.0
     WIRES Comput. Molec. Sci. 2022 12(1), e1606
     doi.org/10.1002/wcms.1606

List of optional additional citations

  1. Neese, F.
     Approximate second-order SCF convergence for spin unrestricted wavefunctions
     Chem. Phys. Lett. 2000 325(1-3), 93-98
     doi.org/10.1016/s0009-2614(00)00662-x

Timings for individual modules:

Sum of individual times          ...    19544.176 sec (= 325.736 min)
Startup calculation              ...     1841.836 sec (=  30.697 min)   9.4 %
SCF iterations                   ...    11098.272 sec (= 184.971 min)  56.8 %
Property integrals               ...     1569.100 sec (=  26.152 min)   8.0 %
SCF Response                     ...     3061.606 sec (=  51.027 min)  15.7 %
Property calculations            ...      703.015 sec (=  11.717 min)   3.6 %
SCF Gradient evaluation          ...     1261.022 sec (=  21.017 min)   6.5 %
Geometry relaxation              ...        9.325 sec (=   0.155 min)   0.0 %
                             ****ORCA TERMINATED NORMALLY****
TOTAL RUN TIME: 0 days 5 hours 32 minutes 17 seconds 368 msec
