
                                 *****************
                                 * O   R   C   A *
                                 *****************

                                            #,                                       
                                            ###                                      
                                            ####                                     
                                            #####                                    
                                            ######                                   
                                           ########,                                 
                                     ,,################,,,,,                         
                               ,,#################################,,                 
                          ,,##########################################,,             
                       ,#########################################, ''#####,          
                    ,#############################################,,   '####,        
                  ,##################################################,,,,####,       
                ,###########''''           ''''###############################       
              ,#####''   ,,,,##########,,,,          '''####'''          '####       
            ,##' ,,,,###########################,,,                        '##       
           ' ,,###''''                  '''############,,,                           
         ,,##''                                '''############,,,,        ,,,,,,###''
      ,#''                                            '''#######################'''  
     '                                                          ''''####''''         
             ,#######,   #######,   ,#######,      ##                                
            ,#'     '#,  ##    ##  ,#'     '#,    #''#        ,####,    ,#,          
            ##       ##  ##   ,#'  ##            #'  '#       #'       ,# #          
            ##       ##  #######   ##           ,######,      #####,      #          
            '#,     ,#'  ##    ##  '#,     ,#' ,#      #,     #,   #      #          
             '#######'   ##     ##  '#######'  #'      '#     '####' #    #          



                #########################################################
                #                        -***-                          #
                #          Department of theory and spectroscopy        #
                #                                                       #
                #                      Frank Neese                      #
                #                                                       #
                #     Directorship, Architecture, Infrastructure        #
                #                    SHARK, DRIVERS                     #
                #        Core code/Algorithms in most modules           #
                #                                                       #
                #        Max Planck Institute fuer Kohlenforschung      #
                #                Kaiser Wilhelm Platz 1                 #
                #                 D-45470 Muelheim/Ruhr                 #
                #                      Germany                          #
                #                                                       #
                #                  All rights reserved                  #
                #                        -***-                          #
                #########################################################


                         Program Version 6.1.0-f.0  -   RELEASE   -


 With contributions from (in alphabetic order):
[Max-Planck-Institut fuer Kohlenforschung]                               
  Daniel Aravena         : Magnetic Suceptibility                        
  Michael Atanasov       : Ab Initio Ligand Field Theory (pilot matlab implementation)
  Alexander A. Auer      : GIAO ZORA, VPT2 properties, NMR spectrum      
  Ute Becker             : All parallelization in ORCA, NUMFREQ, NUMCALC 
  Giovanni Bistoni       : ED, misc. LED, open-shell LED, HFLD           
  Dmytro Bykov           : pre 5.0 version of the SCF Hessian            
  Marcos Casanova-Páez   : Triplet and SCS-CIS(D). UHF-(DLPNO)-IP/EA/STEOM-CCSD. UHF-CVS-IP/STEOM-CCSD   
  Vijay G. Chilkuri      : MRCI spin determinant printing, contributions to CSF-ICE 
  Pauline Colinet        : FMM embedding                                 
  Dipayan Datta          : RHF DLPNO-CCSD density                        
  Achintya Kumar Dutta   : EOM-CC, STEOM-CC                              
  Nicolas Foglia         : Exact transition moments, OPA infrastructure, MCD improvements    
  Dmitry Ganyushin       : Spin-Orbit,Spin-Spin,Magnetic field MRCI      
  Miquel Garcia-Rates    : C-PCM and meta-GGA Hessian, CCSD/C-PCM, Gaussian charge scheme 
  Tiago L. C. Gouveia    : GS-ROHF, GS-ROCIS                             
  Yang Guo               : DLPNO-NEVPT2, F12-NEVPT2, CIM, IAO-localization        
  Andreas Hansen         : Spin unrestricted coupled pair/coupled cluster methods 
  Ingolf Harden          : AUTO-CI MPn and infrastructure                
  Benjamin Helmich-Paris : MC-RPA, TRAH-(SCF,CASSCF), AVAS, COSX integrals, SCF dyn. polar., MC-PDFT, srDFT 
  Lee Huntington         : MR-EOM, pCC                                   
  Robert Izsak           : Overlap fitted RIJCOSX, COSX-SCS-MP3, EOM     
  Riya Kayal             : Wick's Theorem for AUTO-CI, AUTO-CI UHF-CCSDT 
  Emily Kempfer          : AUTO-CI RHF CISDT and CCSDT, approximate NEVPT4
  Christian Kollmar      : KDIIS, OOCD, Brueckner-CCSD(T), CCSD density, CASPT2, CASPT2-K, improved NEVPT2 
  Axel Koslowski         : Symmetry handling                             
  Simone Kossmann        : meta-GGA functionals, TD-DFT gradient, OOMP2, (MP2 Hessian; deprecated post 5.0) 
  Lucas Lang             : DCDCAS, Hyperfine gauge corrections, ICE-SOC+SSC
  Marvin Lechner         : AUTO-CI (C++ implementation), FIC-MRCC        
  Spencer Leger          : CASSCF response                               
  Dagmar Lenk            : GEPOL surface, SMD, ORCA-2-JSON               
  Dimitrios Liakos       : Extrapolation schemes; Compound Job, Property file
  Dimitrios Manganas     : Further ROCIS development; embedding schemes. LFT, Crystal Embedding 
  Dimitrios Pantazis     : SARC Basis sets                               
  Anastasios Papadopoulos: AUTO-CI, single reference methods and gradients 
  Taras Petrenko         : pre 6.0 DFT Hessian and TD-DFT gradient,  ECA, NRVS 
  Petra Pikulova         : Analytic Raman intensities                    
  Peter Pinski           : DLPNO-MP2, DLPNO-MP2 Gradient                 
  Shashank Vittal Rao    : ES-AILFT, MagRelax                            
  Christoph Reimann      : Effective Core Potentials                     
  Marius Retegan         : Local ZFS, SOC                                
  Christoph Riplinger    : Optimizer, TS searches, QM/MM, DLPNO-CCSD(T), (RO)-DLPNO pert. Triples 
  Michael Roemelt        : Original ROCIS implementation, recursive CI coupling coefficients
  Masaaki Saitow         : Open-shell DLPNO-CCSD energy and density      
  Barbara Sandhoefer     : DKH picture change effects                    
  Yorick L. A. Schmerwitz: GMF and freeze-and-release deltaSCF, NEB S-IDPP initial path                    
  Kantharuban Sivalingam : CASSCF convergence/infrastructure, NEVPT2, NEVPT3, NEVPT4(SD), FIC-MRCI and CEPA variants
  Bernardo de Souza      : ESD, SOC TD-DFT                               
  Georgi L. Stoychev     : AutoAux, RI-MP2 NMR, DLPNO-MP2 response, X2C  
  Van Anh Tran           : RI-MP2 g-tensors                              
  Willem Van den Heuvel  : Paramagnetic NMR                              
  Zikuan Wang            : NOTCH, Electric field optimization            
  Frank Wennmohs         : Technical directorship and infrastructure     
  Hang Xu                : AUTO-CI-Response properties                   
                                                                         
[FACCTs GmbH]                                                            
  Markus Bursch, Nicolas Foglia, Miquel Garcia-Rates, Ingolf Harden, Hagen Neugebauer, Anastasios Papadopoulos, 
  Christoph Riplinger, Bernardo de Souza, Georgi L. Stoychev                                                    
                                                                 
  APM, various basis sets, CI-OPT, improved COSX, DLPNO-Multilevel,           
  DOCKER, DRACO, updates on ESD, Fragmentator, GOAT, IRC, LR-CPCM, L-BFGS, MBIS, meta-GGA TD-DFT gradient, ML-optimized integration grids, 
  MM, NACMEs, nearIR, NEB, NEB-TS, NL-DFT gradient (VV10), 2- and 3-layer-ONIOM, interface openCOSMO-RS, QMMM,   
  Crystal-QMMM, RESP, rigid body optimization, SF, symmetry and pop. for TD-DFT, various functionals, SOLVATOR                                   
                                                                         
[Other institutions]                                                     
  V. Asgeirsson          : NEB                                           
  Christoph Bannwarth    : sTDA-DFT, sTD-DFT, PBEh-3c, B97-3c, D3        
  Giovanni Bistoni       : ETS/NOCV, ADLD/ADEX, COVALED                  
  Martin Brehm           : Molecular dynamics                            
  Ronald Cardenas        : ETS/NOCV                                      
  Martina Colucci        : COVALED                                       
  Sebastian Ehlert       : rSCAN, r2SCAN, r2SCAN-3c, D4, dhf basis sets  
  Marvin Friede          : D4 for Fr, Ra, Ac-Lr                          
  Lars Goerigk           : TD-DFT with DH, B97 family of functionals     
  Stefan Grimme          : VdW corrections, initial TS optimization, DFT functionals, gCP, sTDA/sTD-DF 
  Waldemar Hujo          : DFT-NL                                        
  H. Jonsson             : NEB                                           
  Holger Kruse           : gCP                                           
  Marcel Mueller         : wB97X-3c, vDZP basis set                      
  Hagen Neugebauer       : wr2SCAN, Native XTB                           
  Gianluca Regni         : ADLD/ADEX                                     
  Tobias Risthaus        : pre 6.0 range-separated hybrid DFT and stability analysis
  Lukas Wittmann         : regularized MP2, r2SCAN double-hybrids, wr2SCAN        
                                                                         
We gratefully acknowledge several colleagues who have allowed us to      
interface, adapt or use parts of their codes:                            
  Ed Valeev, F. Pavosevic, A. Kumar             : LibInt (2-el integral package), F12 methods 
  Garnet Chan, S. Sharma, J. Yang, R. Olivares  : DMRG                   
  Ulf Ekstrom                                   : XCFun DFT Library      
  Mihaly Kallay                                 : mrcc  (arbitrary order and MRCC methods)
  Frank Weinhold                                : gennbo (NPA and NBO analysis)           
  Simon Mueller                                 : openCOSMO-RS                            
  Christopher J. Cramer and Donald G. Truhlar   : smd solvation model                     
  S Lehtola, MJT Oliveira, MAL Marques          : LibXC Library                           
  Liviu Ungur et al                             : ANISO software                          


 Your calculation uses the libint2 library for the computation of 2-el integrals
 For citations please refer to: http://libint.valeyev.net

 Your ORCA version has been built with support for libXC version: 7.0.0
 For citations please refer to: https://libxc.gitlab.io

 This ORCA versions uses:
   CBLAS   interface :  Fast vector & matrix operations
   LAPACKE interface :  Fast linear algebra routines
   SCALAPACK package :  Parallel linear algebra routines
   Shared memory     :  Shared parallel matrices
   BLAS/LAPACK       :  OpenBLAS 0.3.29  USE64BITINT DYNAMIC_ARCH NO_AFFINITY Cooperlake SINGLE_THREADED
        Core in use  :  Cooperlake
   Copyright (c) 2011-2014, The OpenBLAS Project


  ***********************************
  * Starting time: Wed Mar  4 05:49:54 2026
  * Host name:     c09b01n03
  * Process ID:    3853706
  * Working dir.:  /lustre1/jiangy/jiangy_liuxy/NMR/B9D7C2-SRSR
  ***********************************

NOTE: MaxCore=6000 MB was set to SCF,MP2,MDCI,CIPSI,MRCI,RASCI and CIS
      => If you want to overwrite this, your respective input block should be placed after the MaxCore statement


***************************************
The coordinates will be read from file: conf-0.xyz
***************************************


Your calculation utilizes the atom-pairwise dispersion correction
based on EEQ partial charges (D4)


Warning: RI is on but no J-basis has been assigned. Assigning Def2/J (nothing to worry about!)
================================================================================

----- Orbital basis set information -----
Your calculation utilizes the basis: def2-TZVP
   F. Weigend and R. Ahlrichs, Phys. Chem. Chem. Phys. 7, 3297 (2005).

----- AuxJ basis set information -----
Your calculation utilizes the auxiliary basis: def2/J
   H-Rn: F. Weigend, Phys. Chem. Chem. Phys. 8, 1057 (2006).
   Fr-Lr: K. Eichkorn, F. Weigend, O. Treutler, R. Ahlrichs; Theor. Chem. Acc. 97, 119 (1997).

================================================================================
                                        WARNINGS
                       Please study these warnings very carefully!
================================================================================


WARNING: Geometry Optimization
  ===> : Switching off AutoStart
         For restart on a previous wavefunction, please use MOREAD

================================================================================
                                       INPUT FILE
================================================================================
NAME = opt-conf-0.inp
|  1> ! B3LYP OPT FREQ DEF2-TZVP D4 CPCM(Methanol) 
|  2> ! TightOpt
|  3> %pal nprocs 64 end
|  4> %maxcore 6000
|  5> 
|  6> %cpcm
|  7> end
|  8> 
|  9> %freq
| 10>    Temp 298.15
| 11> end
| 12> 
| 13> * xyzfile 0 1 conf-0.xyz
| 14> 
| 15> 
| 16>                          ****END OF INPUT****
================================================================================

                       *****************************
                       * Geometry Optimization Run *
                       *****************************

Geometry optimization settings:
Update method            Update   .... BFGS
Choice of coordinates    CoordSys .... (2022) Redundant Internals
Initial Hessian          InHess   .... Almloef's Model
Max. no of cycles        MaxIter  .... 246

Convergence Tolerances:
Energy Change            TolE     ....  1.0000e-06 Eh
Max. Gradient            TolMAXG  ....  1.0000e-04 Eh/bohr
RMS Gradient             TolRMSG  ....  3.0000e-05 Eh/bohr
Max. Displacement        TolMAXD  ....  1.0000e-03 bohr
RMS Displacement         TolRMSD  ....  6.0000e-04 bohr
Strict Convergence                .... False

------------------------------------------------------------------------------
                        ORCA OPTIMIZATION COORDINATE SETUP
------------------------------------------------------------------------------

The optimization will be done in redundant internal coordinates (2022)
Making redundant internal coordinates   ...  (2022 redundants) done
Evaluating the initial hessian          ...  (Almloef) done
Evaluating the coordinates              ...  done
Calculating the B-matrix                .... done
Calculating the G-matrix                .... done
The number of degrees of freedom        ....  405

    -----------------------------------------------------------------
                    Redundant Internal Coordinates


    -----------------------------------------------------------------
         Definition                    Initial Value    Approx d2E/dq
    -----------------------------------------------------------------
      1. B(C   1,C   0)                  1.4037         0.594090   
      2. B(C   2,C   1)                  1.4004         0.601325   
      3. B(C   3,C   2)                  1.3883         0.628782   
      4. B(C   4,C   3)                  1.3856         0.634902   
      5. B(C   5,C   4)                  1.3855         0.635182   
      6. B(C   5,C   0)                  1.3875         0.630599   
      7. B(C   6,C   4)                  1.5032         0.412155   
      8. B(C   7,C   6)                  1.5361         0.365345   
      9. B(C   8,C   7)                  1.5378         0.363057   
     10. B(C   9,C   8)                  1.5362         0.365102   
     11. B(C  10,C   9)                  1.5031         0.412339   
     12. B(C  11,C  10)                  1.3933         0.617173   
     13. B(C  12,C  11)                  1.3816         0.644435   
     14. B(C  13,C  12)                  1.4050         0.591215   
     15. B(C  14,C  13)                  1.3823         0.642810   
     16. B(C  15,C  10)                  1.3859         0.634368   
     17. B(C  15,C  14)                  1.3861         0.633776   
     18. B(C  16,C   7)                  1.5355         0.366077   
     19. B(C  17,C   8)                  1.5345         0.367400   
     20. B(O  18,C   2)                  1.3689         0.604728   
     21. B(O  19,C   0)                  1.3653         0.612822   
     22. B(O  20,C   1)                  1.3734         0.594814   
     23. B(O  21,C  13)                  1.3618         0.620597   
     24. B(O  22,C  12)                  1.3795         0.581564   
     25. B(C  23,O  20)                  1.4186         0.503847   
     26. B(C  24,C  23)                  1.5546         0.341252   
     27. B(C  25,C  24)                  1.5058         0.408379   
     28. B(C  26,C  23)                  1.5362         0.365173   
     29. B(O  27,C  26)                  1.4040         0.531459   
     30. B(C  28,C  25)                  1.3909         0.622716   
     31. B(C  29,C  28)                  1.3815         0.644636   
     32. B(C  30,C  29)                  1.4031         0.595383   
     33. B(C  31,C  30)                  1.3817         0.644216   
     34. B(C  32,C  31)                  1.3843         0.637966   
     35. B(C  32,C  25)                  1.3834         0.640102   
     36. B(C  33,O  19)                  1.4060         0.527710   
     37. B(C  34,O  18)                  1.4083         0.523281   
     38. B(C  35,O  22)                  1.4076         0.524620   
     39. B(O  36,C  24)                  1.4122         0.515791   
     40. B(O  37,C  16)                  1.4049         0.529697   
     41. B(O  38,C  17)                  1.4088         0.522255   
     42. B(O  39,C  29)                  1.3744         0.592547   
     43. B(O  40,C  30)                  1.3691         0.604361   
     44. B(C  41,O  39)                  1.4088         0.522165   
     45. B(H  42,C   3)                  1.0775         0.377048   
     46. B(H  43,C   5)                  1.0779         0.376442   
     47. B(H  44,C   6)                  1.0908         0.359092   
     48. B(H  45,C   6)                  1.0905         0.359478   
     49. B(H  46,C   7)                  1.0963         0.351798   
     50. B(H  47,C   8)                  1.0969         0.351150   
     51. B(H  48,C   9)                  1.0917         0.357884   
     52. B(H  49,C   9)                  1.0940         0.354837   
     53. B(H  50,C  11)                  1.0772         0.377455   
     54. B(H  51,C  14)                  1.0785         0.375661   
     55. B(H  52,C  15)                  1.0803         0.373148   
     56. B(H  53,C  16)                  1.0934         0.355668   
     57. B(H  54,C  16)                  1.0984         0.349100   
     58. B(H  55,C  17)                  1.0986         0.348918   
     59. B(H  56,C  17)                  1.0919         0.357654   
     60. B(H  57,O  21)                  0.9671         0.506601   
     61. B(H  57,O  22)                  2.1120         0.010000   
     62. B(H  58,C  23)                  1.0942         0.354582   
     63. B(H  59,C  24)                  1.0997         0.347496   
     64. B(H  60,C  26)                  1.0985         0.349037   
     65. B(H  61,C  26)                  1.0920         0.357453   
     66. B(H  62,O  20)                  2.4092         0.010000   
     67. B(H  62,O  27)                  0.9661         0.508417   
     68. B(H  63,C  28)                  1.0770         0.377685   
     69. B(H  64,C  31)                  1.0778         0.376619   
     70. B(H  65,C  32)                  1.0788         0.375162   
     71. B(H  66,H  64)                  4.2344         0.010000   
     72. B(H  66,C  33)                  1.0952         0.353325   
     73. B(H  67,C  33)                  1.0891         0.361297   
     74. B(H  68,C  33)                  1.0947         0.353980   
     75. B(H  69,C  34)                  1.0896         0.360626   
     76. B(H  70,C  34)                  1.0942         0.354565   
     77. B(H  71,C  34)                  1.0943         0.354429   
     78. B(H  72,C  35)                  1.0941         0.354739   
     79. B(H  73,C  35)                  1.0888         0.361658   
     80. B(H  74,H  64)                  4.9540         0.010000   
     81. B(H  74,C  35)                  1.0940         0.354849   
     82. B(H  75,O  36)                  0.9635         0.513254   
     83. B(H  76,O  40)                  1.9596         0.013216   
     84. B(H  76,O  37)                  0.9705         0.500268   
     85. B(H  77,O  38)                  0.9640         0.512333   
     86. B(H  78,O  39)                  2.1017         0.010000   
     87. B(H  78,O  40)                  0.9688         0.503489   
     88. B(H  79,O  21)                  2.3969         0.010000   
     89. B(H  79,C  41)                  1.0887         0.361817   
     90. B(H  80,H  70)                  2.5281         0.010000   
     91. B(H  80,C  41)                  1.0931         0.356037   
     92. B(H  81,C  41)                  1.0940         0.354907   
     93. A(C   1,C   0,O  19)          114.8661         0.427044   
     94. A(C   5,C   0,O  19)          124.7260         0.431638   
     95. A(C   1,C   0,C   5)          120.4074         0.432062   
     96. A(C   0,C   1,O  20)          115.6291         0.424769   
     97. A(C   0,C   1,C   2)          119.2349         0.428391   
     98. A(C   2,C   1,O  20)          124.9325         0.425691   
     99. A(C   3,C   2,O  18)          123.2622         0.430385   
    100. A(C   1,C   2,C   3)          119.3107         0.432778   
    101. A(C   1,C   2,O  18)          117.4259         0.426953   
    102. A(C   4,C   3,H  42)          118.4037         0.357108   
    103. A(C   2,C   3,H  42)          120.2625         0.356521   
    104. A(C   2,C   3,C   4)          121.3249         0.437032   
    105. A(C   5,C   4,C   6)          121.5494         0.405332   
    106. A(C   3,C   4,C   6)          118.9360         0.405301   
    107. A(C   3,C   4,C   5)          119.5107         0.437831   
    108. A(C   4,C   5,H  43)          119.1074         0.357037   
    109. A(C   0,C   5,H  43)          120.7071         0.356598   
    110. A(C   0,C   5,C   4)          120.1855         0.437294   
    111. A(C   4,C   6,H  44)          108.6116         0.329460   
    112. A(C   7,C   6,H  45)          109.8409         0.323044   
    113. A(C   4,C   6,C   7)          110.8761         0.368112   
    114. A(H  44,C   6,H  45)          108.1988         0.290633   
    115. A(C   4,C   6,H  45)          110.3169         0.329518   
    116. A(C   7,C   6,H  44)          108.9335         0.322987   
    117. A(C   6,C   7,C  16)          110.6826         0.360722   
    118. A(C   8,C   7,C  16)          110.3572         0.360336   
    119. A(C  16,C   7,H  46)          106.6028         0.322008   
    120. A(C   8,C   7,H  46)          106.7827         0.321572   
    121. A(C   6,C   7,H  46)          107.8087         0.321903   
    122. A(C   6,C   7,C   8)          114.2152         0.360213   
    123. A(C   7,C   8,C  17)          113.5864         0.360557   
    124. A(C  17,C   8,H  47)          107.0658         0.322101   
    125. A(C   7,C   8,C   9)          111.9745         0.360172   
    126. A(C   9,C   8,H  47)          108.5577         0.321770   
    127. A(C   7,C   8,H  47)          105.9677         0.321475   
    128. A(C   9,C   8,C  17)          109.4061         0.360903   
    129. A(H  48,C   9,H  49)          107.1143         0.289887   
    130. A(C  10,C   9,H  48)          109.1002         0.329300   
    131. A(C  10,C   9,H  49)          109.3368         0.328836   
    132. A(C   8,C   9,C  10)          114.0719         0.368098   
    133. A(C   8,C   9,H  48)          109.2246         0.322773   
    134. A(C   8,C   9,H  49)          107.7619         0.322321   
    135. A(C   9,C  10,C  11)          120.5336         0.403311   
    136. A(C  11,C  10,C  15)          118.6632         0.435501   
    137. A(C   9,C  10,C  15)          120.7972         0.405272   
    138. A(C  10,C  11,C  12)          120.7647         0.436738   
    139. A(C  10,C  11,H  50)          119.3107         0.355460   
    140. A(C  12,C  11,H  50)          119.9246         0.358079   
    141. A(C  11,C  12,C  13)          120.0009         0.433373   
    142. A(C  13,C  12,O  22)          114.5426         0.422695   
    143. A(C  11,C  12,O  22)          125.4565         0.429269   
    144. A(C  12,C  13,O  21)          120.2061         0.427638   
    145. A(C  12,C  13,C  14)          119.2450         0.433176   
    146. A(C  14,C  13,O  21)          120.5488         0.434112   
    147. A(C  13,C  14,H  51)          118.6629         0.357636   
    148. A(C  13,C  14,C  15)          120.1437         0.438634   
    149. A(C  15,C  14,H  51)          121.1910         0.356777   
    150. A(C  14,C  15,H  52)          119.0946         0.356370   
    151. A(C  10,C  15,H  52)          119.7464         0.356427   
    152. A(C  10,C  15,C  14)          121.1458         0.437590   
    153. A(O  37,C  16,H  54)          110.9284         0.339809   
    154. A(C   7,C  16,H  54)          108.6886         0.321602   
    155. A(O  37,C  16,H  53)          105.8066         0.340869   
    156. A(C   7,C  16,H  53)          110.8087         0.322586   
    157. A(C   7,C  16,O  37)          112.2993         0.382123   
    158. A(H  53,C  16,H  54)          108.2256         0.288866   
    159. A(O  38,C  17,H  56)          105.1079         0.340381   
    160. A(C   8,C  17,O  38)          112.2360         0.381425   
    161. A(H  55,C  17,H  56)          108.3953         0.289095   
    162. A(C   8,C  17,H  56)          110.8634         0.323071   
    163. A(O  38,C  17,H  55)          110.0616         0.338977   
    164. A(C   8,C  17,H  55)          110.0158         0.321765   
    165. A(C   2,O  18,C  34)          118.2148         0.413790   
    166. A(C   0,O  19,C  33)          118.2380         0.415391   
    167. A(C   1,O  20,C  23)          120.3858         0.409817   
    168. A(C  13,O  21,H  57)          107.5012         0.368526   
    169. A(C  12,O  22,C  35)          118.0225         0.411118   
    170. A(C  26,C  23,H  58)          109.2629         0.322294   
    171. A(C  24,C  23,H  58)          109.6120         0.318743   
    172. A(O  20,C  23,H  58)          111.3734         0.337861   
    173. A(C  24,C  23,C  26)          111.1984         0.356409   
    174. A(O  20,C  23,C  26)          104.4261         0.378660   
    175. A(O  20,C  23,C  24)          110.8761         0.374252   
    176. A(C  23,C  24,O  36)          110.7224         0.375769   
    177. A(O  36,C  24,H  59)          110.4376         0.338043   
    178. A(C  25,C  24,H  59)          109.0358         0.327183   
    179. A(C  23,C  24,H  59)          107.5507         0.317696   
    180. A(C  25,C  24,O  36)          108.8052         0.387665   
    181. A(C  23,C  24,C  25)          110.2712         0.363263   
    182. A(C  28,C  25,C  32)          119.8001         0.436911   
    183. A(C  24,C  25,C  32)          121.1562         0.405226   
    184. A(C  24,C  25,C  28)          119.0433         0.403261   
    185. A(O  27,C  26,H  61)          107.1005         0.341344   
    186. A(H  60,C  26,H  61)          108.6384         0.289085   
    187. A(C  23,C  26,H  61)          110.6210         0.322720   
    188. A(O  27,C  26,H  60)          110.7367         0.339987   
    189. A(C  23,C  26,H  60)          107.8778         0.321463   
    190. A(C  23,C  26,O  27)          111.8389         0.382179   
    191. A(C  26,O  27,H  62)          106.6422         0.359105   
    192. A(C  29,C  28,H  63)          121.1985         0.358135   
    193. A(C  25,C  28,H  63)          118.5677         0.356036   
    194. A(C  25,C  28,C  29)          120.2309         0.437467   
    195. A(C  30,C  29,O  39)          114.6871         0.424644   
    196. A(C  28,C  29,O  39)          125.7102         0.430737   
    197. A(C  28,C  29,C  30)          119.6026         0.433945   
    198. A(C  31,C  30,O  40)          120.3102         0.432217   
    199. A(C  29,C  30,O  40)          119.7774         0.426148   
    200. A(C  29,C  30,C  31)          119.9078         0.433894   
    201. A(C  32,C  31,H  64)          120.8707         0.357331   
    202. A(C  30,C  31,H  64)          119.0911         0.357924   
    203. A(C  30,C  31,C  32)          120.0309         0.439329   
    204. A(C  31,C  32,H  65)          119.6331         0.357096   
    205. A(C  25,C  32,H  65)          120.0074         0.357299   
    206. A(C  25,C  32,C  31)          120.3592         0.438822   
    207. A(H  67,C  33,H  68)          109.1960         0.290209   
    208. A(H  66,C  33,H  68)          109.3465         0.289195   
    209. A(O  19,C  33,H  68)          111.6478         0.340384   
    210. A(H  66,C  33,H  67)          109.2500         0.290125   
    211. A(O  19,C  33,H  67)          105.6605         0.341551   
    212. A(O  19,C  33,H  66)          111.6390         0.340279   
    213. A(H  69,C  34,H  71)          109.0085         0.290182   
    214. A(O  18,C  34,H  71)          111.4178         0.339977   
    215. A(H  69,C  34,H  70)          109.7330         0.290199   
    216. A(O  18,C  34,H  70)          111.7611         0.339999   
    217. A(O  18,C  34,H  69)          105.4867         0.340964   
    218. A(H  70,C  34,H  71)          109.3373         0.289412   
    219. A(H  73,C  35,H  74)          109.5001         0.290366   
    220. A(H  72,C  35,H  74)          109.6874         0.289488   
    221. A(O  22,C  35,H  74)          111.3568         0.340190   
    222. A(H  72,C  35,H  73)          109.2692         0.290352   
    223. A(O  22,C  35,H  73)          105.6105         0.341273   
    224. A(O  22,C  35,H  72)          111.3171         0.340172   
    225. A(C  24,O  36,H  75)          107.8949         0.357857   
    226. A(C  16,O  37,H  76)          107.9453         0.357917   
    227. A(C  17,O  38,H  77)          108.3965         0.358507   
    228. A(C  29,O  39,C  41)          118.0720         0.412141   
    229. A(C  30,O  40,H  78)          107.3789         0.366467   
    230. A(H  80,C  41,H  81)          109.3985         0.289661   
    231. A(H  79,C  41,H  81)          110.1281         0.290394   
    232. A(O  39,C  41,H  81)          111.0754         0.339932   
    233. A(H  79,C  41,H  80)          109.3612         0.290539   
    234. A(O  39,C  41,H  80)          111.4782         0.340113   
    235. A(O  39,C  41,H  79)          105.3259         0.341030   
    236. D(O  20,C   1,C   0,O  19)     -5.8212         0.024306   
    237. D(C   2,C   1,C   0,O  19)    179.1064         0.024306   
    238. D(C   2,C   1,C   0,C   5)     -0.6462         0.024306   
    239. D(O  20,C   1,C   0,C   5)    174.4263         0.024306   
    240. D(O  18,C   2,C   1,C   0)    178.8784         0.024933   
    241. D(C   3,C   2,C   1,C   0)     -0.7387         0.024933   
    242. D(C   3,C   2,C   1,O  20)   -175.3181         0.024933   
    243. D(O  18,C   2,C   1,O  20)      4.2989         0.024933   
    244. D(C   4,C   3,C   2,C   1)      1.7856         0.027406   
    245. D(H  42,C   3,C   2,O  18)      1.0832         0.027406   
    246. D(C   4,C   3,C   2,O  18)   -177.8079         0.027406   
    247. D(H  42,C   3,C   2,C   1)   -179.3234         0.027406   
    248. D(C   6,C   4,C   3,H  42)      0.3811         0.027977   
    249. D(C   5,C   4,C   3,H  42)    179.6694         0.027977   
    250. D(C   5,C   4,C   3,C   2)     -1.4195         0.027977   
    251. D(C   6,C   4,C   3,C   2)    179.2922         0.027977   
    252. D(H  43,C   5,C   4,C   6)     -0.6655         0.028003   
    253. D(H  43,C   5,C   4,C   3)   -179.9346         0.028003   
    254. D(C   0,C   5,C   4,C   3)     -0.0015         0.028003   
    255. D(C   4,C   5,C   0,O  19)   -178.7030         0.027575   
    256. D(H  43,C   5,C   0,C   1)   -179.0442         0.027575   
    257. D(H  43,C   5,C   0,O  19)      1.2289         0.027575   
    258. D(C   0,C   5,C   4,C   6)    179.2676         0.028003   
    259. D(C   4,C   5,C   0,C   1)      1.0238         0.027575   
    260. D(H  45,C   6,C   4,C   3)   -164.9395         0.012577   
    261. D(H  44,C   6,C   4,C   5)    134.2181         0.012577   
    262. D(H  44,C   6,C   4,C   3)    -46.5087         0.012577   
    263. D(C   7,C   6,C   4,C   5)   -106.1209         0.012577   
    264. D(C   7,C   6,C   4,C   3)     73.1523         0.012577   
    265. D(C   8,C   7,C   6,H  44)    -38.0242         0.010687   
    266. D(C   8,C   7,C   6,C   4)   -157.4923         0.010687   
    267. D(C  16,C   7,C   6,H  45)    -44.9530         0.010687   
    268. D(C  16,C   7,C   6,H  44)   -163.2987         0.010687   
    269. D(C   8,C   7,C   6,H  45)     80.3215         0.010687   
    270. D(C  16,C   7,C   6,C   4)     77.2331         0.010687   
    271. D(C  17,C   8,C   7,H  46)   -165.1064         0.010563   
    272. D(C  17,C   8,C   7,C  16)     79.4112         0.010563   
    273. D(C  17,C   8,C   7,C   6)    -46.0349         0.010563   
    274. D(C   9,C   8,C   7,C  16)   -156.0387         0.010563   
    275. D(C   9,C   8,C   7,H  46)    -40.5564         0.010563   
    276. D(C   9,C   8,C   7,C   6)     78.5151         0.010563   
    277. D(H  48,C   9,C   8,C  17)     61.1244         0.010674   
    278. D(H  48,C   9,C   8,C   7)    -65.7179         0.010674   
    279. D(C  10,C   9,C   8,H  47)    -59.9909         0.010674   
    280. D(C  10,C   9,C   8,C  17)   -176.5088         0.010674   
    281. D(H  48,C   9,C   8,H  47)    177.6422         0.010674   
    282. D(C  10,C   9,C   8,C   7)     56.6490         0.010674   
    283. D(C  15,C  10,C   9,H  48)     -6.4182         0.012587   
    284. D(C  15,C  10,C   9,C   8)   -128.8532         0.012587   
    285. D(C  11,C  10,C   9,H  49)    -68.6660         0.012587   
    286. D(C  11,C  10,C   9,H  48)    174.4902         0.012587   
    287. D(C  11,C  10,C   9,C   8)     52.0552         0.012587   
    288. D(H  50,C  11,C  10,C  15)    179.9572         0.026343   
    289. D(H  50,C  11,C  10,C   9)     -0.9321         0.026343   
    290. D(C  12,C  11,C  10,C  15)      0.0596         0.026343   
    291. D(C  12,C  11,C  10,C   9)    179.1703         0.026343   
    292. D(O  22,C  12,C  11,H  50)     -1.6194         0.028881   
    293. D(C  13,C  12,C  11,H  50)    178.3988         0.028881   
    294. D(O  22,C  12,C  11,C  10)    178.2777         0.028881   
    295. D(C  13,C  12,C  11,C  10)     -1.7041         0.028881   
    296. D(O  21,C  13,C  12,C  11)   -177.8186         0.024059   
    297. D(C  14,C  13,C  12,O  22)   -177.9638         0.024059   
    298. D(C  14,C  13,C  12,C  11)      2.0199         0.024059   
    299. D(O  21,C  13,C  12,O  22)      2.1977         0.024059   
    300. D(H  51,C  14,C  13,O  21)     -0.3127         0.028726   
    301. D(H  51,C  14,C  13,C  12)    179.8494         0.028726   
    302. D(C  15,C  14,C  13,O  21)    179.1334         0.028726   
    303. D(C  15,C  14,C  13,C  12)     -0.7046         0.028726   
    304. D(H  52,C  15,C  14,H  51)     -0.1964         0.027872   
    305. D(H  52,C  15,C  14,C  13)   -179.6282         0.027872   
    306. D(C  10,C  15,C  14,H  51)    178.4777         0.027872   
    307. D(C  10,C  15,C  14,C  13)     -0.9541         0.027872   
    308. D(H  52,C  15,C  10,C  11)    179.9454         0.027927   
    309. D(H  52,C  15,C  10,C   9)      0.8371         0.027927   
    310. D(C  14,C  15,C  10,C  11)      1.2799         0.027927   
    311. D(C  14,C  15,C  10,C   9)   -177.8284         0.027927   
    312. D(H  53,C  16,C   7,H  46)   -170.9605         0.010727   
    313. D(H  53,C  16,C   7,C   8)    -55.3653         0.010727   
    314. D(H  53,C  16,C   7,C   6)     72.0585         0.010727   
    315. D(O  37,C  16,C   7,H  46)    -52.8735         0.010727   
    316. D(O  37,C  16,C   7,C   8)     62.7217         0.010727   
    317. D(O  37,C  16,C   7,C   6)   -169.8545         0.010727   
    318. D(H  55,C  17,C   8,H  47)     71.0203         0.010800   
    319. D(H  55,C  17,C   8,C   9)   -171.5206         0.010800   
    320. D(H  55,C  17,C   8,C   7)    -45.5972         0.010800   
    321. D(O  38,C  17,C   8,H  47)    -51.8911         0.010800   
    322. D(O  38,C  17,C   8,C   9)     65.5680         0.010800   
    323. D(O  38,C  17,C   8,C   7)   -168.5086         0.010800   
    324. D(C  34,O  18,C   2,C   3)      0.7856         0.026737   
    325. D(C  34,O  18,C   2,C   1)   -178.8150         0.026737   
    326. D(C  33,O  19,C   0,C   5)     -0.5919         0.027507   
    327. D(C  33,O  19,C   0,C   1)    179.6678         0.027507   
    328. D(C  23,O  20,C   1,C   2)    -50.7510         0.028474   
    329. D(C  23,O  20,C   1,C   0)    134.4947         0.028474   
    330. D(H  57,O  21,C  13,C  14)   -179.3741         0.031191   
    331. D(H  57,O  21,C  13,C  12)      0.4623         0.031191   
    332. D(C  35,O  22,C  12,C  13)    177.5342         0.027137   
    333. D(C  35,O  22,C  12,C  11)     -2.4484         0.027137   
    334. D(H  58,C  23,O  20,C   1)     53.5475         0.021786   
    335. D(C  26,C  23,O  20,C   1)    171.3534         0.021786   
    336. D(C  24,C  23,O  20,C   1)    -68.7978         0.021786   
    337. D(O  36,C  24,C  23,H  58)     67.5851         0.010000   
    338. D(O  36,C  24,C  23,C  26)    -53.3345         0.010000   
    339. D(O  36,C  24,C  23,O  20)   -169.0502         0.010000   
    340. D(C  25,C  24,C  23,H  58)    -52.8878         0.010000   
    341. D(C  25,C  24,C  23,C  26)   -173.8075         0.010000   
    342. D(C  25,C  24,C  23,O  20)     70.4769         0.010000   
    343. D(C  32,C  25,C  24,O  36)    126.9565         0.012356   
    344. D(C  32,C  25,C  24,C  23)   -111.4260         0.012356   
    345. D(C  28,C  25,C  24,H  59)   -173.7825         0.012356   
    346. D(C  28,C  25,C  24,O  36)    -53.2712         0.012356   
    347. D(C  28,C  25,C  24,C  23)     68.3462         0.012356   
    348. D(H  60,C  26,C  23,H  58)     64.4822         0.010678   
    349. D(H  60,C  26,C  23,C  24)   -174.3933         0.010678   
    350. D(H  60,C  26,C  23,O  20)    -54.7615         0.010678   
    351. D(O  27,C  26,C  23,H  58)   -173.5074         0.010678   
    352. D(O  27,C  26,C  23,C  24)    -52.3829         0.010678   
    353. D(O  27,C  26,C  23,O  20)     67.2489         0.010678   
    354. D(H  62,O  27,C  26,H  61)   -174.6237         0.022436   
    355. D(H  62,O  27,C  26,H  60)     67.0809         0.022436   
    356. D(H  62,O  27,C  26,C  23)    -53.2743         0.022436   
    357. D(H  63,C  28,C  25,C  32)   -176.8600         0.026847   
    358. D(H  63,C  28,C  25,C  24)      3.3646         0.026847   
    359. D(C  29,C  28,C  25,C  32)      2.5264         0.026847   
    360. D(C  29,C  28,C  25,C  24)   -177.2490         0.026847   
    361. D(C  30,C  29,C  28,H  63)    178.6539         0.028901   
    362. D(C  30,C  29,C  28,C  25)     -0.7160         0.028901   
    363. D(O  39,C  29,C  28,H  63)     -1.4656         0.028901   
    364. D(O  39,C  29,C  28,C  25)    179.1645         0.028901   
    365. D(O  40,C  30,C  29,O  39)     -0.7262         0.024417   
    366. D(O  40,C  30,C  29,C  28)    179.1670         0.024417   
    367. D(C  31,C  30,C  29,O  39)    178.4925         0.024417   
    368. D(C  31,C  30,C  29,C  28)     -1.6143         0.024417   
    369. D(H  64,C  31,C  30,O  40)      2.3180         0.028860   
    370. D(H  64,C  31,C  30,C  29)   -176.8965         0.028860   
    371. D(C  32,C  31,C  30,O  40)   -178.6542         0.028860   
    372. D(C  32,C  31,C  30,C  29)      2.1313         0.028860   
    373. D(H  65,C  32,C  31,H  64)     -1.5124         0.028266   
    374. D(H  65,C  32,C  31,C  30)    179.4773         0.028266   
    375. D(C  25,C  32,C  31,H  64)    178.6944         0.028266   
    376. D(C  25,C  32,C  31,C  30)     -0.3159         0.028266   
    377. D(H  65,C  32,C  25,C  28)    178.1919         0.028468   
    378. D(H  65,C  32,C  25,C  24)     -2.0375         0.028468   
    379. D(C  31,C  32,C  25,C  28)     -2.0156         0.028468   
    380. D(C  31,C  32,C  25,C  24)    177.7549         0.028468   
    381. D(H  68,C  33,O  19,C   0)    -61.6739         0.022106   
    382. D(H  67,C  33,O  19,C   0)    179.7285         0.022106   
    383. D(H  66,C  33,O  19,C   0)     61.0706         0.022106   
    384. D(H  71,C  34,O  18,C   2)     61.7812         0.021721   
    385. D(H  70,C  34,O  18,C   2)    -60.8729         0.021721   
    386. D(H  69,C  34,O  18,C   2)    179.9281         0.021721   
    387. D(H  74,C  35,O  22,C  12)    -58.6465         0.023704   
    388. D(H  73,C  35,O  22,C  12)   -177.4235         0.023704   
    389. D(H  72,C  35,O  22,C  12)     64.0972         0.023704   
    390. D(H  75,O  36,C  24,H  59)    -47.0185         0.021079   
    391. D(H  75,O  36,C  24,C  25)   -166.6613         0.021079   
    392. D(H  75,O  36,C  24,C  23)     71.9967         0.021079   
    393. D(H  76,O  37,C  16,H  54)    -60.3617         0.022280   
    394. D(H  76,O  37,C  16,H  53)   -177.5087         0.022280   
    395. D(H  76,O  37,C  16,C   7)     61.4835         0.022280   
    396. D(H  77,O  38,C  17,H  56)   -179.7290         0.021632   
    397. D(H  77,O  38,C  17,H  55)    -63.2050         0.021632   
    398. D(H  77,O  38,C  17,C   8)     59.6805         0.021632   
    399. D(C  41,O  39,C  29,C  30)   -173.1123         0.028242   
    400. D(C  41,O  39,C  29,C  28)      7.0021         0.028242   
    401. D(H  78,O  40,C  30,C  31)   -177.4884         0.029462   
    402. D(H  78,O  40,C  30,C  29)      1.7271         0.029462   
    403. D(H  81,C  41,O  39,C  29)     61.2338         0.023472   
    404. D(H  80,C  41,O  39,C  29)    -61.0521         0.023472   
    405. D(H  79,C  41,O  39,C  29)   -179.5568         0.023472   
    -----------------------------------------------------------------

Number of atoms                         .... 82
Number of degrees of freedom            .... 405


         *************************************************************
         *                GEOMETRY OPTIMIZATION CYCLE   1            *
         *************************************************************
---------------------------------
CARTESIAN COORDINATES (ANGSTROEM)
---------------------------------
  C     21.035534  -30.061267    2.043239
  C     21.622909  -29.832220    0.789065
  C     20.908260  -30.157467   -0.370537
  C     19.641426  -30.713338   -0.254653
  C     19.055489  -30.918860    0.984062
  C     19.756407  -30.591186    2.133405
  C     17.674653  -31.509748    1.046445
  C     17.703483  -33.006149    0.700837
  C     16.358248  -33.565983    0.209230
  C     16.089287  -33.208223   -1.260367
  C     17.162942  -33.663663   -2.208642
  C     17.592811  -34.989036   -2.207450
  C     18.567223  -35.416724   -3.088561
  C     19.111113  -34.520257   -4.023795
  C     18.690373  -33.203587   -4.020912
  C     17.731748  -32.781159   -3.113217
  C     18.221262  -33.827608    1.890344
  C     15.162170  -33.131625    1.066863
  O     21.506650  -29.896970   -1.573834
  O     21.817255  -29.729959    3.112400
  O     22.840103  -29.196471    0.810343
  O     20.039579  -34.948262   -4.923439
  O     19.087182  -36.693082   -3.148771
  C     23.912280  -29.672470    0.012727
  C     24.424534  -31.044330    0.534728
  C     23.406436  -32.119594    0.261645
  C     24.994690  -28.589971    0.141060
  O     25.517628  -28.525952    1.442511
  C     23.161916  -32.499569   -1.053822
  C     22.192950  -33.442749   -1.336720
  C     21.466821  -34.026651   -0.287645
  C     21.747187  -33.680785    1.020323
  C     22.712695  -32.726953    1.292987
  C     21.295468  -29.923955    4.403468
  C     20.792506  -30.193983   -2.750690
  C     18.632335  -37.637443   -2.209331
  O     25.638696  -31.396658   -0.094522
  O     18.477964  -35.164635    1.543441
  O     13.993742  -33.855509    0.757859
  O     21.848204  -33.887511   -2.590668
  O     20.493991  -34.949120   -0.565055
  C     22.629116  -33.461470   -3.683149
  H     19.082479  -30.979489   -1.136530
  H     19.294791  -30.754754    3.093647
  H     17.041503  -30.991970    0.324787
  H     17.246374  -31.367345    2.039130
  H     18.422444  -33.148163   -0.114582
  H     16.436149  -34.656749    0.294350
  H     15.967982  -32.127073   -1.350732
  H     15.136623  -33.664053   -1.545857
  H     17.158231  -35.683733   -1.508259
  H     19.115839  -32.522982   -4.741248
  H     17.410880  -31.749734   -3.129921
  H     17.476556  -33.865113    2.690010
  H     19.125178  -33.344180    2.285079
  H     15.403621  -33.242956    2.132790
  H     14.907713  -32.086671    0.878527
  H     20.185374  -35.891021   -4.764695
  H     23.617640  -29.765691   -1.036930
  H     24.567439  -30.953318    1.621296
  H     24.546260  -27.629031   -0.145634
  H     25.829798  -28.799608   -0.530601
  H     24.764118  -28.426274    2.038877
  H     23.749220  -32.050800   -1.837184
  H     21.216479  -34.174247    1.818117
  H     22.920501  -32.455641    2.316273
  H     21.062035  -30.977464    4.590618
  H     22.078785  -29.602565    5.088489
  H     20.399223  -29.318449    4.571994
  H     21.451051  -29.908546   -3.570495
  H     20.553799  -31.259436   -2.822374
  H     19.868968  -29.610552   -2.815695
  H     17.565374  -37.843232   -2.336863
  H     19.199655  -38.545259   -2.408222
  H     18.823574  -37.304356   -1.184971
  H     26.330284  -30.823858    0.254760
  H     19.167232  -35.169248    0.860234
  H     14.165708  -34.791324    0.912823
  H     20.482515  -35.077727   -1.525173
  H     22.174911  -33.922407   -4.558656
  H     22.605010  -32.374129   -3.792476
  H     23.666286  -33.793212   -3.578445

----------------------------
CARTESIAN COORDINATES (A.U.)
----------------------------
  NO LB      ZA    FRAG     MASS         X           Y           Z
   0 C     6.0000    0    12.011   39.751399  -56.807562    3.861162
   1 C     6.0000    0    12.011   40.861376  -56.374726    1.491116
   2 C     6.0000    0    12.011   39.510886  -56.989353   -0.700214
   3 C     6.0000    0    12.011   37.116915  -58.039797   -0.481225
   4 C     6.0000    0    12.011   36.009656  -58.428178    1.859609
   5 C     6.0000    0    12.011   37.334199  -57.808963    4.031552
   6 C     6.0000    0    12.011   33.400254  -59.544795    1.977495
   7 C     6.0000    0    12.011   33.454735  -62.372582    1.324389
   8 C     6.0000    0    12.011   30.912609  -63.430516    0.395388
   9 C     6.0000    0    12.011   30.404345  -62.754448   -2.381749
  10 C     6.0000    0    12.011   32.433260  -63.615104   -4.173728
  11 C     6.0000    0    12.011   33.245595  -66.119695   -4.171477
  12 C     6.0000    0    12.011   35.086967  -66.927909   -5.836534
  13 C     6.0000    0    12.011   36.114770  -65.233832   -7.603871
  14 C     6.0000    0    12.011   35.319686  -62.745686   -7.598423
  15 C     6.0000    0    12.011   33.508148  -61.947412   -5.883128
  16 C     6.0000    0    12.011   34.433196  -63.924914    3.572232
  17 C     6.0000    0    12.011   28.652349  -62.609698    2.016079
  18 O     8.0000    0    15.999   40.641679  -56.497086   -2.974114
  19 O     8.0000    0    15.999   41.228636  -56.181481    5.881583
  20 O     8.0000    0    15.999   43.161539  -55.173334    1.531327
  21 O     8.0000    0    15.999   37.869317  -66.042645   -9.303952
  22 O     8.0000    0    15.999   36.069546  -69.339876   -5.950314
  23 C     6.0000    0    12.011   45.187660  -56.072843    0.024050
  24 C     6.0000    0    12.011   46.155681  -58.665281    1.010489
  25 C     6.0000    0    12.011   44.231755  -60.697235    0.494437
  26 C     6.0000    0    12.011   47.233118  -54.027216    0.266565
  27 O     8.0000    0    15.999   48.221329  -53.906238    2.725951
  28 C     6.0000    0    12.011   43.769677  -61.415284   -1.991435
  29 C     6.0000    0    12.011   41.938597  -63.197638   -2.526035
  30 C     6.0000    0    12.011   40.566412  -64.301051   -0.543570
  31 C     6.0000    0    12.011   41.096227  -63.647459    1.928130
  32 C     6.0000    0    12.011   42.920774  -61.844979    2.443391
  33 C     6.0000    0    12.011   40.242602  -56.548080    8.321348
  34 C     6.0000    0    12.011   39.292143  -57.058358   -5.198051
  35 C     6.0000    0    12.011   35.210010  -71.124460   -4.175030
  36 O     8.0000    0    15.999   48.450113  -59.331085   -0.178621
  37 O     8.0000    0    15.999   34.918291  -66.451529    2.916682
  38 O     8.0000    0    15.999   26.444340  -63.977640    1.432145
  39 O     8.0000    0    15.999   41.287123  -64.038115   -4.895653
  40 O     8.0000    0    15.999   38.728031  -66.044265   -1.067800
  41 C     6.0000    0    12.011   42.762832  -63.233014   -6.960142
  42 H     1.0000    0     1.008   36.060660  -58.542751   -2.147730
  43 H     1.0000    0     1.008   36.461870  -58.118062    5.846146
  44 H     1.0000    0     1.008   32.203774  -58.566336    0.613758
  45 H     1.0000    0     1.008   32.590923  -59.275691    3.853398
  46 H     1.0000    0     1.008   34.813375  -62.640949   -0.216529
  47 H     1.0000    0     1.008   31.059821  -65.491764    0.556241
  48 H     1.0000    0     1.008   30.175113  -60.711369   -2.552513
  49 H     1.0000    0     1.008   28.604073  -63.615841   -2.921247
  50 H     1.0000    0     1.008   32.424358  -67.432483   -2.850196
  51 H     1.0000    0     1.008   36.123701  -61.459529   -8.959660
  52 H     1.0000    0     1.008   32.901795  -59.998302   -5.914694
  53 H     1.0000    0     1.008   33.025904  -63.995788    5.083382
  54 H     1.0000    0     1.008   36.141349  -63.011369    4.318174
  55 H     1.0000    0     1.008   29.108625  -62.820082    4.030388
  56 H     1.0000    0     1.008   28.171495  -60.635021    1.660176
  57 H     1.0000    0     1.008   38.144828  -67.824201   -9.003970
  58 H     1.0000    0     1.008   44.630872  -56.249004   -1.959514
  59 H     1.0000    0     1.008   46.425732  -58.493293    3.063806
  60 H     1.0000    0     1.008   46.385710  -52.211302   -0.275208
  61 H     1.0000    0     1.008   48.811244  -54.423371   -1.002691
  62 H     1.0000    0     1.008   46.797400  -53.717873    3.852920
  63 H     1.0000    0     1.008   44.879522  -60.567235   -3.471775
  64 H     1.0000    0     1.008   40.093334  -64.579967    3.435743
  65 H     1.0000    0     1.008   43.313470  -61.332273    4.377122
  66 H     1.0000    0     1.008   39.801477  -58.538924    8.675011
  67 H     1.0000    0     1.008   41.722857  -55.940740    9.615851
  68 H     1.0000    0     1.008   38.548944  -55.403839    8.639817
  69 H     1.0000    0     1.008   40.536611  -56.518961   -6.747258
  70 H     1.0000    0     1.008   38.841050  -59.071773   -5.333513
  71 H     1.0000    0     1.008   37.546909  -55.955835   -5.320892
  72 H     1.0000    0     1.008   33.193747  -71.513345   -4.416031
  73 H     1.0000    0     1.008   36.282090  -72.839983   -4.550881
  74 H     1.0000    0     1.008   35.571400  -70.495017   -2.239270
  75 H     1.0000    0     1.008   49.757027  -58.248649    0.481426
  76 H     1.0000    0     1.008   36.220819  -66.460247    1.625607
  77 H     1.0000    0     1.008   26.769308  -65.746074    1.724985
  78 H     1.0000    0     1.008   38.706345  -66.287297   -2.882159
  79 H     1.0000    0     1.008   41.904508  -64.104058   -8.614612
  80 H     1.0000    0     1.008   42.717278  -61.178238   -7.166742
  81 H     1.0000    0     1.008   44.722798  -63.859915   -6.762280

--------------------------------
INTERNAL COORDINATES (ANGSTROEM)
--------------------------------
 C      0   0   0     0.000000000000     0.00000000     0.00000000
 C      1   0   0     1.403718187824     0.00000000     0.00000000
 C      2   1   0     1.400422890517   119.23493726     0.00000000
 C      3   2   1     1.388269162324   119.31071503   359.26134333
 C      4   3   2     1.385632320723   121.32486058     1.78557394
 C      5   4   3     1.385512506532   119.51066784   358.58052145
 C      5   4   3     1.503246502439   118.93602006   179.29221388
 C      7   5   4     1.536063626563   110.87606688    73.15228616
 C      8   7   5     1.537773930947   114.21516307   202.50768618
 C      9   8   7     1.536245027693   111.97445888    78.51511469
 C     10   9   8     1.503125539478   114.07194291    56.64897506
 C     11  10   9     1.393341622799   120.53357220    52.05523860
 C     12  11  10     1.381575439160   120.76466472   179.17027546
 C     13  12  11     1.405038704937   120.00089352   358.29587297
 C     14  13  12     1.382262846850   119.24495549     2.01990446
 C     11  10   9     1.385861375178   120.79717845   231.14683840
 C      8   7   5     1.535518588971   110.68258523    77.23314604
 C      9   8   7     1.534536943759   113.58642650   313.96506762
 O      3   2   1     1.368886751959   117.42585786   178.87839830
 O      1   2   3     1.365267649276   114.86612259   179.10638710
 O      2   1   3     1.373386679188   115.62906547   175.07244704
 O     14  13  12     1.361835876880   120.20605059   182.18136301
 O     13  12  11     1.379518765298   125.45651058   178.27766936
 C     21   2   1     1.418566707975   120.38578832   134.49473809
 C     24  21   2     1.554634483592   110.87613055   291.20215847
 C     25  24  21     1.505752272603   110.27118638    70.47690349
 C     24  21   2     1.536191845174   104.42611740   171.35335320
 O     27  24  21     1.404043691314   111.83886901    67.24894526
 C     26  25  24     1.390907740826   119.04331651    68.34620155
 C     29  26  25     1.381490571834   120.23086666   182.75099257
 C     30  29  26     1.403126214666   119.60263049   359.28398883
 C     31  30  29     1.381668036382   119.90775508   358.38570222
 C     26  25  24     1.383411940089   121.15615299   248.57395186
 C     20   1   2     1.405970528336   118.23800888   179.66778929
 C     19   3   2     1.408264726342   118.21476386   181.18497740
 C     23  13  12     1.407569479702   118.02248063   357.55157547
 O     25  24  21     1.412189476634   110.72240035   190.94983949
 O     17   8   7     1.404947781774   112.29925984   190.14547003
 O     18   9   8     1.408799135507   112.23598315   191.49144156
 O     30  29  26     1.374426113623   125.71015297   179.16449339
 O     31  30  29     1.369052204461   119.77738642   179.16699705
 C     40  30  29     1.408846268752   118.07200080     7.00207702
 H      4   3   2     1.077480527163   120.26248431   180.67664749
 H      6   5   4     1.077918953053   119.10736796   180.06540621
 H      7   5   4     1.090763088059   108.61161869   313.49128203
 H      7   5   4     1.090470338461   110.31688378   195.06051829
 H      8   7   5     1.096349129325   107.80868375   320.99760031
 H      9   8   7     1.096851411336   105.96773255   196.70679074
 H     10   9   8     1.091680674896   109.22459604   294.28209817
 H     10   9   8     1.094007573906   107.76191679   178.24427013
 H     12  11  10     1.077187445828   119.31067470   359.06793248
 H     15  14  13     1.078483764634   118.66285369   179.84935926
 H     16  11  10     1.080311315019   119.74640390     0.83713623
 H     17   8   7     1.093371176891   110.80869110    72.05847381
 H     17   8   7     1.098445268062   108.68857109   313.25818243
 H     18   9   8     1.098586492293   110.01581011   314.40283606
 H     18   9   8     1.091855114647   110.86340676    74.28798053
 H     22  14  13     0.967083341266   107.50119910     0.46227154
 H     24  21   2     1.094203777007   111.37340047    53.54749464
 H     25  24  21     1.099698223599   107.55071094   311.69476641
 H     27  24  21     1.098493690447   107.87777591   305.23854924
 H     27  24  21     1.092008171067   110.62097780   186.54169154
 H     28  27  24     0.966108868678   106.64222400   306.72573093
 H     29  26  25     1.077021697655   118.56772923     3.36464096
 H     32  31  30     1.077790496137   119.09114910   183.10347784
 H     33  26  25     1.078845954717   120.00740263   357.96246962
 H     34  20   1     1.095170080066   111.63896092    61.07061501
 H     34  20   1     1.089096920835   105.66045432   179.72846309
 H     34  20   1     1.094666414278   111.64776466   298.32610096
 H     35  19   3     1.089603031634   105.48666135   179.92808060
 H     35  19   3     1.094216758246   111.76107985   299.12710680
 H     35  19   3     1.094321312230   111.41775541    61.78116444
 H     36  23  13     1.094083138528   111.31707813    64.09722329
 H     36  23  13     1.088824679881   105.61047639   182.57645663
 H     36  23  13     1.093998821760   111.35681968   301.35351259
 H     37  25  24     0.963531698792   107.89486563    71.99672751
 H     38  17   8     0.970507229321   107.94533363    61.48349120
 H     39  18   9     0.964020567337   108.39648285    59.68053628
 H     41  31  30     0.968760431936   107.37890525     1.72711122
 H     42  40  30     1.088705245689   105.32592184   180.44318017
 H     42  40  30     1.093089107668   111.47821828   298.94794270
 H     42  40  30     1.093954081463   111.07543721    61.23381652

---------------------------
INTERNAL COORDINATES (A.U.)
---------------------------
 C      0   0   0     0.000000000000     0.00000000     0.00000000
 C      1   0   0     2.652642944192     0.00000000     0.00000000
 C      2   1   0     2.646415734751   119.23493726     0.00000000
 C      3   2   1     2.623448516961   119.31071503   359.26134333
 C      4   3   2     2.618465608476   121.32486058     1.78557394
 C      5   4   3     2.618239192467   119.51066784   358.58052145
 C      5   4   3     2.840724201384   118.93602006   179.29221388
 C      7   5   4     2.902739578483   110.87606688    73.15228616
 C      8   7   5     2.905971585374   114.21516307   202.50768618
 C      9   8   7     2.903082376938   111.97445888    78.51511469
 C     10   9   8     2.840495614515   114.07194291    56.64897506
 C     11  10   9     2.633034078084   120.53357220    52.05523860
 C     12  11  10     2.610799213364   120.76466472   179.17027546
 C     13  12  11     2.655138359891   120.00089352   358.29587297
 C     14  13  12     2.612098225640   119.24495549     2.01990446
 C     11  10   9     2.618898458665   120.79717845   231.14683840
 C      8   7   5     2.901709606701   110.68258523    77.23314604
 C      9   8   7     2.899854566088   113.58642650   313.96506762
 O      3   2   1     2.586821069556   117.42585786   178.87839830
 O      1   2   3     2.579981956634   114.86612259   179.10638710
 O      2   1   3     2.595324699642   115.62906547   175.07244704
 O     14  13  12     2.573496846651   120.20605059   182.18136301
 O     13  12  11     2.606912663018   125.45651058   178.27766936
 C     21   2   1     2.680702580772   120.38578832   134.49473809
 C     24  21   2     2.937833412339   110.87613055   291.20215847
 C     25  24  21     2.845459420750   110.27118638    70.47690349
 C     24  21   2     2.902981876543   104.42611740   171.35335320
 O     27  24  21     2.653258056644   111.83886901    67.24894526
 C     26  25  24     2.628434707711   119.04331651    68.34620155
 C     29  26  25     2.610638837361   120.23086666   182.75099257
 C     30  29  26     2.651524277043   119.60263049   359.28398883
 C     31  30  29     2.610974196754   119.90775508   358.38570222
 C     26  25  24     2.614269697165   121.15615299   248.57395186
 C     20   1   2     2.656899250920   118.23800888   179.66778929
 C     19   3   2     2.661234656847   118.21476386   181.18497740
 C     23  13  12     2.659920831103   118.02248063   357.55157547
 O     25  24  21     2.668651360044   110.72240035   190.94983949
 O     17   8   7     2.654966540013   112.29925984   190.14547003
 O     18   9   8     2.662244543812   112.23598315   191.49144156
 O     30  29  26     2.597288946058   125.71015297   179.16449339
 O     31  30  29     2.587133729473   119.77738642   179.16699705
 C     40  30  29     2.662333612738   118.07200080     7.00207702
 H      4   3   2     2.036143110970   120.26248431   180.67664749
 H      6   5   4     2.036971615834   119.10736796   180.06540621
 H      7   5   4     2.061243513421   108.61161869   313.49128203
 H      7   5   4     2.060690296856   110.31688378   195.06051829
 H      8   7   5     2.071799601587   107.80868375   320.99760031
 H      9   8   7     2.072748777030   105.96773255   196.70679074
 H     10   9   8     2.062977501248   109.22459604   294.28209817
 H     10   9   8     2.067374703119   107.76191679   178.24427013
 H     12  11  10     2.035589267513   119.31067470   359.06793248
 H     15  14  13     2.038038955038   118.66285369   179.84935926
 H     16  11  10     2.041492524762   119.74640390     0.83713623
 H     17   8   7     2.066172087047   110.80869110    72.05847381
 H     17   8   7     2.075760729738   108.68857109   313.25818243
 H     18   9   8     2.076027604858   110.01581011   314.40283606
 H     18   9   8     2.063307144603   110.86340676    74.28798053
 H     22  14  13     1.827522663670   107.50119910     0.46227154
 H     24  21   2     2.067745473245   111.37340047    53.54749464
 H     25  24  21     2.078128472562   107.55071094   311.69476641
 H     27  24  21     2.075852234785   107.87777591   305.23854924
 H     27  24  21     2.063596379321   110.62097780   186.54169154
 H     28  27  24     1.825681177353   106.64222400   306.72573093
 H     29  26  25     2.035276048858   118.56772923     3.36464096
 H     32  31  30     2.036728867441   119.09114910   183.10347784
 H     33  26  25     2.038723395104   120.00740263   357.96246962
 H     34  20   1     2.069571521390   111.63896092    61.07061501
 H     34  20   1     2.058094913676   105.66045432   179.72846309
 H     34  20   1     2.068619730987   111.64776466   298.32610096
 H     35  19   3     2.059051324478   105.48666135   179.92808060
 H     35  19   3     2.067770004232   111.76107985   299.12710680
 H     35  19   3     2.067967582627   111.41775541    61.78116444
 H     36  23  13     2.067517499560   111.31707813    64.09722329
 H     36  23  13     2.057580452829   105.61047639   182.57645663
 H     36  23  13     2.067358163958   111.35681968   301.35351259
 H     37  25  24     1.820811032068   107.89486563    71.99672751
 H     38  17   8     1.833992874407   107.94533363    61.48349120
 H     39  18   9     1.821734859735   108.39648285    59.68053628
 H     41  31  30     1.830691905739   107.37890525     1.72711122
 H     42  40  30     2.057354754916   105.32592184   180.44318017
 H     42  40  30     2.065639053464   111.47821828   298.94794270
 H     42  40  30     2.067273617050   111.07543721    61.23381652

---------------------
BASIS SET INFORMATION
---------------------
There are 3 groups of distinct atoms

 Group   1 Type C   : 11s6p2d1f contracted to 5s3p2d1f pattern {62111/411/11/1}
 Group   2 Type O   : 11s6p2d1f contracted to 5s3p2d1f pattern {62111/411/11/1}
 Group   3 Type H   : 5s1p contracted to 3s1p pattern {311/1}

Atom   0C    basis set group =>   1
Atom   1C    basis set group =>   1
Atom   2C    basis set group =>   1
Atom   3C    basis set group =>   1
Atom   4C    basis set group =>   1
Atom   5C    basis set group =>   1
Atom   6C    basis set group =>   1
Atom   7C    basis set group =>   1
Atom   8C    basis set group =>   1
Atom   9C    basis set group =>   1
Atom  10C    basis set group =>   1
Atom  11C    basis set group =>   1
Atom  12C    basis set group =>   1
Atom  13C    basis set group =>   1
Atom  14C    basis set group =>   1
Atom  15C    basis set group =>   1
Atom  16C    basis set group =>   1
Atom  17C    basis set group =>   1
Atom  18O    basis set group =>   2
Atom  19O    basis set group =>   2
Atom  20O    basis set group =>   2
Atom  21O    basis set group =>   2
Atom  22O    basis set group =>   2
Atom  23C    basis set group =>   1
Atom  24C    basis set group =>   1
Atom  25C    basis set group =>   1
Atom  26C    basis set group =>   1
Atom  27O    basis set group =>   2
Atom  28C    basis set group =>   1
Atom  29C    basis set group =>   1
Atom  30C    basis set group =>   1
Atom  31C    basis set group =>   1
Atom  32C    basis set group =>   1
Atom  33C    basis set group =>   1
Atom  34C    basis set group =>   1
Atom  35C    basis set group =>   1
Atom  36O    basis set group =>   2
Atom  37O    basis set group =>   2
Atom  38O    basis set group =>   2
Atom  39O    basis set group =>   2
Atom  40O    basis set group =>   2
Atom  41C    basis set group =>   1
Atom  42H    basis set group =>   3
Atom  43H    basis set group =>   3
Atom  44H    basis set group =>   3
Atom  45H    basis set group =>   3
Atom  46H    basis set group =>   3
Atom  47H    basis set group =>   3
Atom  48H    basis set group =>   3
Atom  49H    basis set group =>   3
Atom  50H    basis set group =>   3
Atom  51H    basis set group =>   3
Atom  52H    basis set group =>   3
Atom  53H    basis set group =>   3
Atom  54H    basis set group =>   3
Atom  55H    basis set group =>   3
Atom  56H    basis set group =>   3
Atom  57H    basis set group =>   3
Atom  58H    basis set group =>   3
Atom  59H    basis set group =>   3
Atom  60H    basis set group =>   3
Atom  61H    basis set group =>   3
Atom  62H    basis set group =>   3
Atom  63H    basis set group =>   3
Atom  64H    basis set group =>   3
Atom  65H    basis set group =>   3
Atom  66H    basis set group =>   3
Atom  67H    basis set group =>   3
Atom  68H    basis set group =>   3
Atom  69H    basis set group =>   3
Atom  70H    basis set group =>   3
Atom  71H    basis set group =>   3
Atom  72H    basis set group =>   3
Atom  73H    basis set group =>   3
Atom  74H    basis set group =>   3
Atom  75H    basis set group =>   3
Atom  76H    basis set group =>   3
Atom  77H    basis set group =>   3
Atom  78H    basis set group =>   3
Atom  79H    basis set group =>   3
Atom  80H    basis set group =>   3
Atom  81H    basis set group =>   3
---------------------------------
AUXILIARY/J BASIS SET INFORMATION
---------------------------------
There are 3 groups of distinct atoms

 Group   1 Type C   : 12s5p4d2f1g contracted to 6s4p3d1f1g pattern {711111/2111/211/2/1}
 Group   2 Type O   : 12s5p4d2f1g contracted to 6s4p3d1f1g pattern {711111/2111/211/2/1}
 Group   3 Type H   : 5s2p1d contracted to 3s1p1d pattern {311/2/1}

Atom   0C    basis set group =>   1
Atom   1C    basis set group =>   1
Atom   2C    basis set group =>   1
Atom   3C    basis set group =>   1
Atom   4C    basis set group =>   1
Atom   5C    basis set group =>   1
Atom   6C    basis set group =>   1
Atom   7C    basis set group =>   1
Atom   8C    basis set group =>   1
Atom   9C    basis set group =>   1
Atom  10C    basis set group =>   1
Atom  11C    basis set group =>   1
Atom  12C    basis set group =>   1
Atom  13C    basis set group =>   1
Atom  14C    basis set group =>   1
Atom  15C    basis set group =>   1
Atom  16C    basis set group =>   1
Atom  17C    basis set group =>   1
Atom  18O    basis set group =>   2
Atom  19O    basis set group =>   2
Atom  20O    basis set group =>   2
Atom  21O    basis set group =>   2
Atom  22O    basis set group =>   2
Atom  23C    basis set group =>   1
Atom  24C    basis set group =>   1
Atom  25C    basis set group =>   1
Atom  26C    basis set group =>   1
Atom  27O    basis set group =>   2
Atom  28C    basis set group =>   1
Atom  29C    basis set group =>   1
Atom  30C    basis set group =>   1
Atom  31C    basis set group =>   1
Atom  32C    basis set group =>   1
Atom  33C    basis set group =>   1
Atom  34C    basis set group =>   1
Atom  35C    basis set group =>   1
Atom  36O    basis set group =>   2
Atom  37O    basis set group =>   2
Atom  38O    basis set group =>   2
Atom  39O    basis set group =>   2
Atom  40O    basis set group =>   2
Atom  41C    basis set group =>   1
Atom  42H    basis set group =>   3
Atom  43H    basis set group =>   3
Atom  44H    basis set group =>   3
Atom  45H    basis set group =>   3
Atom  46H    basis set group =>   3
Atom  47H    basis set group =>   3
Atom  48H    basis set group =>   3
Atom  49H    basis set group =>   3
Atom  50H    basis set group =>   3
Atom  51H    basis set group =>   3
Atom  52H    basis set group =>   3
Atom  53H    basis set group =>   3
Atom  54H    basis set group =>   3
Atom  55H    basis set group =>   3
Atom  56H    basis set group =>   3
Atom  57H    basis set group =>   3
Atom  58H    basis set group =>   3
Atom  59H    basis set group =>   3
Atom  60H    basis set group =>   3
Atom  61H    basis set group =>   3
Atom  62H    basis set group =>   3
Atom  63H    basis set group =>   3
Atom  64H    basis set group =>   3
Atom  65H    basis set group =>   3
Atom  66H    basis set group =>   3
Atom  67H    basis set group =>   3
Atom  68H    basis set group =>   3
Atom  69H    basis set group =>   3
Atom  70H    basis set group =>   3
Atom  71H    basis set group =>   3
Atom  72H    basis set group =>   3
Atom  73H    basis set group =>   3
Atom  74H    basis set group =>   3
Atom  75H    basis set group =>   3
Atom  76H    basis set group =>   3
Atom  77H    basis set group =>   3
Atom  78H    basis set group =>   3
Atom  79H    basis set group =>   3
Atom  80H    basis set group =>   3
Atom  81H    basis set group =>   3
--------------------------------------------------------------------------
WARNING: There was an error initializing an OpenFabrics device.

  Local host:   c09b01n03
  Local device: mlx5_0
--------------------------------------------------------------------------
--------------------------------------------------------------------------
WARNING: There is at least one non-excluded one OpenFabrics device found,
but there are no active ports detected (or Open MPI was unable to use
them).  This is most certainly not what you wanted.  Check your
cables, subnet manager configuration, etc.  The openib BTL will be
ignored for this job.

  Local host: c09b01n03
--------------------------------------------------------------------------


           ************************************************************
           *        Program running with 64 parallel MPI-processes    *
           *              working on a common directory               *
           ************************************************************
------------------------------------------------------------------------------
                             ORCA STARTUP CALCULATIONS
                           -- RI-GTO INTEGRALS CHOSEN --
------------------------------------------------------------------------------
------------------------------------------------------------------------------
                   ___                                                        
                  /   \      - P O W E R E D   B Y -                         
                 /     \                                                     
                 |  |  |   _    _      __       _____    __    __             
                 |  |  |  | |  | |    /  \     |  _  \  |  |  /  |          
                  \  \/   | |  | |   /    \    | | | |  |  | /  /          
                 / \  \   | |__| |  /  /\  \   | |_| |  |  |/  /          
                |  |  |   |  __  | /  /__\  \  |    /   |      \           
                |  |  |   | |  | | |   __   |  |    \   |  |\   \          
                \     /   | |  | | |  |  |  |  | |\  \  |  | \   \       
                 \___/    |_|  |_| |__|  |__|  |_| \__\ |__|  \__/        
                                                                              
                      - O R C A' S   B I G   F R I E N D -                    
                                      &                                       
                       - I N T E G R A L  F E E D E R -                       
                                                                              
 v1 FN, 2020, v2 2021, v3 2022-2024                                           
------------------------------------------------------------------------------


----------------------
SHARK INTEGRAL PACKAGE
----------------------

Number of atoms                             ...     82
Number of basis functions                   ...   1542
Number of shells                            ...    622
Maximum angular momentum                    ...      3
Integral batch strategy                     ... SHARK/LIBINT Hybrid
RI-J (if used) integral strategy            ... SPLIT-RIJ (Revised 2003 algorithm where possible)
Printlevel                                  ...      1
Contraction scheme used                     ... SEGMENTED contraction
Prescreening option                         ... SCHWARTZ
   Thresh                                   ... 2.500e-11
   Tcut                                     ... 2.500e-12
   Tpresel                                  ... 2.500e-12 
Coulomb Range Separation                    ... NOT USED
Exchange Range Separation                   ... NOT USED
Multipole approximations                    ... NOT USED
Finite Nucleus Model                        ... NOT USED
CABS basis                                  ... NOT available
Auxiliary Coulomb fitting basis             ... AVAILABLE
   # of basis functions in Aux-J            ...   2498
   # of shells in Aux-J                     ...    830
   Maximum angular momentum in Aux-J        ...      4
Auxiliary J/K fitting basis                 ... NOT available
Auxiliary Correlation fitting basis         ... NOT available
Auxiliary 'external' fitting basis          ... NOT available

Checking pre-screening integrals            ... done (  0.3 sec) Dimension = 622
   => SHARK Basis and OBASIS are compatible. Storing Pre-screening
Shell pair information
Shell pair cut-off parameter TPreSel        ...   2.5e-12
Total number of shell pairs                 ...    193753
Shell pairs after pre-screening             ...    116006
Total number of primitive shell pairs       ...    584784
Primitive shell pairs kept                  ...    218786
          la=0 lb=0:  32279 shell pairs
          la=1 lb=0:  34596 shell pairs
          la=1 lb=1:   9374 shell pairs
          la=2 lb=0:  15740 shell pairs
          la=2 lb=1:   8662 shell pairs
          la=2 lb=2:   1994 shell pairs
          la=3 lb=0:   7181 shell pairs
          la=3 lb=1:   4001 shell pairs
          la=3 lb=2:   1753 shell pairs
          la=3 lb=3:    426 shell pairs

Checking whether 4 symmetric matrices of dimension 1542 fit in memory
:Max Core in MB      =   6000.00
 MB in use           =    139.02
 MB left             =   5860.98
 MB needed           =     36.31
 Data fit in memory  = YES
[c09b01n03:3853707] 58 more processes have sent help message help-mpi-btl-openib.txt / error in device init
[c09b01n03:3853707] Set MCA parameter "orte_base_help_aggregate" to 0 to see all help / error messages
[c09b01n03:3853707] 4 more processes have sent help message help-mpi-btl-openib.txt / no active ports found
Calculating RI/J V-Matrix + Cholesky decomp.... done (  2.0 sec)
Calculating Nuclear repulsion               ... done (  0.0 sec) ENN=   5751.525758624479 Eh

Diagonalization of the overlap matrix:
Smallest eigenvalue                        ... 3.206e-06
Time for diagonalization                   ...    9.626 sec
Threshold for overlap eigenvalues          ... 1.000e-07
Number of eigenvalues below threshold      ... 0
Time for construction of square roots      ...    1.759 sec
Total time needed                          ...   11.690 sec

-------------------
DFT GRID GENERATION
-------------------

General Integration Accuracy     IntAcc      ... 4.388
Radial Grid Type                 RadialGrid  ... OptM3 with GC (2021)
Angular Grid (max. ang.)         AngularGrid ... 4 (Lebedev-302)
Angular grid pruning method      GridPruning ... 4 (adaptive)
Weight generation scheme         WeightScheme... mBecke (2022)
Basis function cutoff            BFCut       ... 1.0000e-11
Integration weight cutoff        WCut        ... 1.0000e-14
Partially contracted basis set               ... off
Rotationally invariant grid construction     ... off
Angular grids for H and He will be reduced by one unit

Total number of grid points                  ...   373541
Total number of batches                      ...     5874
Average number of points per batch           ...       63
Average number of grid points per atom       ...     4555

--------------------
COSX GRID GENERATION
--------------------

GRIDX 1
-------
General Integration Accuracy     IntAcc      ... 3.816
Radial Grid Type                 RadialGrid  ... OptM3 with GC (2021)
Angular Grid (max. ang.)         AngularGrid ... 1 (Lebedev-50)
Angular grid pruning method      GridPruning ... 4 (adaptive)
Weight generation scheme         WeightScheme... mBecke (2022)
Basis function cutoff            BFCut       ... 1.0000e-11
Integration weight cutoff        WCut        ... 1.0000e-14
Partially contracted basis set               ... on
Rotationally invariant grid construction     ... off
Angular grids for H and He will be reduced by one unit

Total number of grid points                  ...    47285
Total number of batches                      ...      413
Average number of points per batch           ...      114
Average number of grid points per atom       ...      577
UseSFitting                                  ... on

GRIDX 2
-------
General Integration Accuracy     IntAcc      ... 4.020
Radial Grid Type                 RadialGrid  ... OptM3 with GC (2021)
Angular Grid (max. ang.)         AngularGrid ... 2 (Lebedev-110)
Angular grid pruning method      GridPruning ... 4 (adaptive)
Weight generation scheme         WeightScheme... mBecke (2022)
Basis function cutoff            BFCut       ... 1.0000e-11
Integration weight cutoff        WCut        ... 1.0000e-14
Partially contracted basis set               ... on
Rotationally invariant grid construction     ... off
[...]
freq.     637.71  E(vib)   ...       0.09 
freq.     655.18  E(vib)   ...       0.08 
freq.     659.28  E(vib)   ...       0.08 
freq.     667.92  E(vib)   ...       0.08 
freq.     702.06  E(vib)   ...       0.07 
freq.     731.45  E(vib)   ...       0.06 
freq.     746.67  E(vib)   ...       0.06 
freq.     748.45  E(vib)   ...       0.06 
freq.     753.55  E(vib)   ...       0.06 
freq.     770.14  E(vib)   ...       0.05 
freq.     792.34  E(vib)   ...       0.05 
freq.     810.72  E(vib)   ...       0.05 
freq.     814.94  E(vib)   ...       0.05 
freq.     830.08  E(vib)   ...       0.04 
freq.     834.97  E(vib)   ...       0.04 
freq.     842.11  E(vib)   ...       0.04 
freq.     848.61  E(vib)   ...       0.04 
freq.     854.76  E(vib)   ...       0.04 
freq.     872.89  E(vib)   ...       0.04 
freq.     878.20  E(vib)   ...       0.04 
freq.     880.82  E(vib)   ...       0.04 
freq.     901.56  E(vib)   ...       0.03 
freq.     902.93  E(vib)   ...       0.03 
freq.     932.17  E(vib)   ...       0.03 
freq.     937.75  E(vib)   ...       0.03 
freq.     942.63  E(vib)   ...       0.03 
freq.     950.63  E(vib)   ...       0.03 
freq.     956.92  E(vib)   ...       0.03 
freq.     960.71  E(vib)   ...       0.03 
freq.     962.92  E(vib)   ...       0.03 
freq.     970.66  E(vib)   ...       0.03 
freq.     999.33  E(vib)   ...       0.02 
freq.    1016.90  E(vib)   ...       0.02 
freq.    1025.75  E(vib)   ...       0.02 
freq.    1028.92  E(vib)   ...       0.02 
freq.    1038.32  E(vib)   ...       0.02 
freq.    1047.97  E(vib)   ...       0.02 
freq.    1048.34  E(vib)   ...       0.02 
freq.    1060.62  E(vib)   ...       0.02 
freq.    1069.33  E(vib)   ...       0.02 
freq.    1077.71  E(vib)   ...       0.02 
freq.    1079.97  E(vib)   ...       0.02 
freq.    1103.24  E(vib)   ...       0.02 
freq.    1110.47  E(vib)   ...       0.02 
freq.    1127.53  E(vib)   ...       0.01 
freq.    1140.19  E(vib)   ...       0.01 
freq.    1144.73  E(vib)   ...       0.01 
freq.    1147.86  E(vib)   ...       0.01 
freq.    1166.64  E(vib)   ...       0.01 
freq.    1170.01  E(vib)   ...       0.01 
freq.    1170.96  E(vib)   ...       0.01 
freq.    1171.46  E(vib)   ...       0.01 
freq.    1171.54  E(vib)   ...       0.01 
freq.    1173.97  E(vib)   ...       0.01 
freq.    1177.72  E(vib)   ...       0.01 
freq.    1181.26  E(vib)   ...       0.01 
freq.    1199.66  E(vib)   ...       0.01 
freq.    1201.42  E(vib)   ...       0.01 
freq.    1203.60  E(vib)   ...       0.01 
freq.    1206.90  E(vib)   ...       0.01 
freq.    1212.61  E(vib)   ...       0.01 
freq.    1217.40  E(vib)   ...       0.01 
freq.    1220.77  E(vib)   ...       0.01 
freq.    1222.63  E(vib)   ...       0.01 
freq.    1227.72  E(vib)   ...       0.01 
freq.    1228.77  E(vib)   ...       0.01 
freq.    1242.55  E(vib)   ...       0.01 
freq.    1246.48  E(vib)   ...       0.01 
freq.    1251.34  E(vib)   ...       0.01 
freq.    1262.15  E(vib)   ...       0.01 
freq.    1274.23  E(vib)   ...       0.01 
freq.    1285.70  E(vib)   ...       0.01 
freq.    1287.51  E(vib)   ...       0.01 
freq.    1295.15  E(vib)   ...       0.01 
freq.    1295.94  E(vib)   ...       0.01 
freq.    1315.20  E(vib)   ...       0.01 
freq.    1325.97  E(vib)   ...       0.01 
freq.    1334.14  E(vib)   ...       0.01 
freq.    1336.62  E(vib)   ...       0.01 
freq.    1343.78  E(vib)   ...       0.01 
freq.    1346.65  E(vib)   ...       0.01 
freq.    1355.26  E(vib)   ...       0.01 
freq.    1363.85  E(vib)   ...       0.01 
freq.    1366.42  E(vib)   ...       0.01 
freq.    1372.95  E(vib)   ...       0.01 
freq.    1390.36  E(vib)   ...       0.00 
freq.    1391.00  E(vib)   ...       0.00 
freq.    1397.60  E(vib)   ...       0.00 
freq.    1402.97  E(vib)   ...       0.00 
freq.    1406.59  E(vib)   ...       0.00 
freq.    1410.75  E(vib)   ...       0.00 
freq.    1413.06  E(vib)   ...       0.00 
freq.    1420.09  E(vib)   ...       0.00 
freq.    1428.61  E(vib)   ...       0.00 
freq.    1429.77  E(vib)   ...       0.00 
freq.    1452.30  E(vib)   ...       0.00 
freq.    1459.68  E(vib)   ...       0.00 
freq.    1467.89  E(vib)   ...       0.00 
freq.    1478.70  E(vib)   ...       0.00 
freq.    1479.12  E(vib)   ...       0.00 
freq.    1479.57  E(vib)   ...       0.00 
freq.    1479.96  E(vib)   ...       0.00 
freq.    1480.37  E(vib)   ...       0.00 
freq.    1482.50  E(vib)   ...       0.00 
freq.    1483.20  E(vib)   ...       0.00 
freq.    1485.02  E(vib)   ...       0.00 
freq.    1488.46  E(vib)   ...       0.00 
freq.    1490.92  E(vib)   ...       0.00 
freq.    1491.51  E(vib)   ...       0.00 
freq.    1491.69  E(vib)   ...       0.00 
freq.    1492.12  E(vib)   ...       0.00 
freq.    1495.49  E(vib)   ...       0.00 
freq.    1498.88  E(vib)   ...       0.00 
freq.    1500.86  E(vib)   ...       0.00 
freq.    1507.44  E(vib)   ...       0.00 
freq.    1535.11  E(vib)   ...       0.00 
freq.    1542.67  E(vib)   ...       0.00 
freq.    1546.78  E(vib)   ...       0.00 
freq.    1627.03  E(vib)   ...       0.00 
freq.    1634.11  E(vib)   ...       0.00 
freq.    1642.90  E(vib)   ...       0.00 
freq.    1647.70  E(vib)   ...       0.00 
freq.    1648.94  E(vib)   ...       0.00 
freq.    1652.17  E(vib)   ...       0.00 
freq.    3014.05  E(vib)   ...       0.00 
freq.    3016.99  E(vib)   ...       0.00 
freq.    3018.22  E(vib)   ...       0.00 
freq.    3021.80  E(vib)   ...       0.00 
freq.    3023.78  E(vib)   ...       0.00 
freq.    3024.58  E(vib)   ...       0.00 
freq.    3025.65  E(vib)   ...       0.00 
freq.    3026.16  E(vib)   ...       0.00 
freq.    3027.35  E(vib)   ...       0.00 
freq.    3027.59  E(vib)   ...       0.00 
freq.    3037.15  E(vib)   ...       0.00 
freq.    3057.62  E(vib)   ...       0.00 
freq.    3060.04  E(vib)   ...       0.00 
freq.    3069.84  E(vib)   ...       0.00 
freq.    3073.79  E(vib)   ...       0.00 
freq.    3077.26  E(vib)   ...       0.00 
freq.    3077.54  E(vib)   ...       0.00 
freq.    3078.95  E(vib)   ...       0.00 
freq.    3084.76  E(vib)   ...       0.00 
freq.    3088.51  E(vib)   ...       0.00 
freq.    3090.87  E(vib)   ...       0.00 
freq.    3111.55  E(vib)   ...       0.00 
freq.    3134.91  E(vib)   ...       0.00 
freq.    3138.56  E(vib)   ...       0.00 
freq.    3142.38  E(vib)   ...       0.00 
freq.    3163.17  E(vib)   ...       0.00 
freq.    3170.05  E(vib)   ...       0.00 
freq.    3181.56  E(vib)   ...       0.00 
freq.    3187.18  E(vib)   ...       0.00 
freq.    3196.41  E(vib)   ...       0.00 
freq.    3204.68  E(vib)   ...       0.00 
freq.    3211.19  E(vib)   ...       0.00 
freq.    3213.44  E(vib)   ...       0.00 
freq.    3214.25  E(vib)   ...       0.00 
freq.    3637.39  E(vib)   ...       0.00 
freq.    3711.85  E(vib)   ...       0.00 
freq.    3723.18  E(vib)   ...       0.00 
freq.    3757.71  E(vib)   ...       0.00 
freq.    3767.64  E(vib)   ...       0.00 
freq.    3769.94  E(vib)   ...       0.00 

------------
INNER ENERGY
------------

The inner energy is: U= E(el) + E(ZPE) + E(vib) + E(rot) + E(trans)
    E(el)   - is the total energy from the electronic structure calculation
              = E(kin-el) + E(nuc-el) + E(el-el) + E(nuc-nuc)
    E(ZPE)  - the the zero temperature vibrational energy from the frequency calculation
    E(vib)  - the the finite temperature correction to E(ZPE) due to population
              of excited vibrational states
    E(rot)  - is the rotational thermal energy
    E(trans)- is the translational thermal energy

Summary of contributions to the inner energy U:
Electronic energy                ...  -2032.63461408 Eh
Zero point energy                ...      0.67868492 Eh     425.88 kcal/mol
Thermal vibrational correction   ...      0.04063406 Eh      25.50 kcal/mol
Thermal rotational correction    ...      0.00141627 Eh       0.89 kcal/mol
Thermal translational correction ...      0.00141627 Eh       0.89 kcal/mol
-----------------------------------------------------------------------
Total thermal energy                  -2031.91246255 Eh


Summary of corrections to the electronic energy:
(perhaps to be used in another calculation)
Total thermal correction                  0.04346661 Eh      27.28 kcal/mol
Non-thermal (ZPE) correction              0.67868492 Eh     425.88 kcal/mol
-----------------------------------------------------------------------
Total correction                          0.72215153 Eh     453.16 kcal/mol


--------
ENTHALPY
--------

The enthalpy is H = U + kB*T
                kB is Boltzmann's constant
Total thermal energy              ...  -2031.91246255 Eh 
Thermal Enthalpy correction       ...      0.00094421 Eh       0.59 kcal/mol
-----------------------------------------------------------------------
Total Enthalpy                    ...  -2031.91151834 Eh


Note: Only C1 symmetry has been detected, increase convergence thresholds 
      if your molecule has a higher symmetry. Symmetry factor of 1.0 is   
      used for the rotational entropy correction. 
 

Note: Rotational entropy computed according to Herzberg 
Infrared and Raman Spectra, Chapter V,1, Van Nostrand Reinhold, 1945 
Point Group:  C1, Symmetry Number:   1  
Rotational constants in cm-1:     0.004107     0.002150     0.001791 

Vibrational entropy computed according to the QRRHO of S. Grimme
Chem.Eur.J. 2012 18 9955 using a reference frequency of 100.0 cm-1


-------
ENTROPY
-------

The entropy contributions are T*S = T*(S(el)+S(vib)+S(rot)+S(trans))
     S(el)   - electronic entropy
     S(vib)  - vibrational entropy
     S(rot)  - rotational entropy
     S(trans)- translational entropy
The entropies will be listed as multiplied by the temperature to get
units of energy

Electronic entropy                ...      0.00000000 Eh      0.00 kcal/mol
Vibrational entropy               ...      0.07318560 Eh     45.92 kcal/mol
Rotational entropy                ...      0.01799065 Eh     11.29 kcal/mol
Translational entropy             ...      0.02138181 Eh     13.42 kcal/mol
-----------------------------------------------------------------------
Final entropy term                ...      0.11255806 Eh     70.63 kcal/mol

In case the symmetry of your molecule has not been determined correctly
or in case you have a reason to use a different symmetry number we print 
out the resulting rotational entropy values for sn=1,12:

 non-linear molecules -----------------------------------
|  sn= 1 | S(rot)=       0.01799065 Eh     11.29 kcal/mol|
|  sn= 2 | S(rot)=       0.01733619 Eh     10.88 kcal/mol|
|  sn= 3 | S(rot)=       0.01695336 Eh     10.64 kcal/mol|
|  sn= 4 | S(rot)=       0.01668174 Eh     10.47 kcal/mol|
|  sn= 5 | S(rot)=       0.01647105 Eh     10.34 kcal/mol|
|  sn= 6 | S(rot)=       0.01629890 Eh     10.23 kcal/mol|
|  sn= 7 | S(rot)=       0.01615336 Eh     10.14 kcal/mol|
|  sn= 8 | S(rot)=       0.01602728 Eh     10.06 kcal/mol|
|  sn= 9 | S(rot)=       0.01591607 Eh      9.99 kcal/mol|
|  sn=10 | S(rot)=       0.01581659 Eh      9.93 kcal/mol|
|  sn=11 | S(rot)=       0.01572660 Eh      9.87 kcal/mol|
|  sn=12 | S(rot)=       0.01564445 Eh      9.82 kcal/mol|
 linear molecules ---------------------------------------
|  Dinfh | S(rot)=       0.01129759 Eh      7.09 kcal/mol|
|  Cinfv | S(rot)=       0.01195205 Eh      7.50 kcal/mol|
 --------------------------------------------------------


-------------------
GIBBS FREE ENERGY
-------------------

The Gibbs free energy is G = H - T*S

Total enthalpy                    ...  -2031.91151834 Eh 
Total entropy correction          ...     -0.11255806 Eh    -70.63 kcal/mol
-----------------------------------------------------------------------
Final Gibbs free energy         ...  -2032.02407640 Eh

For completeness - the Gibbs free energy minus the electronic energy
G-E(el)                           ...      0.61053768 Eh    383.12 kcal/mol


Maximum memory used throughout the entire PROP-calculation: 1820.4 MB
--------------------------------------------------------------------------
WARNING: There was an error initializing an OpenFabrics device.

  Local host:   c09b01n03
  Local device: mlx5_0
--------------------------------------------------------------------------
--------------------------------------------------------------------------
WARNING: There is at least one non-excluded one OpenFabrics device found,
but there are no active ports detected (or Open MPI was unable to use
them).  This is most certainly not what you wanted.  Check your
cables, subnet manager configuration, etc.  The openib BTL will be
ignored for this job.

  Local host: c09b01n03
--------------------------------------------------------------------------
[c09b01n03:3945098] 57 more processes have sent help message help-mpi-btl-openib.txt / error in device init
[c09b01n03:3945098] Set MCA parameter "orte_base_help_aggregate" to 0 to see all help / error messages
[c09b01n03:3945098] 5 more processes have sent help message help-mpi-btl-openib.txt / no active ports found

--------------------------------
SUGGESTED CITATIONS FOR THIS RUN
--------------------------------

Below you find a list of papers that are relevant to this ORCA run
We neither can nor want to force you to cite these papers, but we appreciate if you do
You receive ORCA, which is the product of decades of hard work by many enthusiastic individuals, for free
The only thing we kindly ask in return is that you cite our papers,
We deeply appreciate it, if you show your appreciation for ORCA by not just citing the generic ORCA reference.

Please note that relegating all ORCA citations to the supporting information does *not* help us.
SI sections are not indexed - citations you put there will not count into any citation statistics
But we need these citations in order to attract the funding resources that allow us to do what we are doing

Therefore, if you are a happy ORCA user, please consider citing a few of the papers listed below in the main body of your paper

In addition to the list printed below, the program has created the file opt-conf-0.bibtex that contains the list in bibtex format
You can import this file easily into all common literature databanks and citation aid programs


List of essential papers. We consider these as the minimum necessary citations

  1. Neese, F.
     Software update: the ORCA program system, version 6.0
     WIRES Comput. Molec. Sci. 2025 15(1), e70019
     doi.org/10.1002/wcms.7019

List of papers to cite with high priority. The work reported in these papers was absolutely
necessary for this run to complete.
Our perspective: the developers of density functionals and basis sets usually get cited in chemistry papers
Good! But without the algorithms to do something with them, the functionals or basis sets would not do anything.
Hence, in our opinion, the algorithm design and method developments papers are equally worthy of getting cited

  1. Neese, F.
     An improvement of the resolution of the identity approximation for the formation of the Coulomb matrix
     J. Comp. Chem. 2003 24(14), 1740-1747
     doi.org/10.1002/jcc.10318
  2. Neese, F.; Wennmohs, F.; Hansen, A.; Becker, U.
     Efficient, approximate and parallel Hartree-Fock and hybrid DFT calculations. A 'chain-of-spheres' algorithm for the Hartree-Fock exchange
     Chem. Phys. 2009 356(1-3), 98-109
     doi.org/10.1016/j.chemphys.2008.10.036
  3. Bykov, D.; Petrenko, T.; Izsak, R.; Kossmann, S.; Becker, U.; Valeev, E.; Neese, F.
     Efficient implementation of the analytic second derivatives of Hartree-Fock and hybrid DFT energies: a detailed analysis of different approximations
     Molec. Phys. 2015 113 , 1961-1977
     doi.org/10.1080/00268976.2015.1025114
  4. Caldeweyher, E.; Bannwarth, C.; Grimme, S.
     Extension of the D3 dispersion coefficient model
     J. Chem. Phys. 2017 147 , 034112
     doi.org/10.1063/1.4993215
  5. Caldeweyher, E.; Ehlert, S.; Hansen, A.; Neugebauer, H.; Spicher, S.; Bannwarth, C.; Grimme, S.
     A generally applicable atomic-charge dependent London dispersion correction
     J. Chem. Phys. 2019 150 , 154122
     doi.org/10.1063/1.5090222
  6. Garcia-Rates, M.; Neese, F.
     Efficient implementation of the analytical second derivatives of hartree-fock and hybrid DFT energies within the framework of the conductor-like polarizable continuum model
     J. Comput. Chem. 2019 40 , 1816-1828
     doi.org/10.1002/jcc.25833
  7. Caldeweyher, E.; Mewes, J.; Ehlert, S.; Grimme, S.
     Extension and evaluation of the D4 London-dispersion model for periodic systems
     Phys. Chem. Chem. Phys. 2020 22(16), 8499-8512
     doi.org/10.1039/D0CP00502A
  8. Garcia-Rates, M.; Neese, F.
     Effect of the Solute Cavity on the Solvation Energy and its Derivatives within the Framework of the Gaussian Charge Scheme
     J. Comput. Chem. 2020 41 , 922-939
     doi.org/10.1002/jcc.26139
  9. Helmich-Paris, B.; de Souza, B.; Neese, F.; Izsák, R.
     An improved chain of spheres for exchange algorithm
     J. Chem. Phys. 2021 155(10), 104109
     doi.org/10.1063/5.0058766
 10. Neese, F.
     The SHARK Integral Generation and Digestion System
     J. Comp. Chem. 2022 44(3), 381
     doi.org/10.1002/jcc.26942
 11. Wittmann, L.; Gordiy, I.; Friede, M.; Helmich-Paris, B.; Grimme, S.; Hansen, A.; Bursch, M.
     Extension of the D3 and D4 London Dispersion Corrections to the full Actinides Series
     Phys. Chem. Chem. Phys. 2024 26(32), 21379-21394
     doi.org/10.1039/D4CP01514B

List of suggested additional citations. These are papers that are important in the 'surrounding' of 
of this run, or papers that preceded the highly important papers. If you like your results we are grateful for a citation.

  1. Izsak, R.; Neese, F.
     An overlap fitted chain of spheres exchange method
     J. Chem. Phys. 2011 135 , 144105
     doi.org/10.1063/1.3646921
  2. Izsak, R.; Hansen, A.; Neese, F.
     The resolution of identity and chain of spheres approximations for the LPNO-CCSD singles Fock term
     Molec. Phys. 2012 110 , 2413-2417
     doi.org/10.1080/00268976.2012.687466
  3. Neese, F.
     The ORCA program system
     WIRES Comput. Molec. Sci. 2012 2(1), 73-78
     doi.org/10.1002/wcms.81
  4. Izsak, R.; Neese, F.; Klopper, W.
     Robust fitting techniques in the chain of spheres approximation to the Fock exchange: The role of the complementary space
     J. Chem. Phys. 2013 139 , 
     doi.org/10.1063/1.4819264
  5. Neese, F.
     Software update: the ORCA program system, version 4.0
     WIRES Comput. Molec. Sci. 2018 8(1), 1-6
     doi.org/10.1002/wcms.1327
  6. Neese, F.; Wennmohs, F.; Becker, U.; Riplinger, C.
     The ORCA quantum chemistry program package
     J. Chem. Phys. 2020 152(22), 224108
     doi.org/10.1063/5.0004608
  7. Neese, F.
     Software update: The ORCA program system—Version 5.0
     WIRES Comput. Molec. Sci. 2022 12(1), e1606
     doi.org/10.1002/wcms.1606

List of optional additional citations

  1. Neese, F.
     Approximate second-order SCF convergence for spin unrestricted wavefunctions
     Chem. Phys. Lett. 2000 325(1-3), 93-98
     doi.org/10.1016/s0009-2614(00)00662-x

Timings for individual modules:

Sum of individual times          ...    18302.005 sec (= 305.033 min)
Startup calculation              ...     1707.952 sec (=  28.466 min)   9.3 %
SCF iterations                   ...    10039.410 sec (= 167.323 min)  54.9 %
Property integrals               ...     1562.765 sec (=  26.046 min)   8.5 %
SCF Response                     ...     3101.548 sec (=  51.692 min)  16.9 %
Property calculations            ...      691.191 sec (=  11.520 min)   3.8 %
SCF Gradient evaluation          ...     1187.463 sec (=  19.791 min)   6.5 %
Geometry relaxation              ...       11.677 sec (=   0.195 min)   0.1 %
                             ****ORCA TERMINATED NORMALLY****
TOTAL RUN TIME: 0 days 5 hours 11 minutes 3 seconds 939 msec
