
                                 *****************
                                 * O   R   C   A *
                                 *****************

                                            #,                                       
                                            ###                                      
                                            ####                                     
                                            #####                                    
                                            ######                                   
                                           ########,                                 
                                     ,,################,,,,,                         
                               ,,#################################,,                 
                          ,,##########################################,,             
                       ,#########################################, ''#####,          
                    ,#############################################,,   '####,        
                  ,##################################################,,,,####,       
                ,###########''''           ''''###############################       
              ,#####''   ,,,,##########,,,,          '''####'''          '####       
            ,##' ,,,,###########################,,,                        '##       
           ' ,,###''''                  '''############,,,                           
         ,,##''                                '''############,,,,        ,,,,,,###''
      ,#''                                            '''#######################'''  
     '                                                          ''''####''''         
             ,#######,   #######,   ,#######,      ##                                
            ,#'     '#,  ##    ##  ,#'     '#,    #''#        ,####,    ,#,          
            ##       ##  ##   ,#'  ##            #'  '#       #'       ,# #          
            ##       ##  #######   ##           ,######,      #####,      #          
            '#,     ,#'  ##    ##  '#,     ,#' ,#      #,     #,   #      #          
             '#######'   ##     ##  '#######'  #'      '#     '####' #    #          



                #########################################################
                #                        -***-                          #
                #          Department of theory and spectroscopy        #
                #                                                       #
                #                      Frank Neese                      #
                #                                                       #
                #     Directorship, Architecture, Infrastructure        #
                #                    SHARK, DRIVERS                     #
                #        Core code/Algorithms in most modules           #
                #                                                       #
                #        Max Planck Institute fuer Kohlenforschung      #
                #                Kaiser Wilhelm Platz 1                 #
                #                 D-45470 Muelheim/Ruhr                 #
                #                      Germany                          #
                #                                                       #
                #                  All rights reserved                  #
                #                        -***-                          #
                #########################################################


                         Program Version 6.1.0-f.0  -   RELEASE   -


 With contributions from (in alphabetic order):
[Max-Planck-Institut fuer Kohlenforschung]                               
  Daniel Aravena         : Magnetic Suceptibility                        
  Michael Atanasov       : Ab Initio Ligand Field Theory (pilot matlab implementation)
  Alexander A. Auer      : GIAO ZORA, VPT2 properties, NMR spectrum      
  Ute Becker             : All parallelization in ORCA, NUMFREQ, NUMCALC 
  Giovanni Bistoni       : ED, misc. LED, open-shell LED, HFLD           
  Dmytro Bykov           : pre 5.0 version of the SCF Hessian            
  Marcos Casanova-Páez   : Triplet and SCS-CIS(D). UHF-(DLPNO)-IP/EA/STEOM-CCSD. UHF-CVS-IP/STEOM-CCSD   
  Vijay G. Chilkuri      : MRCI spin determinant printing, contributions to CSF-ICE 
  Pauline Colinet        : FMM embedding                                 
  Dipayan Datta          : RHF DLPNO-CCSD density                        
  Achintya Kumar Dutta   : EOM-CC, STEOM-CC                              
  Nicolas Foglia         : Exact transition moments, OPA infrastructure, MCD improvements    
  Dmitry Ganyushin       : Spin-Orbit,Spin-Spin,Magnetic field MRCI      
  Miquel Garcia-Rates    : C-PCM and meta-GGA Hessian, CCSD/C-PCM, Gaussian charge scheme 
  Tiago L. C. Gouveia    : GS-ROHF, GS-ROCIS                             
  Yang Guo               : DLPNO-NEVPT2, F12-NEVPT2, CIM, IAO-localization        
  Andreas Hansen         : Spin unrestricted coupled pair/coupled cluster methods 
  Ingolf Harden          : AUTO-CI MPn and infrastructure                
  Benjamin Helmich-Paris : MC-RPA, TRAH-(SCF,CASSCF), AVAS, COSX integrals, SCF dyn. polar., MC-PDFT, srDFT 
  Lee Huntington         : MR-EOM, pCC                                   
  Robert Izsak           : Overlap fitted RIJCOSX, COSX-SCS-MP3, EOM     
  Riya Kayal             : Wick's Theorem for AUTO-CI, AUTO-CI UHF-CCSDT 
  Emily Kempfer          : AUTO-CI RHF CISDT and CCSDT, approximate NEVPT4
  Christian Kollmar      : KDIIS, OOCD, Brueckner-CCSD(T), CCSD density, CASPT2, CASPT2-K, improved NEVPT2 
  Axel Koslowski         : Symmetry handling                             
  Simone Kossmann        : meta-GGA functionals, TD-DFT gradient, OOMP2, (MP2 Hessian; deprecated post 5.0) 
  Lucas Lang             : DCDCAS, Hyperfine gauge corrections, ICE-SOC+SSC
  Marvin Lechner         : AUTO-CI (C++ implementation), FIC-MRCC        
  Spencer Leger          : CASSCF response                               
  Dagmar Lenk            : GEPOL surface, SMD, ORCA-2-JSON               
  Dimitrios Liakos       : Extrapolation schemes; Compound Job, Property file
  Dimitrios Manganas     : Further ROCIS development; embedding schemes. LFT, Crystal Embedding 
  Dimitrios Pantazis     : SARC Basis sets                               
  Anastasios Papadopoulos: AUTO-CI, single reference methods and gradients 
  Taras Petrenko         : pre 6.0 DFT Hessian and TD-DFT gradient,  ECA, NRVS 
  Petra Pikulova         : Analytic Raman intensities                    
  Peter Pinski           : DLPNO-MP2, DLPNO-MP2 Gradient                 
  Shashank Vittal Rao    : ES-AILFT, MagRelax                            
  Christoph Reimann      : Effective Core Potentials                     
  Marius Retegan         : Local ZFS, SOC                                
  Christoph Riplinger    : Optimizer, TS searches, QM/MM, DLPNO-CCSD(T), (RO)-DLPNO pert. Triples 
  Michael Roemelt        : Original ROCIS implementation, recursive CI coupling coefficients
  Masaaki Saitow         : Open-shell DLPNO-CCSD energy and density      
  Barbara Sandhoefer     : DKH picture change effects                    
  Yorick L. A. Schmerwitz: GMF and freeze-and-release deltaSCF, NEB S-IDPP initial path                    
  Kantharuban Sivalingam : CASSCF convergence/infrastructure, NEVPT2, NEVPT3, NEVPT4(SD), FIC-MRCI and CEPA variants
  Bernardo de Souza      : ESD, SOC TD-DFT                               
  Georgi L. Stoychev     : AutoAux, RI-MP2 NMR, DLPNO-MP2 response, X2C  
  Van Anh Tran           : RI-MP2 g-tensors                              
  Willem Van den Heuvel  : Paramagnetic NMR                              
  Zikuan Wang            : NOTCH, Electric field optimization            
  Frank Wennmohs         : Technical directorship and infrastructure     
  Hang Xu                : AUTO-CI-Response properties                   
                                                                         
[FACCTs GmbH]                                                            
  Markus Bursch, Nicolas Foglia, Miquel Garcia-Rates, Ingolf Harden, Hagen Neugebauer, Anastasios Papadopoulos, 
  Christoph Riplinger, Bernardo de Souza, Georgi L. Stoychev                                                    
                                                                 
  APM, various basis sets, CI-OPT, improved COSX, DLPNO-Multilevel,           
  DOCKER, DRACO, updates on ESD, Fragmentator, GOAT, IRC, LR-CPCM, L-BFGS, MBIS, meta-GGA TD-DFT gradient, ML-optimized integration grids, 
  MM, NACMEs, nearIR, NEB, NEB-TS, NL-DFT gradient (VV10), 2- and 3-layer-ONIOM, interface openCOSMO-RS, QMMM,   
  Crystal-QMMM, RESP, rigid body optimization, SF, symmetry and pop. for TD-DFT, various functionals, SOLVATOR                                   
                                                                         
[Other institutions]                                                     
  V. Asgeirsson          : NEB                                           
  Christoph Bannwarth    : sTDA-DFT, sTD-DFT, PBEh-3c, B97-3c, D3        
  Giovanni Bistoni       : ETS/NOCV, ADLD/ADEX, COVALED                  
  Martin Brehm           : Molecular dynamics                            
  Ronald Cardenas        : ETS/NOCV                                      
  Martina Colucci        : COVALED                                       
  Sebastian Ehlert       : rSCAN, r2SCAN, r2SCAN-3c, D4, dhf basis sets  
  Marvin Friede          : D4 for Fr, Ra, Ac-Lr                          
  Lars Goerigk           : TD-DFT with DH, B97 family of functionals     
  Stefan Grimme          : VdW corrections, initial TS optimization, DFT functionals, gCP, sTDA/sTD-DF 
  Waldemar Hujo          : DFT-NL                                        
  H. Jonsson             : NEB                                           
  Holger Kruse           : gCP                                           
  Marcel Mueller         : wB97X-3c, vDZP basis set                      
  Hagen Neugebauer       : wr2SCAN, Native XTB                           
  Gianluca Regni         : ADLD/ADEX                                     
  Tobias Risthaus        : pre 6.0 range-separated hybrid DFT and stability analysis
  Lukas Wittmann         : regularized MP2, r2SCAN double-hybrids, wr2SCAN        
                                                                         
We gratefully acknowledge several colleagues who have allowed us to      
interface, adapt or use parts of their codes:                            
  Ed Valeev, F. Pavosevic, A. Kumar             : LibInt (2-el integral package), F12 methods 
  Garnet Chan, S. Sharma, J. Yang, R. Olivares  : DMRG                   
  Ulf Ekstrom                                   : XCFun DFT Library      
  Mihaly Kallay                                 : mrcc  (arbitrary order and MRCC methods)
  Frank Weinhold                                : gennbo (NPA and NBO analysis)           
  Simon Mueller                                 : openCOSMO-RS                            
  Christopher J. Cramer and Donald G. Truhlar   : smd solvation model                     
  S Lehtola, MJT Oliveira, MAL Marques          : LibXC Library                           
  Liviu Ungur et al                             : ANISO software                          


 Your calculation uses the libint2 library for the computation of 2-el integrals
 For citations please refer to: http://libint.valeyev.net

 Your ORCA version has been built with support for libXC version: 7.0.0
 For citations please refer to: https://libxc.gitlab.io

 This ORCA versions uses:
   CBLAS   interface :  Fast vector & matrix operations
   LAPACKE interface :  Fast linear algebra routines
   SCALAPACK package :  Parallel linear algebra routines
   Shared memory     :  Shared parallel matrices
   BLAS/LAPACK       :  OpenBLAS 0.3.29  USE64BITINT DYNAMIC_ARCH NO_AFFINITY Cooperlake SINGLE_THREADED
        Core in use  :  Cooperlake
   Copyright (c) 2011-2014, The OpenBLAS Project


  ***********************************
  * Starting time: Wed Mar  4 08:02:52 2026
  * Host name:     c07b01n02
  * Process ID:    1894946
  * Working dir.:  /lustre1/jiangy/jiangy_liuxy/NMR/B9D7C2-SRSR
  ***********************************

NOTE: MaxCore=6000 MB was set to SCF,MP2,MDCI,CIPSI,MRCI,RASCI and CIS
      => If you want to overwrite this, your respective input block should be placed after the MaxCore statement


***************************************
The coordinates will be read from file: conf-14.xyz
***************************************


Your calculation utilizes the atom-pairwise dispersion correction
based on EEQ partial charges (D4)


Warning: RI is on but no J-basis has been assigned. Assigning Def2/J (nothing to worry about!)
================================================================================

----- Orbital basis set information -----
Your calculation utilizes the basis: def2-TZVP
   F. Weigend and R. Ahlrichs, Phys. Chem. Chem. Phys. 7, 3297 (2005).

----- AuxJ basis set information -----
Your calculation utilizes the auxiliary basis: def2/J
   H-Rn: F. Weigend, Phys. Chem. Chem. Phys. 8, 1057 (2006).
   Fr-Lr: K. Eichkorn, F. Weigend, O. Treutler, R. Ahlrichs; Theor. Chem. Acc. 97, 119 (1997).

================================================================================
                                        WARNINGS
                       Please study these warnings very carefully!
================================================================================


WARNING: Geometry Optimization
  ===> : Switching off AutoStart
         For restart on a previous wavefunction, please use MOREAD

================================================================================
                                       INPUT FILE
================================================================================
NAME = opt-conf-14.inp
|  1> ! B3LYP OPT FREQ DEF2-TZVP D4 CPCM(Methanol) 
|  2> ! TightOpt
|  3> %pal nprocs 64 end
|  4> %maxcore 6000
|  5> 
|  6> %cpcm
|  7> end
|  8> 
|  9> %freq
| 10>    Temp 298.15
| 11> end
| 12> 
| 13> * xyzfile 0 1 conf-14.xyz
| 14> 
| 15> 
| 16>                          ****END OF INPUT****
================================================================================

                       *****************************
                       * Geometry Optimization Run *
                       *****************************

Geometry optimization settings:
Update method            Update   .... BFGS
Choice of coordinates    CoordSys .... (2022) Redundant Internals
Initial Hessian          InHess   .... Almloef's Model
Max. no of cycles        MaxIter  .... 246

Convergence Tolerances:
Energy Change            TolE     ....  1.0000e-06 Eh
Max. Gradient            TolMAXG  ....  1.0000e-04 Eh/bohr
RMS Gradient             TolRMSG  ....  3.0000e-05 Eh/bohr
Max. Displacement        TolMAXD  ....  1.0000e-03 bohr
RMS Displacement         TolRMSD  ....  6.0000e-04 bohr
Strict Convergence                .... False

------------------------------------------------------------------------------
                        ORCA OPTIMIZATION COORDINATE SETUP
------------------------------------------------------------------------------

The optimization will be done in redundant internal coordinates (2022)
Making redundant internal coordinates   ...  (2022 redundants) done
Evaluating the initial hessian          ...  (Almloef) done
Evaluating the coordinates              ...  done
Calculating the B-matrix                .... done
Calculating the G-matrix                .... done
The number of degrees of freedom        ....  405

    -----------------------------------------------------------------
                    Redundant Internal Coordinates


    -----------------------------------------------------------------
         Definition                    Initial Value    Approx d2E/dq
    -----------------------------------------------------------------
      1. B(C   1,C   0)                  1.4046         0.592218   
      2. B(C   2,C   1)                  1.3987         0.605201   
      3. B(C   3,C   2)                  1.3887         0.627782   
      4. B(C   4,C   3)                  1.3858         0.634558   
      5. B(C   5,C   0)                  1.3865         0.632835   
      6. B(C   5,C   4)                  1.3860         0.634071   
      7. B(C   6,C   4)                  1.5022         0.413755   
      8. B(C   7,C   6)                  1.5351         0.366584   
      9. B(C   8,C   7)                  1.5407         0.359194   
     10. B(C   9,C   8)                  1.5373         0.363649   
     11. B(C  10,C   9)                  1.5044         0.410471   
     12. B(C  11,C  10)                  1.3933         0.617204   
     13. B(C  12,C  11)                  1.3816         0.644432   
     14. B(C  13,C  12)                  1.4053         0.590619   
     15. B(C  14,C  13)                  1.3822         0.642848   
     16. B(C  15,C  10)                  1.3854         0.635345   
     17. B(C  15,C  14)                  1.3862         0.633588   
     18. B(C  16,C   7)                  1.5360         0.365414   
     19. B(C  17,C   8)                  1.5358         0.365680   
     20. B(O  18,C   2)                  1.3716         0.598780   
     21. B(O  19,C   0)                  1.3638         0.616159   
     22. B(O  20,C   1)                  1.3721         0.597539   
     23. B(O  21,C  13)                  1.3619         0.620540   
     24. B(O  22,C  12)                  1.3787         0.583419   
     25. B(C  23,O  20)                  1.4160         0.508702   
     26. B(C  24,C  23)                  1.5529         0.343438   
     27. B(C  25,C  24)                  1.5096         0.402670   
     28. B(C  26,C  23)                  1.5392         0.361182   
     29. B(O  27,C  26)                  1.3993         0.540898   
     30. B(C  28,C  25)                  1.3929         0.618072   
     31. B(C  29,C  28)                  1.3816         0.644427   
     32. B(C  30,C  29)                  1.4026         0.596626   
     33. B(C  31,C  30)                  1.3822         0.642905   
     34. B(C  32,C  31)                  1.3844         0.637880   
     35. B(C  32,C  25)                  1.3844         0.637825   
     36. B(C  33,O  19)                  1.4063         0.527041   
     37. B(C  34,O  18)                  1.4078         0.524246   
     38. B(C  35,O  22)                  1.4078         0.524210   
     39. B(O  36,C  24)                  1.4099         0.520120   
     40. B(O  37,C  16)                  1.4080         0.523777   
     41. B(O  38,C  17)                  1.4059         0.527891   
     42. B(O  39,C  29)                  1.3750         0.591292   
     43. B(O  40,C  30)                  1.3678         0.607231   
     44. B(C  41,O  39)                  1.4085         0.522866   
     45. B(H  42,C   3)                  1.0777         0.376743   
     46. B(H  43,C   5)                  1.0778         0.376669   
     47. B(H  44,C   6)                  1.0913         0.358332   
     48. B(H  45,C   6)                  1.0900         0.360120   
     49. B(H  46,C   7)                  1.0969         0.351138   
     50. B(H  47,C   8)                  1.0969         0.351119   
     51. B(H  48,C   9)                  1.0916         0.358050   
     52. B(H  49,C   9)                  1.0945         0.354209   
     53. B(H  50,C  11)                  1.0773         0.377333   
     54. B(H  51,C  14)                  1.0785         0.375671   
     55. B(H  52,C  15)                  1.0802         0.373319   
     56. B(H  53,C  16)                  1.0914         0.358283   
     57. B(H  54,C  16)                  1.0978         0.349909   
     58. B(H  55,C  17)                  1.0915         0.358062   
     59. B(H  56,C  17)                  1.1021         0.344448   
     60. B(H  57,O  21)                  0.9672         0.506404   
     61. B(H  57,O  22)                  2.1108         0.010000   
     62. B(H  58,C  23)                  1.0976         0.350229   
     63. B(H  59,C  24)                  1.0944         0.354376   
     64. B(H  60,C  26)                  1.1005         0.346492   
     65. B(H  61,C  26)                  1.0918         0.357723   
     66. B(H  62,O  20)                  2.1295         0.010000   
     67. B(H  62,O  27)                  0.9678         0.505252   
     68. B(H  63,C  28)                  1.0796         0.374129   
     69. B(H  64,C  31)                  1.0780         0.376328   
     70. B(H  65,C  32)                  1.0785         0.375600   
     71. B(H  66,C  33)                  1.0946         0.354074   
     72. B(H  67,H  64)                  4.1769         0.010000   
     73. B(H  67,C  33)                  1.0950         0.353607   
     74. B(H  68,C  33)                  1.0889         0.361492   
     75. B(H  69,C  34)                  1.0899         0.360291   
     76. B(H  70,C  34)                  1.0947         0.353989   
     77. B(H  71,C  34)                  1.0942         0.354536   
     78. B(H  72,H  64)                  4.9973         0.010000   
     79. B(H  72,C  35)                  1.0940         0.354901   
     80. B(H  73,C  35)                  1.0940         0.354841   
     81. B(H  74,C  35)                  1.0888         0.361749   
     82. B(H  75,O  36)                  0.9639         0.512643   
     83. B(H  76,O  40)                  1.9703         0.012709   
     84. B(H  76,O  37)                  0.9696         0.501939   
     85. B(H  77,O  38)                  0.9645         0.511394   
     86. B(H  78,O  39)                  2.1012         0.010000   
     87. B(H  78,O  40)                  0.9689         0.503235   
     88. B(H  79,C  41)                  1.0945         0.354171   
     89. B(H  80,O  21)                  2.3503         0.010000   
     90. B(H  80,C  41)                  1.0886         0.361963   
     91. B(H  81,H  70)                  2.4521         0.010000   
     92. B(H  81,C  41)                  1.0934         0.355687   
     93. A(C   1,C   0,O  19)          114.7601         0.427218   
     94. A(C   5,C   0,O  19)          124.9027         0.432334   
     95. A(C   1,C   0,C   5)          120.3371         0.432091   
     96. A(C   0,C   1,O  20)          115.1345         0.424877   
     97. A(C   0,C   1,C   2)          119.3231         0.428642   
     98. A(C   2,C   1,O  20)          125.2339         0.426530   
     99. A(C   3,C   2,O  18)          123.4242         0.429500   
    100. A(C   1,C   2,C   3)          119.3252         0.433155   
    101. A(C   1,C   2,O  18)          117.2506         0.426688   
    102. A(C   4,C   3,H  42)          118.4146         0.357026   
    103. A(C   2,C   3,H  42)          120.3363         0.356375   
    104. A(C   2,C   3,C   4)          121.2406         0.436864   
    105. A(C   5,C   4,C   6)          121.1810         0.405484   
    106. A(C   3,C   4,C   6)          119.2511         0.405539   
    107. A(C   3,C   4,C   5)          119.5597         0.437650   
    108. A(C   4,C   5,H  43)          119.0489         0.356967   
    109. A(C   0,C   5,H  43)          120.7663         0.356849   
    110. A(C   0,C   5,C   4)          120.1849         0.437435   
    111. A(C   4,C   6,H  44)          108.7599         0.329555   
    112. A(C   7,C   6,H  45)          109.3934         0.323318   
    113. A(C   4,C   6,C   7)          110.7037         0.368571   
    114. A(H  44,C   6,H  45)          108.6120         0.290617   
    115. A(C   4,C   6,H  45)          110.2991         0.329826   
    116. A(C   7,C   6,H  44)          109.0307         0.323054   
    117. A(C   6,C   7,C  16)          110.1313         0.360819   
    118. A(C   8,C   7,C  16)          110.6939         0.359569   
    119. A(C  16,C   7,H  46)          106.8288         0.321814   
    120. A(C   8,C   7,H  46)          106.7777         0.320911   
    121. A(C   6,C   7,H  46)          107.9157         0.321982   
    122. A(C   6,C   7,C   8)          114.1404         0.359765   
    123. A(C   7,C   8,C  17)          114.4893         0.359613   
    124. A(C  17,C   8,H  47)          107.2839         0.321849   
    125. A(C   7,C   8,C   9)          111.3894         0.359272   
    126. A(C   9,C   8,H  47)          108.6060         0.321556   
    127. A(C   7,C   8,H  47)          106.0005         0.320908   
    128. A(C   9,C   8,C  17)          108.8192         0.360369   
    129. A(H  48,C   9,H  49)          107.2120         0.289828   
    130. A(C  10,C   9,H  48)          109.1847         0.329079   
    131. A(C  10,C   9,H  49)          108.5829         0.328493   
    132. A(C   8,C   9,C  10)          113.9215         0.367560   
    133. A(C   8,C   9,H  48)          109.2971         0.322587   
    134. A(C   8,C   9,H  49)          108.4268         0.322017   
    135. A(C   9,C  10,C  11)          120.1735         0.402992   
    136. A(C  11,C  10,C  15)          118.7855         0.435626   
    137. A(C   9,C  10,C  15)          121.0276         0.405058   
    138. A(C  10,C  11,C  12)          120.7261         0.436742   
    139. A(C  10,C  11,H  50)          119.2096         0.355443   
    140. A(C  12,C  11,H  50)          120.0643         0.358060   
    141. A(C  11,C  12,C  13)          119.9399         0.433294   
    142. A(C  13,C  12,O  22)          114.5520         0.422860   
    143. A(C  11,C  12,O  22)          125.5079         0.429514   
    144. A(C  12,C  13,O  21)          120.1360         0.427553   
    145. A(C  12,C  13,C  14)          119.3025         0.433102   
    146. A(C  14,C  13,O  21)          120.5614         0.434109   
    147. A(C  13,C  14,H  51)          118.6774         0.357641   
    148. A(C  13,C  14,C  15)          120.1498         0.438615   
    149. A(C  15,C  14,H  51)          121.1689         0.356760   
    150. A(C  14,C  15,H  52)          119.1632         0.356380   
    151. A(C  10,C  15,H  52)          119.7718         0.356548   
    152. A(C  10,C  15,C  14)          121.0522         0.437688   
    153. A(O  37,C  16,H  54)          110.7006         0.339303   
    154. A(C   7,C  16,H  54)          108.4925         0.321629   
    155. A(O  37,C  16,H  53)          106.4258         0.340646   
    156. A(C   7,C  16,H  53)          110.4119         0.322877   
    157. A(C   7,C  16,O  37)          112.3099         0.381259   
    158. A(H  53,C  16,H  54)          108.4329         0.289303   
    159. A(O  38,C  17,H  56)          109.7747         0.338855   
    160. A(C   8,C  17,O  38)          114.3517         0.381825   
    161. A(H  55,C  17,H  56)          107.7579         0.288563   
    162. A(C   8,C  17,H  56)          108.2990         0.320840   
    163. A(O  38,C  17,H  55)          105.5106         0.341057   
    164. A(C   8,C  17,H  55)          110.9540         0.322883   
    165. A(C   2,O  18,C  34)          117.9118         0.413199   
    166. A(C   0,O  19,C  33)          118.2897         0.415699   
    167. A(C   1,O  20,C  23)          122.2607         0.410847   
    168. A(C  13,O  21,H  57)          107.5245         0.368496   
    169. A(C  12,O  22,C  35)          118.0319         0.411293   
    170. A(C  26,C  23,H  58)          110.0160         0.321064   
    171. A(C  24,C  23,H  58)          109.5743         0.318433   
    172. A(O  20,C  23,H  58)          111.1277         0.337705   
    173. A(C  24,C  23,C  26)          109.8551         0.356130   
    174. A(O  20,C  23,C  26)          103.5886         0.378569   
    175. A(O  20,C  23,C  24)          112.5344         0.375286   
    176. A(C  23,C  24,O  36)          110.1334         0.376728   
    177. A(O  36,C  24,H  59)          105.2351         0.339625   
    178. A(C  25,C  24,H  59)          110.1394         0.327481   
    179. A(C  23,C  24,H  59)          107.8670         0.319045   
    180. A(C  25,C  24,O  36)          112.0068         0.387278   
    181. A(C  23,C  24,C  25)          111.2137         0.362786   
    182. A(C  28,C  25,C  32)          119.3451         0.436042   
    183. A(C  24,C  25,C  32)          121.1754         0.403966   
    184. A(C  24,C  25,C  28)          119.4739         0.401731   
    185. A(O  27,C  26,H  61)          107.1327         0.342395   
    186. A(H  60,C  26,H  61)          109.4408         0.288787   
    187. A(C  23,C  26,H  61)          110.0436         0.322179   
    188. A(O  27,C  26,H  60)          110.5242         0.340572   
    189. A(C  23,C  26,H  60)          108.4188         0.320501   
    190. A(C  23,C  26,O  27)          111.2691         0.382619   
    191. A(C  26,O  27,H  62)          106.6294         0.359800   
    192. A(C  29,C  28,H  63)          119.6398         0.357540   
    193. A(C  25,C  28,H  63)          119.8163         0.355014   
    194. A(C  25,C  28,C  29)          120.5352         0.436852   
    195. A(C  30,C  29,O  39)          114.7873         0.424642   
    196. A(C  28,C  29,O  39)          125.6117         0.430548   
    197. A(C  28,C  29,C  30)          119.6004         0.434083   
    198. A(C  31,C  30,O  40)          120.5070         0.432427   
    199. A(C  29,C  30,O  40)          119.6995         0.426669   
    200. A(C  29,C  30,C  31)          119.7885         0.433898   
    201. A(C  32,C  31,H  64)          120.8920         0.357276   
    202. A(C  30,C  31,H  64)          118.9914         0.357753   
    203. A(C  30,C  31,C  32)          120.1054         0.439157   
    204. A(C  31,C  32,H  65)          119.7373         0.357158   
    205. A(C  25,C  32,H  65)          119.6730         0.357153   
    206. A(C  25,C  32,C  31)          120.5896         0.438529   
    207. A(H  67,C  33,H  68)          109.3193         0.290186   
    208. A(H  66,C  33,H  68)          109.2584         0.290246   
    209. A(O  19,C  33,H  68)          105.5831         0.341509   
    210. A(H  66,C  33,H  67)          109.3424         0.289244   
    211. A(O  19,C  33,H  67)          111.6153         0.340252   
    212. A(O  19,C  33,H  66)          111.6244         0.340327   
    213. A(H  69,C  34,H  71)          109.0156         0.290153   
    214. A(O  18,C  34,H  71)          111.3693         0.340099   
    215. A(H  69,C  34,H  70)          109.7080         0.290083   
    216. A(O  18,C  34,H  70)          111.7997         0.340011   
    217. A(O  18,C  34,H  69)          105.6245         0.341016   
    218. A(H  70,C  34,H  71)          109.2347         0.289352   
    219. A(H  73,C  35,H  74)          109.2833         0.290377   
    220. A(H  72,C  35,H  74)          109.4958         0.290384   
    221. A(O  22,C  35,H  74)          105.6138         0.341242   
    222. A(H  72,C  35,H  73)          109.6849         0.289507   
    223. A(O  22,C  35,H  73)          111.3183         0.340144   
    224. A(O  22,C  35,H  72)          111.3456         0.340153   
    225. A(C  24,O  36,H  75)          108.8499         0.358294   
    226. A(C  16,O  37,H  76)          107.5894         0.357436   
    227. A(C  17,O  38,H  77)          108.3892         0.359050   
    228. A(C  29,O  39,C  41)          118.3000         0.412084   
    229. A(C  30,O  40,H  78)          107.4591         0.366733   
    230. A(H  80,C  41,H  81)          109.2517         0.290512   
    231. A(H  79,C  41,H  81)          109.4915         0.289522   
    232. A(O  39,C  41,H  81)          111.6920         0.340133   
    233. A(H  79,C  41,H  80)          109.9297         0.290317   
    234. A(O  39,C  41,H  80)          105.3166         0.341129   
    235. A(O  39,C  41,H  79)          111.0719         0.339891   
    236. D(O  20,C   1,C   0,O  19)     -6.5803         0.024145   
    237. D(C   2,C   1,C   0,O  19)    179.4650         0.024145   
    238. D(C   2,C   1,C   0,C   5)     -0.6241         0.024145   
    239. D(O  20,C   1,C   0,C   5)    173.3306         0.024145   
    240. D(O  18,C   2,C   1,C   0)    179.1170         0.025274   
    241. D(C   3,C   2,C   1,C   0)     -0.8514         0.025274   
    242. D(C   3,C   2,C   1,O  20)   -174.1481         0.025274   
    243. D(O  18,C   2,C   1,O  20)      5.8203         0.025274   
    244. D(C   4,C   3,C   2,C   1)      1.9296         0.027314   
    245. D(H  42,C   3,C   2,O  18)      0.8819         0.027314   
    246. D(C   4,C   3,C   2,O  18)   -178.0367         0.027314   
    247. D(H  42,C   3,C   2,C   1)   -179.1518         0.027314   
    248. D(C   6,C   4,C   3,H  42)      0.5804         0.027945   
    249. D(C   5,C   4,C   3,H  42)    179.5576         0.027945   
    250. D(C   5,C   4,C   3,C   2)     -1.5037         0.027945   
    251. D(C   6,C   4,C   3,C   2)    179.5191         0.027945   
    252. D(H  43,C   5,C   4,C   6)     -1.0955         0.027899   
    253. D(H  43,C   5,C   4,C   3)    179.9476         0.027899   
    254. D(C   0,C   5,C   4,C   3)     -0.0095         0.027899   
    255. D(C   4,C   5,C   0,O  19)   -179.0368         0.027784   
    256. D(H  43,C   5,C   0,C   1)   -178.8944         0.027784   
    257. D(H  43,C   5,C   0,O  19)      1.0069         0.027784   
    258. D(C   0,C   5,C   4,C   6)    178.9475         0.027899   
    259. D(C   4,C   5,C   0,C   1)      1.0619         0.027784   
    260. D(H  45,C   6,C   4,C   3)   -163.2292         0.012671   
    261. D(H  44,C   6,C   4,C   5)    136.8243         0.012671   
    262. D(H  44,C   6,C   4,C   3)    -44.2156         0.012671   
    263. D(C   7,C   6,C   4,C   5)   -103.4063         0.012671   
    264. D(C   7,C   6,C   4,C   3)     75.5538         0.012671   
    265. D(C   8,C   7,C   6,H  44)    -41.2534         0.010755   
    266. D(C   8,C   7,C   6,C   4)   -160.8602         0.010755   
    267. D(C  16,C   7,C   6,H  45)    -47.8314         0.010755   
    268. D(C  16,C   7,C   6,H  44)   -166.4738         0.010755   
    269. D(C   8,C   7,C   6,H  45)     77.3889         0.010755   
    270. D(C  16,C   7,C   6,C   4)     73.9194         0.010755   
    271. D(C  17,C   8,C   7,H  46)   -163.9557         0.010354   
    272. D(C  17,C   8,C   7,C  16)     80.1235         0.010354   
    273. D(C  17,C   8,C   7,C   6)    -44.7986         0.010354   
    274. D(C   9,C   8,C   7,C  16)   -155.8826         0.010354   
    275. D(C   9,C   8,C   7,H  46)    -39.9618         0.010354   
    276. D(C   9,C   8,C   7,C   6)     79.1953         0.010354   
    277. D(H  48,C   9,C   8,C  17)     59.4612         0.010595   
    278. D(H  48,C   9,C   8,C   7)    -67.6825         0.010595   
    279. D(C  10,C   9,C   8,H  47)    -61.6300         0.010595   
    280. D(C  10,C   9,C   8,C  17)   -178.1128         0.010595   
    281. D(H  48,C   9,C   8,H  47)    175.9439         0.010595   
    282. D(C  10,C   9,C   8,C   7)     54.7435         0.010595   
    283. D(C  15,C  10,C   9,H  48)     -4.6051         0.012478   
    284. D(C  15,C  10,C   9,C   8)   -127.0929         0.012478   
    285. D(C  11,C  10,C   9,H  49)    -66.6680         0.012478   
    286. D(C  11,C  10,C   9,H  48)    176.7473         0.012478   
    287. D(C  11,C  10,C   9,C   8)     54.2595         0.012478   
    288. D(H  50,C  11,C  10,C  15)    179.7747         0.026346   
    289. D(H  50,C  11,C  10,C   9)     -1.5476         0.026346   
    290. D(C  12,C  11,C  10,C  15)     -0.1631         0.026346   
    291. D(C  12,C  11,C  10,C   9)    178.5145         0.026346   
    292. D(O  22,C  12,C  11,H  50)     -1.4698         0.028881   
    293. D(C  13,C  12,C  11,H  50)    178.3677         0.028881   
    294. D(O  22,C  12,C  11,C  10)    178.4675         0.028881   
    295. D(C  13,C  12,C  11,C  10)     -1.6950         0.028881   
    296. D(O  21,C  13,C  12,C  11)   -177.6082         0.024008   
    297. D(C  14,C  13,C  12,O  22)   -177.8641         0.024008   
    298. D(C  14,C  13,C  12,C  11)      2.2813         0.024008   
    299. D(O  21,C  13,C  12,O  22)      2.2464         0.024008   
    300. D(H  51,C  14,C  13,O  21)     -0.4233         0.028730   
    301. D(H  51,C  14,C  13,C  12)    179.6876         0.028730   
    302. D(C  15,C  14,C  13,O  21)    178.8700         0.028730   
    303. D(C  15,C  14,C  13,C  12)     -1.0190         0.028730   
    304. D(H  52,C  15,C  14,H  51)     -0.2731         0.027854   
    305. D(H  52,C  15,C  14,C  13)   -179.5485         0.027854   
    306. D(C  10,C  15,C  14,H  51)    178.4214         0.027854   
    307. D(C  10,C  15,C  14,C  13)     -0.8540         0.027854   
    308. D(H  52,C  15,C  10,C  11)   -179.8634         0.028019   
    309. D(H  52,C  15,C  10,C   9)      1.4706         0.028019   
    310. D(C  14,C  15,C  10,C  11)      1.4500         0.028019   
    311. D(C  14,C  15,C  10,C   9)   -177.2160         0.028019   
    312. D(H  53,C  16,C   7,H  46)   -174.4614         0.010691   
    313. D(H  53,C  16,C   7,C   8)    -58.5724         0.010691   
    314. D(H  53,C  16,C   7,C   6)     68.5915         0.010691   
    315. D(O  37,C  16,C   7,H  46)    -55.8524         0.010691   
    316. D(O  37,C  16,C   7,C   8)     60.0366         0.010691   
    317. D(O  37,C  16,C   7,C   6)   -172.7995         0.010691   
    318. D(H  55,C  17,C   8,H  47)    175.5076         0.010706   
    319. D(H  55,C  17,C   8,C   9)    -67.1658         0.010706   
    320. D(H  55,C  17,C   8,C   7)     58.1882         0.010706   
    321. D(O  38,C  17,C   8,H  47)     56.3220         0.010706   
    322. D(O  38,C  17,C   8,C   9)    173.6485         0.010706   
    323. D(O  38,C  17,C   8,C   7)    -60.9974         0.010706   
    324. D(C  34,O  18,C   2,C   3)      5.1291         0.026179   
    325. D(C  34,O  18,C   2,C   1)   -174.8378         0.026179   
    326. D(C  33,O  19,C   0,C   5)      0.1654         0.027829   
    327. D(C  33,O  19,C   0,C   1)   -179.9284         0.027829   
    328. D(C  23,O  20,C   1,C   2)    -51.6648         0.028754   
    329. D(C  23,O  20,C   1,C   0)    134.7898         0.028754   
    330. D(H  57,O  21,C  13,C  14)   -179.0845         0.031185   
    331. D(H  57,O  21,C  13,C  12)      0.8036         0.031185   
    332. D(C  35,O  22,C  12,C  13)    177.3997         0.027321   
    333. D(C  35,O  22,C  12,C  11)     -2.7550         0.027321   
    334. D(H  58,C  23,O  20,C   1)     58.4094         0.022225   
    335. D(C  26,C  23,O  20,C   1)    176.5035         0.022225   
    336. D(C  24,C  23,O  20,C   1)    -64.9025         0.022225   
    337. D(O  36,C  24,C  23,H  58)     63.8250         0.010000   
    338. D(O  36,C  24,C  23,C  26)    -57.1485         0.010000   
    339. D(O  36,C  24,C  23,O  20)   -172.0005         0.010000   
    340. D(C  25,C  24,C  23,H  58)    -60.9541         0.010000   
    341. D(C  25,C  24,C  23,C  26)    178.0725         0.010000   
    342. D(C  25,C  24,C  23,O  20)     63.2204         0.010000   
    343. D(C  32,C  25,C  24,O  36)    125.3269         0.012026   
    344. D(C  32,C  25,C  24,C  23)   -110.9542         0.012026   
    345. D(C  28,C  25,C  24,H  59)   -170.5530         0.012026   
    346. D(C  28,C  25,C  24,O  36)    -53.8025         0.012026   
    347. D(C  28,C  25,C  24,C  23)     69.9164         0.012026   
    348. D(H  60,C  26,C  23,H  58)     49.0209         0.010461   
    349. D(H  60,C  26,C  23,C  24)    169.7281         0.010461   
    350. D(H  60,C  26,C  23,O  20)    -69.8424         0.010461   
    351. D(O  27,C  26,C  23,H  58)    170.7682         0.010461   
    352. D(O  27,C  26,C  23,C  24)    -68.5246         0.010461   
    353. D(O  27,C  26,C  23,O  20)     51.9050         0.010461   
    354. D(H  62,O  27,C  26,H  61)   -163.1901         0.023279   
    355. D(H  62,O  27,C  26,H  60)     77.6468         0.023279   
    356. D(H  62,O  27,C  26,C  23)    -42.8680         0.023279   
    357. D(H  63,C  28,C  25,C  32)   -179.2634         0.026424   
    358. D(H  63,C  28,C  25,C  24)     -0.1179         0.026424   
    359. D(C  29,C  28,C  25,C  32)      1.8105         0.026424   
    360. D(C  29,C  28,C  25,C  24)   -179.0440         0.026424   
    361. D(C  30,C  29,C  28,H  63)   -179.3512         0.028881   
    362. D(C  30,C  29,C  28,C  25)     -0.4233         0.028881   
    363. D(O  39,C  29,C  28,H  63)      0.9550         0.028881   
    364. D(O  39,C  29,C  28,C  25)    179.8830         0.028881   
    365. D(O  40,C  30,C  29,O  39)     -0.6806         0.024525   
    366. D(O  40,C  30,C  29,C  28)    179.5936         0.024525   
    367. D(C  31,C  30,C  29,O  39)    178.5151         0.024525   
    368. D(C  31,C  30,C  29,C  28)     -1.2107         0.024525   
    369. D(H  64,C  31,C  30,O  40)      1.8426         0.028735   
    370. D(H  64,C  31,C  30,C  29)   -177.3465         0.028735   
    371. D(C  32,C  31,C  30,O  40)   -179.3643         0.028735   
    372. D(C  32,C  31,C  30,C  29)      1.4466         0.028735   
    373. D(H  65,C  32,C  31,H  64)     -1.3930         0.028258   
    374. D(H  65,C  32,C  31,C  30)    179.8371         0.028258   
    375. D(C  25,C  32,C  31,H  64)    178.7243         0.028258   
    376. D(C  25,C  32,C  31,C  30)     -0.0455         0.028258   
    377. D(H  65,C  32,C  25,C  28)    178.5378         0.028252   
    378. D(H  65,C  32,C  25,C  24)     -0.5927         0.028252   
    379. D(C  31,C  32,C  25,C  28)     -1.5794         0.028252   
    380. D(C  31,C  32,C  25,C  24)    179.2900         0.028252   
    381. D(H  68,C  33,O  19,C   0)    179.2739         0.022048   
    382. D(H  67,C  33,O  19,C   0)     60.5923         0.022048   
    383. D(H  66,C  33,O  19,C   0)    -62.1128         0.022048   
    384. D(H  71,C  34,O  18,C   2)     59.3987         0.021804   
    385. D(H  70,C  34,O  18,C   2)    -63.1152         0.021804   
    386. D(H  69,C  34,O  18,C   2)    177.6104         0.021804   
    387. D(H  74,C  35,O  22,C  12)   -177.4052         0.023666   
    388. D(H  73,C  35,O  22,C  12)     64.0959         0.023666   
    389. D(H  72,C  35,O  22,C  12)    -58.6375         0.023666   
    390. D(H  75,O  36,C  24,H  59)    176.4583         0.021448   
    391. D(H  75,O  36,C  24,C  25)     56.7909         0.021448   
    392. D(H  75,O  36,C  24,C  23)    -67.5319         0.021448   
    393. D(H  76,O  37,C  16,H  54)    -57.0984         0.021764   
    394. D(H  76,O  37,C  16,H  53)   -174.7310         0.021764   
    395. D(H  76,O  37,C  16,C   7)     64.3387         0.021764   
    396. D(H  77,O  38,C  17,H  56)     67.6895         0.022122   
    397. D(H  77,O  38,C  17,H  55)   -176.4530         0.022122   
    398. D(H  77,O  38,C  17,C   8)    -54.2455         0.022122   
    399. D(C  41,O  39,C  29,C  30)   -169.4063         0.028114   
    400. D(C  41,O  39,C  29,C  28)     10.3004         0.028114   
    401. D(H  78,O  40,C  30,C  31)   -177.9169         0.029763   
    402. D(H  78,O  40,C  30,C  29)      1.2729         0.029763   
    403. D(H  81,C  41,O  39,C  29)    -63.3627         0.023539   
    404. D(H  80,C  41,O  39,C  29)    178.1567         0.023539   
    405. D(H  79,C  41,O  39,C  29)     59.1917         0.023539   
    -----------------------------------------------------------------

Number of atoms                         .... 82
Number of degrees of freedom            .... 405


         *************************************************************
         *                GEOMETRY OPTIMIZATION CYCLE   1            *
         *************************************************************
---------------------------------
CARTESIAN COORDINATES (ANGSTROEM)
---------------------------------
  C     20.995891  -30.096640    2.025735
  C     21.627409  -29.856874    0.794258
  C     20.948450  -30.151499   -0.392544
  C     19.670697  -30.691688   -0.329010
  C     19.041120  -30.907170    0.886550
  C     19.707673  -30.607954    2.064320
  C     17.654120  -31.483841    0.902771
  C     17.688323  -32.988396    0.599776
  C     16.337582  -33.569353    0.139666
  C     16.070353  -33.261044   -1.342534
  C     17.168336  -33.711671   -2.266910
  C     17.600364  -35.036189   -2.247764
  C     18.586595  -35.469573   -3.112797
  C     19.139547  -34.578994   -4.048754
  C     18.720036  -33.261986   -4.059187
  C     17.748435  -32.833690   -3.168068
  C     18.225683  -33.760158    1.814255
  C     15.130001  -33.105788    0.967664
  O     21.597654  -29.883430   -1.570635
  O     21.745677  -29.786915    3.122008
  O     22.839760  -29.219377    0.875355
  O     20.076929  -35.014187   -4.935652
  O     19.107800  -36.745091   -3.158424
  C     23.968626  -29.645123    0.134184
  C     24.459837  -31.056557    0.556148
  C     23.410286  -32.105628    0.279133
  C     25.041399  -28.595005    0.474028
  O     25.177791  -28.438182    1.857758
  C     23.114576  -32.448137   -1.038266
  C     22.144155  -33.391048   -1.317483
  C     21.459075  -34.013172   -0.263539
  C     21.777276  -33.696857    1.043837
  C     22.748121  -32.747089    1.311887
  C     21.185523  -29.999490    4.394314
  C     20.887364  -30.069853   -2.771690
  C     18.646038  -37.682619   -2.215203
  O     25.683966  -31.353794   -0.077111
  O     18.429609  -35.124626    1.532962
  O     15.189321  -33.458969    2.327162
  O     21.767836  -33.804931   -2.573555
  O     20.492151  -34.940854   -0.537838
  C     22.553551  -33.404608   -3.671832
  H     19.138115  -30.937578   -1.233075
  H     19.209948  -30.777964    3.005023
  H     17.055989  -30.980930    0.140969
  H     17.188173  -31.320849    1.874571
  H     18.398787  -33.151462   -0.219829
  H     16.418600  -34.656377    0.261934
  H     15.915949  -32.187488   -1.465528
  H     15.140629  -33.757804   -1.637071
  H     17.156543  -35.723857   -1.547295
  H     19.154772  -32.586032   -4.778356
  H     17.427160  -31.802741   -3.195052
  H     17.511335  -33.718345    2.638308
  H     19.160941  -33.287355    2.141283
  H     15.040576  -32.018021    0.952299
  H     14.217500  -33.524526    0.513113
  H     20.216950  -35.957120   -4.772170
  H     23.761091  -29.634975   -0.943535
  H     24.689277  -31.026344    1.625761
  H     24.756075  -27.641751    0.003955
  H     26.012165  -28.913709    0.089224
  H     24.282243  -28.423047    2.224389
  H     23.634928  -31.961223   -1.849239
  H     21.273060  -34.214026    1.844080
  H     22.989852  -32.502950    2.334230
  H     20.291702  -29.386884    4.549016
  H     20.934919  -31.053391    4.553732
  H     21.953631  -29.700217    5.105831
  H     21.567366  -29.761759   -3.565707
  H     20.600978  -31.116434   -2.916360
  H     19.991283  -29.442804   -2.806425
  H     18.828423  -37.341027   -1.192072
  H     17.580439  -37.890484   -2.349871
  H     19.216022  -38.591263   -2.401953
  H     25.529924  -31.448281   -1.023874
  H     19.124865  -35.184291    0.859772
  H     15.325553  -34.411859    2.388326
  H     20.447809  -35.038505   -1.500782
  H     23.585306  -33.754196   -3.565804
  H     22.091533  -33.869956   -4.540757
  H     22.547523  -32.318639   -3.798574

----------------------------
CARTESIAN COORDINATES (A.U.)
----------------------------
  NO LB      ZA    FRAG     MASS         X           Y           Z
   0 C     6.0000    0    12.011   39.676484  -56.874406    3.828085
   1 C     6.0000    0    12.011   40.869879  -56.421315    1.500931
   2 C     6.0000    0    12.011   39.586834  -56.978076   -0.741801
   3 C     6.0000    0    12.011   37.172230  -57.998885   -0.621739
   4 C     6.0000    0    12.011   35.982502  -58.406087    1.675337
   5 C     6.0000    0    12.011   37.242104  -57.840650    3.901000
   6 C     6.0000    0    12.011   33.361452  -59.495837    1.705990
   7 C     6.0000    0    12.011   33.426086  -62.339033    1.133412
   8 C     6.0000    0    12.011   30.873556  -63.436883    0.263931
   9 C     6.0000    0    12.011   30.368566  -62.854264   -2.537022
  10 C     6.0000    0    12.011   32.443453  -63.705826   -4.283840
  11 C     6.0000    0    12.011   33.259868  -66.208803   -4.247659
  12 C     6.0000    0    12.011   35.123575  -67.027780   -5.882333
  13 C     6.0000    0    12.011   36.168502  -65.344828   -7.651037
  14 C     6.0000    0    12.011   35.375742  -62.856045   -7.670752
  15 C     6.0000    0    12.011   33.539682  -62.046682   -5.986780
  16 C     6.0000    0    12.011   34.441549  -63.797453    3.428445
  17 C     6.0000    0    12.011   28.591558  -62.560873    1.828620
  18 O     8.0000    0    15.999   40.813650  -56.471499   -2.968071
  19 O     8.0000    0    15.999   41.093374  -56.289112    5.899740
  20 O     8.0000    0    15.999   43.160891  -55.216620    1.654182
  21 O     8.0000    0    15.999   37.939897  -66.167224   -9.327030
  22 O     8.0000    0    15.999   36.108509  -69.438158   -5.968557
  23 C     6.0000    0    12.011   45.294139  -56.021164    0.253571
  24 C     6.0000    0    12.011   46.222393  -58.688387    1.050968
  25 C     6.0000    0    12.011   44.239029  -60.670845    0.527486
  26 C     6.0000    0    12.011   47.321386  -54.036728    0.895783
  27 O     8.0000    0    15.999   47.579130  -53.740376    3.510653
  28 C     6.0000    0    12.011   43.680219  -61.318092   -1.962038
  29 C     6.0000    0    12.011   41.846388  -63.099936   -2.489681
  30 C     6.0000    0    12.011   40.551774  -64.275580   -0.498017
  31 C     6.0000    0    12.011   41.153088  -63.677832    1.972565
  32 C     6.0000    0    12.011   42.987719  -61.883031    2.479107
  33 C     6.0000    0    12.011   40.034836  -56.690821    8.304050
  34 C     6.0000    0    12.011   39.471397  -56.823787   -5.237736
  35 C     6.0000    0    12.011   35.235906  -71.209831   -4.186127
  36 O     8.0000    0    15.999   48.535661  -59.250084   -0.145718
  37 O     8.0000    0    15.999   34.826914  -66.375923    2.896878
  38 O     8.0000    0    15.999   28.703657  -63.228288    4.397699
  39 O     8.0000    0    15.999   41.135249  -63.882061   -4.863315
  40 O     8.0000    0    15.999   38.724553  -66.028644   -1.016367
  41 C     6.0000    0    12.011   42.620035  -63.125560   -6.938757
  42 H     1.0000    0     1.008   36.165796  -58.463551   -2.330174
  43 H     1.0000    0     1.008   36.301541  -58.161924    5.678670
  44 H     1.0000    0     1.008   32.231149  -58.545472    0.266393
  45 H     1.0000    0     1.008   32.480941  -59.187826    3.542425
  46 H     1.0000    0     1.008   34.768669  -62.647184   -0.415417
  47 H     1.0000    0     1.008   31.026657  -65.491061    0.494983
  48 H     1.0000    0     1.008   30.076784  -60.825538   -2.769447
  49 H     1.0000    0     1.008   28.611643  -63.793005   -3.093616
  50 H     1.0000    0     1.008   32.421167  -67.508306   -2.923964
  51 H     1.0000    0     1.008   36.197273  -61.578676   -9.029783
  52 H     1.0000    0     1.008   32.932559  -60.098471   -6.037773
  53 H     1.0000    0     1.008   33.091627  -63.718438    4.985679
  54 H     1.0000    0     1.008   36.208931  -62.903985    4.046438
  55 H     1.0000    0     1.008   28.422570  -60.505291    1.799584
  56 H     1.0000    0     1.008   26.867180  -63.352174    0.969643
  57 H     1.0000    0     1.008   38.204499  -67.949109   -9.018095
  58 H     1.0000    0     1.008   44.901954  -56.001986   -1.783022
  59 H     1.0000    0     1.008   46.655972  -58.631293    3.072243
  60 H     1.0000    0     1.008   46.782203  -52.235339    0.007475
  61 H     1.0000    0     1.008   49.155869  -54.638991    0.168609
  62 H     1.0000    0     1.008   45.886789  -53.711776    4.203487
  63 H     1.0000    0     1.008   44.663540  -60.397958   -3.494556
  64 H     1.0000    0     1.008   40.200258  -64.655139    3.484806
  65 H     1.0000    0     1.008   43.444524  -61.421674    4.411055
  66 H     1.0000    0     1.008   38.345760  -55.533162    8.596394
  67 H     1.0000    0     1.008   39.561263  -58.682404    8.605306
  68 H     1.0000    0     1.008   41.486351  -56.125276    9.648622
  69 H     1.0000    0     1.008   40.756414  -56.241575   -6.738209
  70 H     1.0000    0     1.008   38.930207  -58.801538   -5.511121
  71 H     1.0000    0     1.008   37.778049  -55.638837   -5.303375
  72 H     1.0000    0     1.008   35.580563  -70.564314   -2.252690
  73 H     1.0000    0     1.008   33.222215  -71.602638   -4.440613
  74 H     1.0000    0     1.008   36.313019  -72.926919   -4.539033
  75 H     1.0000    0     1.008   48.244565  -59.428638   -1.934842
  76 H     1.0000    0     1.008   36.140757  -66.488674    1.624734
  77 H     1.0000    0     1.008   28.961098  -65.028989    4.513283
  78 H     1.0000    0     1.008   38.640759  -66.213178   -2.836067
  79 H     1.0000    0     1.008   44.569769  -63.786186   -6.738394
  80 H     1.0000    0     1.008   41.746947  -64.004940   -8.580787
  81 H     1.0000    0     1.008   42.608644  -61.073377   -7.178265

--------------------------------
INTERNAL COORDINATES (ANGSTROEM)
--------------------------------
 C      0   0   0     0.000000000000     0.00000000     0.00000000
 C      1   0   0     1.404577131838     0.00000000     0.00000000
 C      2   1   0     1.398674092982   119.32309705     0.00000000
 C      3   2   1     1.388702264712   119.32517576   359.14862225
 C      4   3   2     1.385780120431   121.24056080     1.92960169
 C      5   4   3     1.385988930712   119.55972830   358.49634821
 C      5   4   3     1.502191877950   119.25113583   179.51914674
 C      7   5   4     1.535141922654   110.70367088    75.55375702
 C      8   7   5     1.540685690584   114.14039747   199.13976719
 C      9   8   7     1.537330295997   111.38939360    79.19529539
 C     10   9   8     1.504361343585   113.92151365    54.74352476
 C     11  10   9     1.393327943099   120.17347228    54.25951590
 C     12  11  10     1.381576911388   120.72605174   178.51453170
 C     13  12  11     1.405313208371   119.93987692   358.30498861
 C     14  13  12     1.382246722647   119.30254824     2.28132722
 C     11  10   9     1.385442493365   121.02757109   232.90708273
 C      8   7   5     1.536011992881   110.13128096    73.91944499
 C      9   8   7     1.535813904082   114.48932224   315.20139062
 O      3   2   1     1.371577527172   117.25062731   179.11698608
 O      1   2   3     1.363789339795   114.76013346   179.46504089
 O      2   1   3     1.372142150387   115.13450606   173.95462983
 O     14  13  12     1.361860655197   120.13598422   182.39182216
 O     13  12  11     1.378651859191   125.50791183   178.46746632
 C     21   2   1     1.415956812800   122.26070696   134.78984226
 C     24  21   2     1.552896282396   112.53438305   295.09748401
 C     25  24  21     1.509584421513   111.21371061    63.22042790
 C     24  21   2     1.539183239397   103.58858145   176.50350089
 O     27  24  21     1.399251232397   111.26908504    51.90500436
 C     26  25  24     1.392945544771   119.47385896    69.91638583
 C     29  26  25     1.381578909424   120.53522087   180.95599319
 C     30  29  26     1.402558362860   119.60040709   359.57674502
 C     31  30  29     1.382222638660   119.78847349   358.78932677
 C     32  31  30     1.384358584051   120.10539317     1.44660461
 C     20   1   2     1.406315708847   118.28971354   180.07160460
 C     19   3   2     1.407763477443   117.91175335   185.16217900
 C     23  13  12     1.407782103847   118.03192190   357.24495296
 O     25  24  21     1.409914319424   110.13337504   187.99946002
 O     17   8   7     1.408006873189   112.30990980   187.20045918
 O     18   9   8     1.405877197746   114.35174589   299.00257408
 O     30  29  26     1.375002969996   125.61167245   179.88299068
 O     31  30  29     1.367762371474   119.69954980   179.59361100
 C     40  30  29     1.408480741111   118.29996438    10.30044077
 H      4   3   2     1.077700884783   120.33626933   180.84815691
 H      6   5   4     1.077754345843   119.04887496   179.94758065
 H      7   5   4     1.091339528506   108.75987924   315.78435026
 H      7   5   4     1.089985044295   110.29914986   196.77077641
 H      8   7   5     1.096860591292   107.91572704   317.65115939
 H      9   8   7     1.096874971499   106.00046071   197.15079289
 H     10   9   8     1.091553750648   109.29713079   292.31746531
 H     10   9   8     1.094490062223   108.42681751   175.75812294
 H     12  11  10     1.077274819393   119.20962600   358.45235827
 H     15  14  13     1.078476802165   118.67740673   179.68764785
 H     16  11  10     1.080186077298   119.77175840     1.47063730
 H     17   8   7     1.091377209128   110.41194529    68.59148481
 H     17   8   7     1.097814965587   108.49246606   309.89251926
 H     18   9   8     1.091544749223   110.95401388    58.18821447
 H     18   9   8     1.102096546093   108.29899746   176.26327111
 H     22  14  13     0.967189253326   107.52450184     0.80358800
 H     24  21   2     1.097566242222   111.12769526    58.40940414
 H     25  24  21     1.094361479459   107.86698319   302.34527317
 H     27  24  21     1.100486368756   108.41882961   290.15763400
 H     27  24  21     1.091803113639   110.04360780   170.49336485
 H     28  27  24     0.967809220319   106.62936358   317.13198398
 H     29  26  25     1.079596708165   119.81630652   359.88208460
 H     32  31  30     1.078001477914   118.99136227   182.65346054
 H     33  32  31     1.078528050876   119.73727644   179.83713806
 H     34  20   1     1.094593655964   111.62443953   297.88717353
 H     34  20   1     1.094953166955   111.61527859    60.59230570
 H     34  20   1     1.088949584956   105.58307761   179.27387584
 H     35  19   3     1.089856031876   105.62446083   177.61042933
 H     35  19   3     1.094658877993   111.79974935   296.88478900
 H     35  19   3     1.094238491969   111.36934926    59.39867033
 H     36  23  13     1.093959055928   111.34555416   301.36254215
 H     36  23  13     1.094004458084   111.31834189    64.09593348
 H     36  23  13     1.088756379481   105.61376854   182.59475950
 H     37  25  24     0.963855731639   108.84991732   292.46811222
 H     38  17   8     0.969599881647   107.58942423    64.33867333
 H     39  18   9     0.964519942270   108.38921740   305.75454353
 H     41  31  30     0.968897876668   107.45907700     1.27290166
 H     42  40  30     1.094518876842   111.07192865    59.19172106
 H     42  40  30     1.088595548631   105.31659703   178.15670503
 H     42  40  30     1.093356504168   111.69202298   296.63733786

---------------------------
INTERNAL COORDINATES (A.U.)
---------------------------
 C      0   0   0     0.000000000000     0.00000000     0.00000000
 C      1   0   0     2.654266113142     0.00000000     0.00000000
 C      2   1   0     2.643110986347   119.32309705     0.00000000
 C      3   2   1     2.624266961861   119.32517576   359.14862225
 C      4   3   2     2.618744909447   121.24056080     1.92960169
 C      5   4   3     2.619139503693   119.55972830   358.49634821
 C      5   4   3     2.838731249926   119.25113583   179.51914674
 C      7   5   4     2.900997810517   110.70367088    75.55375702
 C      8   7   5     2.911474013655   114.14039747   199.13976719
 C      9   8   7     2.905133236814   111.38939360    79.19529539
 C     10   9   8     2.842830945833   113.92151365    54.74352476
 C     11  10   9     2.633008227197   120.17347228    54.25951590
 C     12  11  10     2.610801995473   120.72605174   178.51453170
 C     13  12  11     2.655657096203   119.93987692   358.30498861
 C     14  13  12     2.612067755313   119.30254824     2.28132722
 C     11  10   9     2.618106886756   121.02757109   232.90708273
 C      8   7   5     2.902642004964   110.13128096    73.91944499
 C      9   8   7     2.902267671383   114.48932224   315.20139062
 O      3   2   1     2.591905897796   117.25062731   179.11698608
 O      1   2   3     2.577188356574   114.76013346   179.46504089
 O      2   1   3     2.592972881042   115.13450606   173.95462983
 O     14  13  12     2.573543670884   120.13598422   182.39182216
 O     13  12  11     2.605274447892   125.50791183   178.46746632
 C     21   2   1     2.675770593652   122.26070696   134.78984226
 C     24  21   2     2.934548688114   112.53438305   295.09748401
 C     25  24  21     2.852701132694   111.21371061    63.22042790
 C     24  21   2     2.908634792382   103.58858145   176.50350089
 O     27  24  21     2.644201621782   111.26908504    51.90500436
 C     26  25  24     2.632285599083   119.47385896    69.91638583
 C     29  26  25     2.610805771213   120.53522087   180.95599319
 C     30  29  26     2.650451192647   119.60040709   359.57674502
 C     31  30  29     2.612022243174   119.78847349   358.78932677
 C     32  31  30     2.616058595000   120.10539317     1.44660461
 C     20   1   2     2.657551547552   118.28971354   180.07160460
 C     19   3   2     2.660287433703   117.91175335   185.16217900
 C     23  13  12     2.660322632507   118.03192190   357.24495296
 O     25  24  21     2.664351936005   110.13337504   187.99946002
 O     17   8   7     2.660747385006   112.30990980   187.20045918
 O     18   9   8     2.656722881664   114.35174589   299.00257408
 O     30  29  26     2.598379046620   125.61167245   179.88299068
 O     31  30  29     2.584696298368   119.69954980   179.59361100
 C     40  30  29     2.661642865602   118.29996438    10.30044077
 H      4   3   2     2.036559526525   120.33626933   180.84815691
 H      6   5   4     2.036660553286   119.04887496   179.94758065
 H      7   5   4     2.062332827998   108.75987924   315.78435026
 H      7   5   4     2.059773223787   110.29914986   196.77077641
 H      8   7   5     2.072766124633   107.91572704   317.65115939
 H      9   8   7     2.072793299285   106.00046071   197.15079289
 H     10   9   8     2.062737649179   109.29713079   292.31746531
 H     10   9   8     2.068286473900   108.42681751   175.75812294
 H     12  11  10     2.035754379622   119.20962600   358.45235827
 H     15  14  13     2.038025797878   118.67740673   179.68764785
 H     16  11  10     2.041255859767   119.77175840     1.47063730
 H     17   8   7     2.062404034056   110.41194529    68.59148481
 H     17   8   7     2.074569630680   108.49246606   309.89251926
 H     18   9   8     2.062720638952   110.95401388    58.18821447
 H     18   9   8     2.082660645257   108.29899746   176.26327111
 H     22  14  13     1.827722808458   107.52450184     0.80358800
 H     24  21   2     2.074099611637   111.12769526    58.40940414
 H     25  24  21     2.068043487691   107.86698319   302.34527317
 H     27  24  21     2.079617851062   108.41882961   290.15763400
 H     27  24  21     2.063208876941   110.04360780   170.49336485
 H     28  27  24     1.828894376287   106.62936358   317.13198398
 H     29  26  25     2.040142113515   119.81630652   359.88208460
 H     32  31  30     2.037127565219   118.99136227   182.65346054
 H     33  32  31     2.038122643907   119.73727644   179.83713806
 H     34  20   1     2.068482237700   111.62443953   297.88717353
 H     34  20   1     2.069161615015   111.61527859    60.59230570
 H     34  20   1     2.057816489214   105.58307761   179.27387584
 H     35  19   3     2.059529425647   105.62446083   177.61042933
 H     35  19   3     2.068605489472   111.79974935   296.88478900
 H     35  19   3     2.067811075017   111.36934926    59.39867033
 H     36  23  13     2.067283017428   111.34555416   301.36254215
 H     36  23  13     2.067368815068   111.31834189    64.09593348
 H     36  23  13     2.057451383778   105.61376854   182.59475950
 H     37  25  24     1.821423365409   108.84991732   292.46811222
 H     38  17   8     1.832278235796   107.58942423    64.33867333
 H     39  18   9     1.822678541596   108.38921740   305.75454353
 H     41  31  30     1.830951638640   107.45907700     1.27290166
 H     42  40  30     2.068340925638   111.07192865    59.19172106
 H     42  40  30     2.057147457519   105.31659703   178.15670503
 H     42  40  30     2.066144359619   111.69202298   296.63733786

---------------------
BASIS SET INFORMATION
---------------------
There are 3 groups of distinct atoms

 Group   1 Type C   : 11s6p2d1f contracted to 5s3p2d1f pattern {62111/411/11/1}
 Group   2 Type O   : 11s6p2d1f contracted to 5s3p2d1f pattern {62111/411/11/1}
 Group   3 Type H   : 5s1p contracted to 3s1p pattern {311/1}

Atom   0C    basis set group =>   1
Atom   1C    basis set group =>   1
Atom   2C    basis set group =>   1
Atom   3C    basis set group =>   1
Atom   4C    basis set group =>   1
Atom   5C    basis set group =>   1
Atom   6C    basis set group =>   1
Atom   7C    basis set group =>   1
Atom   8C    basis set group =>   1
Atom   9C    basis set group =>   1
Atom  10C    basis set group =>   1
Atom  11C    basis set group =>   1
Atom  12C    basis set group =>   1
Atom  13C    basis set group =>   1
Atom  14C    basis set group =>   1
Atom  15C    basis set group =>   1
Atom  16C    basis set group =>   1
Atom  17C    basis set group =>   1
Atom  18O    basis set group =>   2
Atom  19O    basis set group =>   2
Atom  20O    basis set group =>   2
Atom  21O    basis set group =>   2
Atom  22O    basis set group =>   2
Atom  23C    basis set group =>   1
Atom  24C    basis set group =>   1
Atom  25C    basis set group =>   1
Atom  26C    basis set group =>   1
Atom  27O    basis set group =>   2
Atom  28C    basis set group =>   1
Atom  29C    basis set group =>   1
Atom  30C    basis set group =>   1
Atom  31C    basis set group =>   1
Atom  32C    basis set group =>   1
Atom  33C    basis set group =>   1
Atom  34C    basis set group =>   1
Atom  35C    basis set group =>   1
Atom  36O    basis set group =>   2
Atom  37O    basis set group =>   2
Atom  38O    basis set group =>   2
Atom  39O    basis set group =>   2
Atom  40O    basis set group =>   2
Atom  41C    basis set group =>   1
Atom  42H    basis set group =>   3
Atom  43H    basis set group =>   3
Atom  44H    basis set group =>   3
Atom  45H    basis set group =>   3
Atom  46H    basis set group =>   3
Atom  47H    basis set group =>   3
Atom  48H    basis set group =>   3
Atom  49H    basis set group =>   3
Atom  50H    basis set group =>   3
Atom  51H    basis set group =>   3
Atom  52H    basis set group =>   3
Atom  53H    basis set group =>   3
Atom  54H    basis set group =>   3
Atom  55H    basis set group =>   3
Atom  56H    basis set group =>   3
Atom  57H    basis set group =>   3
Atom  58H    basis set group =>   3
Atom  59H    basis set group =>   3
Atom  60H    basis set group =>   3
Atom  61H    basis set group =>   3
Atom  62H    basis set group =>   3
Atom  63H    basis set group =>   3
Atom  64H    basis set group =>   3
Atom  65H    basis set group =>   3
Atom  66H    basis set group =>   3
Atom  67H    basis set group =>   3
Atom  68H    basis set group =>   3
Atom  69H    basis set group =>   3
Atom  70H    basis set group =>   3
Atom  71H    basis set group =>   3
Atom  72H    basis set group =>   3
Atom  73H    basis set group =>   3
Atom  74H    basis set group =>   3
Atom  75H    basis set group =>   3
Atom  76H    basis set group =>   3
Atom  77H    basis set group =>   3
Atom  78H    basis set group =>   3
Atom  79H    basis set group =>   3
Atom  80H    basis set group =>   3
Atom  81H    basis set group =>   3
---------------------------------
AUXILIARY/J BASIS SET INFORMATION
---------------------------------
There are 3 groups of distinct atoms

 Group   1 Type C   : 12s5p4d2f1g contracted to 6s4p3d1f1g pattern {711111/2111/211/2/1}
 Group   2 Type O   : 12s5p4d2f1g contracted to 6s4p3d1f1g pattern {711111/2111/211/2/1}
 Group   3 Type H   : 5s2p1d contracted to 3s1p1d pattern {311/2/1}

Atom   0C    basis set group =>   1
Atom   1C    basis set group =>   1
Atom   2C    basis set group =>   1
Atom   3C    basis set group =>   1
Atom   4C    basis set group =>   1
Atom   5C    basis set group =>   1
Atom   6C    basis set group =>   1
Atom   7C    basis set group =>   1
Atom   8C    basis set group =>   1
Atom   9C    basis set group =>   1
Atom  10C    basis set group =>   1
Atom  11C    basis set group =>   1
Atom  12C    basis set group =>   1
Atom  13C    basis set group =>   1
Atom  14C    basis set group =>   1
Atom  15C    basis set group =>   1
Atom  16C    basis set group =>   1
Atom  17C    basis set group =>   1
Atom  18O    basis set group =>   2
Atom  19O    basis set group =>   2
Atom  20O    basis set group =>   2
Atom  21O    basis set group =>   2
Atom  22O    basis set group =>   2
Atom  23C    basis set group =>   1
Atom  24C    basis set group =>   1
Atom  25C    basis set group =>   1
Atom  26C    basis set group =>   1
Atom  27O    basis set group =>   2
Atom  28C    basis set group =>   1
Atom  29C    basis set group =>   1
Atom  30C    basis set group =>   1
Atom  31C    basis set group =>   1
Atom  32C    basis set group =>   1
Atom  33C    basis set group =>   1
Atom  34C    basis set group =>   1
Atom  35C    basis set group =>   1
Atom  36O    basis set group =>   2
Atom  37O    basis set group =>   2
Atom  38O    basis set group =>   2
Atom  39O    basis set group =>   2
Atom  40O    basis set group =>   2
Atom  41C    basis set group =>   1
Atom  42H    basis set group =>   3
Atom  43H    basis set group =>   3
Atom  44H    basis set group =>   3
Atom  45H    basis set group =>   3
Atom  46H    basis set group =>   3
Atom  47H    basis set group =>   3
Atom  48H    basis set group =>   3
Atom  49H    basis set group =>   3
Atom  50H    basis set group =>   3
Atom  51H    basis set group =>   3
Atom  52H    basis set group =>   3
Atom  53H    basis set group =>   3
Atom  54H    basis set group =>   3
Atom  55H    basis set group =>   3
Atom  56H    basis set group =>   3
Atom  57H    basis set group =>   3
Atom  58H    basis set group =>   3
Atom  59H    basis set group =>   3
Atom  60H    basis set group =>   3
Atom  61H    basis set group =>   3
Atom  62H    basis set group =>   3
Atom  63H    basis set group =>   3
Atom  64H    basis set group =>   3
Atom  65H    basis set group =>   3
Atom  66H    basis set group =>   3
Atom  67H    basis set group =>   3
Atom  68H    basis set group =>   3
Atom  69H    basis set group =>   3
Atom  70H    basis set group =>   3
Atom  71H    basis set group =>   3
Atom  72H    basis set group =>   3
Atom  73H    basis set group =>   3
Atom  74H    basis set group =>   3
Atom  75H    basis set group =>   3
Atom  76H    basis set group =>   3
Atom  77H    basis set group =>   3
Atom  78H    basis set group =>   3
Atom  79H    basis set group =>   3
Atom  80H    basis set group =>   3
Atom  81H    basis set group =>   3
--------------------------------------------------------------------------
WARNING: There is at least one non-excluded one OpenFabrics device found,
but there are no active ports detected (or Open MPI was unable to use
them).  This is most certainly not what you wanted.  Check your
cables, subnet manager configuration, etc.  The openib BTL will be
ignored for this job.

  Local host: c07b01n02
--------------------------------------------------------------------------
--------------------------------------------------------------------------
WARNING: There was an error initializing an OpenFabrics device.

  Local host:   c07b01n02
  Local device: mlx5_0
--------------------------------------------------------------------------


           ************************************************************
           *        Program running with 64 parallel MPI-processes    *
           *              working on a common directory               *
           ************************************************************
------------------------------------------------------------------------------
                             ORCA STARTUP CALCULATIONS
                           -- RI-GTO INTEGRALS CHOSEN --
------------------------------------------------------------------------------
------------------------------------------------------------------------------
                   ___                                                        
                  /   \      - P O W E R E D   B Y -                         
                 /     \                                                     
                 |  |  |   _    _      __       _____    __    __             
                 |  |  |  | |  | |    /  \     |  _  \  |  |  /  |          
                  \  \/   | |  | |   /    \    | | | |  |  | /  /          
                 / \  \   | |__| |  /  /\  \   | |_| |  |  |/  /          
                |  |  |   |  __  | /  /__\  \  |    /   |      \           
                |  |  |   | |  | | |   __   |  |    \   |  |\   \          
                \     /   | |  | | |  |  |  |  | |\  \  |  | \   \       
                 \___/    |_|  |_| |__|  |__|  |_| \__\ |__|  \__/        
                                                                              
                      - O R C A' S   B I G   F R I E N D -                    
                                      &                                       
                       - I N T E G R A L  F E E D E R -                       
                                                                              
 v1 FN, 2020, v2 2021, v3 2022-2024                                           
------------------------------------------------------------------------------


[c07b01n02:1894949] 5 more processes have sent help message help-mpi-btl-openib.txt / no active ports found
[c07b01n02:1894949] Set MCA parameter "orte_base_help_aggregate" to 0 to see all help / error messages
[c07b01n02:1894949] 57 more processes have sent help message help-mpi-btl-openib.txt / error in device init
----------------------
SHARK INTEGRAL PACKAGE
----------------------

Number of atoms                             ...     82
Number of basis functions                   ...   1542
Number of shells                            ...    622
Maximum angular momentum                    ...      3
Integral batch strategy                     ... SHARK/LIBINT Hybrid
RI-J (if used) integral strategy            ... SPLIT-RIJ (Revised 2003 algorithm where possible)
Printlevel                                  ...      1
Contraction scheme used                     ... SEGMENTED contraction
Prescreening option                         ... SCHWARTZ
   Thresh                                   ... 2.500e-11
   Tcut                                     ... 2.500e-12
   Tpresel                                  ... 2.500e-12 
Coulomb Range Separation                    ... NOT USED
Exchange Range Separation                   ... NOT USED
Multipole approximations                    ... NOT USED
Finite Nucleus Model                        ... NOT USED
CABS basis                                  ... NOT available
Auxiliary Coulomb fitting basis             ... AVAILABLE
   # of basis functions in Aux-J            ...   2498
   # of shells in Aux-J                     ...    830
   Maximum angular momentum in Aux-J        ...      4
Auxiliary J/K fitting basis                 ... NOT available
Auxiliary Correlation fitting basis         ... NOT available
Auxiliary 'external' fitting basis          ... NOT available

Checking pre-screening integrals            ... done (  0.0 sec) Dimension = 622
   => SHARK Basis and OBASIS are compatible. Storing Pre-screening
Shell pair information
Shell pair cut-off parameter TPreSel        ...   2.5e-12
Total number of shell pairs                 ...    193753
Shell pairs after pre-screening             ...    116387
Total number of primitive shell pairs       ...    584784
Primitive shell pairs kept                  ...    219675
          la=0 lb=0:  32409 shell pairs
          la=1 lb=0:  34703 shell pairs
          la=1 lb=1:   9412 shell pairs
          la=2 lb=0:  15776 shell pairs
          la=2 lb=1:   8676 shell pairs
          la=2 lb=2:   1999 shell pairs
          la=3 lb=0:   7200 shell pairs
          la=3 lb=1:   4021 shell pairs
          la=3 lb=2:   1767 shell pairs
          la=3 lb=3:    424 shell pairs

Checking whether 4 symmetric matrices of dimension 1542 fit in memory
:Max Core in MB      =   6000.00
 MB in use           =    139.50
 MB left             =   5860.50
 MB needed           =     36.31
 Data fit in memory  = YES
Calculating RI/J V-Matrix + Cholesky decomp.... done (  2.7 sec)
Calculating Nuclear repulsion               ... done (  0.0 sec) ENN=   5767.144197819370 Eh

Diagonalization of the overlap matrix:
Smallest eigenvalue                        ... 3.153e-06
Time for diagonalization                   ...    1.518 sec
Threshold for overlap eigenvalues          ... 1.000e-07
Number of eigenvalues below threshold      ... 0
Time for construction of square roots      ...    0.491 sec
Total time needed                          ...    2.116 sec

-------------------
DFT GRID GENERATION
-------------------

General Integration Accuracy     IntAcc      ... 4.388
Radial Grid Type                 RadialGrid  ... OptM3 with GC (2021)
Angular Grid (max. ang.)         AngularGrid ... 4 (Lebedev-302)
Angular grid pruning method      GridPruning ... 4 (adaptive)
Weight generation scheme         WeightScheme... mBecke (2022)
Basis function cutoff            BFCut       ... 1.0000e-11
Integration weight cutoff        WCut        ... 1.0000e-14
Partially contracted basis set               ... off
Rotationally invariant grid construction     ... off
Angular grids for H and He will be reduced by one unit

Total number of grid points                  ...   373488
Total number of batches                      ...     5878
Average number of points per batch           ...       63
Average number of grid points per atom       ...     4555

--------------------
COSX GRID GENERATION
--------------------

GRIDX 1
-------
General Integration Accuracy     IntAcc      ... 3.816
Radial Grid Type                 RadialGrid  ... OptM3 with GC (2021)
Angular Grid (max. ang.)         AngularGrid ... 1 (Lebedev-50)
Angular grid pruning method      GridPruning ... 4 (adaptive)
Weight generation scheme         WeightScheme... mBecke (2022)
Basis function cutoff            BFCut       ... 1.0000e-11
Integration weight cutoff        WCut        ... 1.0000e-14
Partially contracted basis set               ... on
Rotationally invariant grid construction     ... off
Angular grids for H and He will be reduced by one unit

Total number of grid points                  ...    47277
Total number of batches                      ...      414
Average number of points per batch           ...      114
Average number of grid points per atom       ...      577
UseSFitting                                  ... on

GRIDX 2
-------
General Integration Accuracy     IntAcc      ... 4.020
Radial Grid Type                 RadialGrid  ... OptM3 with GC (2021)
Angular Grid (max. ang.)         AngularGrid ... 2 (Lebedev-110)
Angular grid pruning method      GridPruning ... 4 (adaptive)
Weight generation scheme         WeightScheme... mBecke (2022)
Basis function cutoff            BFCut       ... 1.0000e-11
Integration weight cutoff        WCut        ... 1.0000e-14
Partially contracted basis set               ... on
Rotationally invariant grid construction     ... off
[...]
freq.     643.47  E(vib)   ...       0.09 
freq.     653.91  E(vib)   ...       0.08 
freq.     658.48  E(vib)   ...       0.08 
freq.     666.03  E(vib)   ...       0.08 
freq.     688.20  E(vib)   ...       0.07 
freq.     733.11  E(vib)   ...       0.06 
freq.     744.64  E(vib)   ...       0.06 
freq.     746.10  E(vib)   ...       0.06 
freq.     753.31  E(vib)   ...       0.06 
freq.     771.70  E(vib)   ...       0.05 
freq.     783.57  E(vib)   ...       0.05 
freq.     811.97  E(vib)   ...       0.05 
freq.     813.14  E(vib)   ...       0.05 
freq.     830.79  E(vib)   ...       0.04 
freq.     834.79  E(vib)   ...       0.04 
freq.     843.38  E(vib)   ...       0.04 
freq.     849.20  E(vib)   ...       0.04 
freq.     855.47  E(vib)   ...       0.04 
freq.     873.28  E(vib)   ...       0.04 
freq.     874.17  E(vib)   ...       0.04 
freq.     879.25  E(vib)   ...       0.04 
freq.     909.44  E(vib)   ...       0.03 
freq.     914.28  E(vib)   ...       0.03 
freq.     928.17  E(vib)   ...       0.03 
freq.     931.94  E(vib)   ...       0.03 
freq.     942.99  E(vib)   ...       0.03 
freq.     949.22  E(vib)   ...       0.03 
freq.     957.69  E(vib)   ...       0.03 
freq.     967.63  E(vib)   ...       0.03 
freq.     970.70  E(vib)   ...       0.03 
freq.     983.02  E(vib)   ...       0.02 
freq.    1002.43  E(vib)   ...       0.02 
freq.    1005.55  E(vib)   ...       0.02 
freq.    1021.08  E(vib)   ...       0.02 
freq.    1027.93  E(vib)   ...       0.02 
freq.    1034.24  E(vib)   ...       0.02 
freq.    1048.06  E(vib)   ...       0.02 
freq.    1049.19  E(vib)   ...       0.02 
freq.    1057.02  E(vib)   ...       0.02 
freq.    1061.11  E(vib)   ...       0.02 
freq.    1083.31  E(vib)   ...       0.02 
freq.    1086.44  E(vib)   ...       0.02 
freq.    1092.77  E(vib)   ...       0.02 
freq.    1099.58  E(vib)   ...       0.02 
freq.    1136.55  E(vib)   ...       0.01 
freq.    1140.84  E(vib)   ...       0.01 
freq.    1144.52  E(vib)   ...       0.01 
freq.    1148.63  E(vib)   ...       0.01 
freq.    1169.91  E(vib)   ...       0.01 
freq.    1170.27  E(vib)   ...       0.01 
freq.    1171.31  E(vib)   ...       0.01 
freq.    1172.26  E(vib)   ...       0.01 
freq.    1173.49  E(vib)   ...       0.01 
freq.    1176.53  E(vib)   ...       0.01 
freq.    1179.62  E(vib)   ...       0.01 
freq.    1181.44  E(vib)   ...       0.01 
freq.    1196.00  E(vib)   ...       0.01 
freq.    1202.13  E(vib)   ...       0.01 
freq.    1206.64  E(vib)   ...       0.01 
freq.    1206.83  E(vib)   ...       0.01 
freq.    1212.67  E(vib)   ...       0.01 
freq.    1220.88  E(vib)   ...       0.01 
freq.    1225.12  E(vib)   ...       0.01 
freq.    1228.33  E(vib)   ...       0.01 
freq.    1230.68  E(vib)   ...       0.01 
freq.    1242.52  E(vib)   ...       0.01 
freq.    1243.80  E(vib)   ...       0.01 
freq.    1251.64  E(vib)   ...       0.01 
freq.    1252.99  E(vib)   ...       0.01 
freq.    1261.49  E(vib)   ...       0.01 
freq.    1273.80  E(vib)   ...       0.01 
freq.    1281.05  E(vib)   ...       0.01 
freq.    1288.52  E(vib)   ...       0.01 
freq.    1296.70  E(vib)   ...       0.01 
freq.    1309.56  E(vib)   ...       0.01 
freq.    1312.76  E(vib)   ...       0.01 
freq.    1320.44  E(vib)   ...       0.01 
freq.    1329.52  E(vib)   ...       0.01 
freq.    1337.96  E(vib)   ...       0.01 
freq.    1343.69  E(vib)   ...       0.01 
freq.    1348.11  E(vib)   ...       0.01 
freq.    1358.08  E(vib)   ...       0.01 
freq.    1363.89  E(vib)   ...       0.01 
freq.    1366.69  E(vib)   ...       0.01 
freq.    1377.15  E(vib)   ...       0.01 
freq.    1392.32  E(vib)   ...       0.00 
freq.    1396.49  E(vib)   ...       0.00 
freq.    1401.56  E(vib)   ...       0.00 
freq.    1402.19  E(vib)   ...       0.00 
freq.    1406.11  E(vib)   ...       0.00 
freq.    1408.11  E(vib)   ...       0.00 
freq.    1415.60  E(vib)   ...       0.00 
freq.    1422.07  E(vib)   ...       0.00 
freq.    1425.30  E(vib)   ...       0.00 
freq.    1430.14  E(vib)   ...       0.00 
freq.    1451.94  E(vib)   ...       0.00 
freq.    1459.60  E(vib)   ...       0.00 
freq.    1466.90  E(vib)   ...       0.00 
freq.    1477.85  E(vib)   ...       0.00 
freq.    1479.05  E(vib)   ...       0.00 
freq.    1479.20  E(vib)   ...       0.00 
freq.    1479.61  E(vib)   ...       0.00 
freq.    1480.81  E(vib)   ...       0.00 
freq.    1482.31  E(vib)   ...       0.00 
freq.    1482.84  E(vib)   ...       0.00 
freq.    1484.34  E(vib)   ...       0.00 
freq.    1484.60  E(vib)   ...       0.00 
freq.    1487.48  E(vib)   ...       0.00 
freq.    1490.33  E(vib)   ...       0.00 
freq.    1491.59  E(vib)   ...       0.00 
freq.    1491.73  E(vib)   ...       0.00 
freq.    1495.03  E(vib)   ...       0.00 
freq.    1498.83  E(vib)   ...       0.00 
freq.    1501.92  E(vib)   ...       0.00 
freq.    1507.87  E(vib)   ...       0.00 
freq.    1535.48  E(vib)   ...       0.00 
freq.    1542.69  E(vib)   ...       0.00 
freq.    1549.25  E(vib)   ...       0.00 
freq.    1627.25  E(vib)   ...       0.00 
freq.    1633.76  E(vib)   ...       0.00 
freq.    1642.79  E(vib)   ...       0.00 
freq.    1647.26  E(vib)   ...       0.00 
freq.    1648.99  E(vib)   ...       0.00 
freq.    1652.49  E(vib)   ...       0.00 
freq.    2994.53  E(vib)   ...       0.00 
freq.    3011.03  E(vib)   ...       0.00 
freq.    3011.38  E(vib)   ...       0.00 
freq.    3017.02  E(vib)   ...       0.00 
freq.    3020.82  E(vib)   ...       0.00 
freq.    3022.88  E(vib)   ...       0.00 
freq.    3023.12  E(vib)   ...       0.00 
freq.    3025.26  E(vib)   ...       0.00 
freq.    3027.35  E(vib)   ...       0.00 
freq.    3027.36  E(vib)   ...       0.00 
freq.    3036.17  E(vib)   ...       0.00 
freq.    3053.54  E(vib)   ...       0.00 
freq.    3058.38  E(vib)   ...       0.00 
freq.    3073.02  E(vib)   ...       0.00 
freq.    3077.33  E(vib)   ...       0.00 
freq.    3077.57  E(vib)   ...       0.00 
freq.    3086.09  E(vib)   ...       0.00 
freq.    3086.87  E(vib)   ...       0.00 
freq.    3091.37  E(vib)   ...       0.00 
freq.    3096.02  E(vib)   ...       0.00 
freq.    3102.83  E(vib)   ...       0.00 
freq.    3125.15  E(vib)   ...       0.00 
freq.    3135.09  E(vib)   ...       0.00 
freq.    3138.39  E(vib)   ...       0.00 
freq.    3142.97  E(vib)   ...       0.00 
freq.    3163.42  E(vib)   ...       0.00 
freq.    3170.87  E(vib)   ...       0.00 
freq.    3181.10  E(vib)   ...       0.00 
freq.    3187.91  E(vib)   ...       0.00 
freq.    3195.94  E(vib)   ...       0.00 
freq.    3204.19  E(vib)   ...       0.00 
freq.    3205.80  E(vib)   ...       0.00 
freq.    3209.87  E(vib)   ...       0.00 
freq.    3211.38  E(vib)   ...       0.00 
freq.    3643.68  E(vib)   ...       0.00 
freq.    3708.43  E(vib)   ...       0.00 
freq.    3723.48  E(vib)   ...       0.00 
freq.    3758.94  E(vib)   ...       0.00 
freq.    3766.52  E(vib)   ...       0.00 
freq.    3772.15  E(vib)   ...       0.00 

------------
INNER ENERGY
------------

The inner energy is: U= E(el) + E(ZPE) + E(vib) + E(rot) + E(trans)
    E(el)   - is the total energy from the electronic structure calculation
              = E(kin-el) + E(nuc-el) + E(el-el) + E(nuc-nuc)
    E(ZPE)  - the the zero temperature vibrational energy from the frequency calculation
    E(vib)  - the the finite temperature correction to E(ZPE) due to population
              of excited vibrational states
    E(rot)  - is the rotational thermal energy
    E(trans)- is the translational thermal energy

Summary of contributions to the inner energy U:
Electronic energy                ...  -2032.63348877 Eh
Zero point energy                ...      0.67859610 Eh     425.82 kcal/mol
Thermal vibrational correction   ...      0.04067996 Eh      25.53 kcal/mol
Thermal rotational correction    ...      0.00141627 Eh       0.89 kcal/mol
Thermal translational correction ...      0.00141627 Eh       0.89 kcal/mol
-----------------------------------------------------------------------
Total thermal energy                  -2031.91138017 Eh


Summary of corrections to the electronic energy:
(perhaps to be used in another calculation)
Total thermal correction                  0.04351250 Eh      27.30 kcal/mol
Non-thermal (ZPE) correction              0.67859610 Eh     425.82 kcal/mol
-----------------------------------------------------------------------
Total correction                          0.72210861 Eh     453.13 kcal/mol


--------
ENTHALPY
--------

The enthalpy is H = U + kB*T
                kB is Boltzmann's constant
Total thermal energy              ...  -2031.91138017 Eh 
Thermal Enthalpy correction       ...      0.00094421 Eh       0.59 kcal/mol
-----------------------------------------------------------------------
Total Enthalpy                    ...  -2031.91043596 Eh


Note: Only C1 symmetry has been detected, increase convergence thresholds 
      if your molecule has a higher symmetry. Symmetry factor of 1.0 is   
      used for the rotational entropy correction. 
 

Note: Rotational entropy computed according to Herzberg 
Infrared and Raman Spectra, Chapter V,1, Van Nostrand Reinhold, 1945 
Point Group:  C1, Symmetry Number:   1  
Rotational constants in cm-1:     0.004054     0.002213     0.001817 

Vibrational entropy computed according to the QRRHO of S. Grimme
Chem.Eur.J. 2012 18 9955 using a reference frequency of 100.0 cm-1


-------
ENTROPY
-------

The entropy contributions are T*S = T*(S(el)+S(vib)+S(rot)+S(trans))
     S(el)   - electronic entropy
     S(vib)  - vibrational entropy
     S(rot)  - rotational entropy
     S(trans)- translational entropy
The entropies will be listed as multiplied by the temperature to get
units of energy

Electronic entropy                ...      0.00000000 Eh      0.00 kcal/mol
Vibrational entropy               ...      0.07283975 Eh     45.71 kcal/mol
Rotational entropy                ...      0.01797635 Eh     11.28 kcal/mol
Translational entropy             ...      0.02138181 Eh     13.42 kcal/mol
-----------------------------------------------------------------------
Final entropy term                ...      0.11219791 Eh     70.41 kcal/mol

In case the symmetry of your molecule has not been determined correctly
or in case you have a reason to use a different symmetry number we print 
out the resulting rotational entropy values for sn=1,12:

 non-linear molecules -----------------------------------
|  sn= 1 | S(rot)=       0.01797635 Eh     11.28 kcal/mol|
|  sn= 2 | S(rot)=       0.01732189 Eh     10.87 kcal/mol|
|  sn= 3 | S(rot)=       0.01693906 Eh     10.63 kcal/mol|
|  sn= 4 | S(rot)=       0.01666743 Eh     10.46 kcal/mol|
|  sn= 5 | S(rot)=       0.01645675 Eh     10.33 kcal/mol|
|  sn= 6 | S(rot)=       0.01628460 Eh     10.22 kcal/mol|
|  sn= 7 | S(rot)=       0.01613906 Eh     10.13 kcal/mol|
|  sn= 8 | S(rot)=       0.01601298 Eh     10.05 kcal/mol|
|  sn= 9 | S(rot)=       0.01590177 Eh      9.98 kcal/mol|
|  sn=10 | S(rot)=       0.01580229 Eh      9.92 kcal/mol|
|  sn=11 | S(rot)=       0.01571230 Eh      9.86 kcal/mol|
|  sn=12 | S(rot)=       0.01563014 Eh      9.81 kcal/mol|
 linear molecules ---------------------------------------
|  Dinfh | S(rot)=       0.01128420 Eh      7.08 kcal/mol|
|  Cinfv | S(rot)=       0.01193866 Eh      7.49 kcal/mol|
 --------------------------------------------------------


-------------------
GIBBS FREE ENERGY
-------------------

The Gibbs free energy is G = H - T*S

Total enthalpy                    ...  -2031.91043596 Eh 
Total entropy correction          ...     -0.11219791 Eh    -70.41 kcal/mol
-----------------------------------------------------------------------
Final Gibbs free energy         ...  -2032.02263387 Eh

For completeness - the Gibbs free energy minus the electronic energy
G-E(el)                           ...      0.61085490 Eh    383.32 kcal/mol


Maximum memory used throughout the entire PROP-calculation: 1821.1 MB
--------------------------------------------------------------------------
WARNING: There was an error initializing an OpenFabrics device.

  Local host:   c07b01n02
  Local device: mlx5_0
--------------------------------------------------------------------------
--------------------------------------------------------------------------
WARNING: There is at least one non-excluded one OpenFabrics device found,
but there are no active ports detected (or Open MPI was unable to use
them).  This is most certainly not what you wanted.  Check your
cables, subnet manager configuration, etc.  The openib BTL will be
ignored for this job.

  Local host: c07b01n02
--------------------------------------------------------------------------
[c07b01n02:1971250] 59 more processes have sent help message help-mpi-btl-openib.txt / error in device init
[c07b01n02:1971250] Set MCA parameter "orte_base_help_aggregate" to 0 to see all help / error messages
[c07b01n02:1971250] 3 more processes have sent help message help-mpi-btl-openib.txt / no active ports found

--------------------------------
SUGGESTED CITATIONS FOR THIS RUN
--------------------------------

Below you find a list of papers that are relevant to this ORCA run
We neither can nor want to force you to cite these papers, but we appreciate if you do
You receive ORCA, which is the product of decades of hard work by many enthusiastic individuals, for free
The only thing we kindly ask in return is that you cite our papers,
We deeply appreciate it, if you show your appreciation for ORCA by not just citing the generic ORCA reference.

Please note that relegating all ORCA citations to the supporting information does *not* help us.
SI sections are not indexed - citations you put there will not count into any citation statistics
But we need these citations in order to attract the funding resources that allow us to do what we are doing

Therefore, if you are a happy ORCA user, please consider citing a few of the papers listed below in the main body of your paper

In addition to the list printed below, the program has created the file opt-conf-14.bibtex that contains the list in bibtex format
You can import this file easily into all common literature databanks and citation aid programs


List of essential papers. We consider these as the minimum necessary citations

  1. Neese, F.
     Software update: the ORCA program system, version 6.0
     WIRES Comput. Molec. Sci. 2025 15(1), e70019
     doi.org/10.1002/wcms.7019

List of papers to cite with high priority. The work reported in these papers was absolutely
necessary for this run to complete.
Our perspective: the developers of density functionals and basis sets usually get cited in chemistry papers
Good! But without the algorithms to do something with them, the functionals or basis sets would not do anything.
Hence, in our opinion, the algorithm design and method developments papers are equally worthy of getting cited

  1. Neese, F.
     An improvement of the resolution of the identity approximation for the formation of the Coulomb matrix
     J. Comp. Chem. 2003 24(14), 1740-1747
     doi.org/10.1002/jcc.10318
  2. Neese, F.; Wennmohs, F.; Hansen, A.; Becker, U.
     Efficient, approximate and parallel Hartree-Fock and hybrid DFT calculations. A 'chain-of-spheres' algorithm for the Hartree-Fock exchange
     Chem. Phys. 2009 356(1-3), 98-109
     doi.org/10.1016/j.chemphys.2008.10.036
  3. Bykov, D.; Petrenko, T.; Izsak, R.; Kossmann, S.; Becker, U.; Valeev, E.; Neese, F.
     Efficient implementation of the analytic second derivatives of Hartree-Fock and hybrid DFT energies: a detailed analysis of different approximations
     Molec. Phys. 2015 113 , 1961-1977
     doi.org/10.1080/00268976.2015.1025114
  4. Caldeweyher, E.; Bannwarth, C.; Grimme, S.
     Extension of the D3 dispersion coefficient model
     J. Chem. Phys. 2017 147 , 034112
     doi.org/10.1063/1.4993215
  5. Caldeweyher, E.; Ehlert, S.; Hansen, A.; Neugebauer, H.; Spicher, S.; Bannwarth, C.; Grimme, S.
     A generally applicable atomic-charge dependent London dispersion correction
     J. Chem. Phys. 2019 150 , 154122
     doi.org/10.1063/1.5090222
  6. Garcia-Rates, M.; Neese, F.
     Efficient implementation of the analytical second derivatives of hartree-fock and hybrid DFT energies within the framework of the conductor-like polarizable continuum model
     J. Comput. Chem. 2019 40 , 1816-1828
     doi.org/10.1002/jcc.25833
  7. Caldeweyher, E.; Mewes, J.; Ehlert, S.; Grimme, S.
     Extension and evaluation of the D4 London-dispersion model for periodic systems
     Phys. Chem. Chem. Phys. 2020 22(16), 8499-8512
     doi.org/10.1039/D0CP00502A
  8. Garcia-Rates, M.; Neese, F.
     Effect of the Solute Cavity on the Solvation Energy and its Derivatives within the Framework of the Gaussian Charge Scheme
     J. Comput. Chem. 2020 41 , 922-939
     doi.org/10.1002/jcc.26139
  9. Helmich-Paris, B.; de Souza, B.; Neese, F.; Izsák, R.
     An improved chain of spheres for exchange algorithm
     J. Chem. Phys. 2021 155(10), 104109
     doi.org/10.1063/5.0058766
 10. Neese, F.
     The SHARK Integral Generation and Digestion System
     J. Comp. Chem. 2022 44(3), 381
     doi.org/10.1002/jcc.26942
 11. Wittmann, L.; Gordiy, I.; Friede, M.; Helmich-Paris, B.; Grimme, S.; Hansen, A.; Bursch, M.
     Extension of the D3 and D4 London Dispersion Corrections to the full Actinides Series
     Phys. Chem. Chem. Phys. 2024 26(32), 21379-21394
     doi.org/10.1039/D4CP01514B

List of suggested additional citations. These are papers that are important in the 'surrounding' of 
of this run, or papers that preceded the highly important papers. If you like your results we are grateful for a citation.

  1. Izsak, R.; Neese, F.
     An overlap fitted chain of spheres exchange method
     J. Chem. Phys. 2011 135 , 144105
     doi.org/10.1063/1.3646921
  2. Izsak, R.; Hansen, A.; Neese, F.
     The resolution of identity and chain of spheres approximations for the LPNO-CCSD singles Fock term
     Molec. Phys. 2012 110 , 2413-2417
     doi.org/10.1080/00268976.2012.687466
  3. Neese, F.
     The ORCA program system
     WIRES Comput. Molec. Sci. 2012 2(1), 73-78
     doi.org/10.1002/wcms.81
  4. Izsak, R.; Neese, F.; Klopper, W.
     Robust fitting techniques in the chain of spheres approximation to the Fock exchange: The role of the complementary space
     J. Chem. Phys. 2013 139 , 
     doi.org/10.1063/1.4819264
  5. Neese, F.
     Software update: the ORCA program system, version 4.0
     WIRES Comput. Molec. Sci. 2018 8(1), 1-6
     doi.org/10.1002/wcms.1327
  6. Neese, F.; Wennmohs, F.; Becker, U.; Riplinger, C.
     The ORCA quantum chemistry program package
     J. Chem. Phys. 2020 152(22), 224108
     doi.org/10.1063/5.0004608
  7. Neese, F.
     Software update: The ORCA program system—Version 5.0
     WIRES Comput. Molec. Sci. 2022 12(1), e1606
     doi.org/10.1002/wcms.1606

List of optional additional citations

  1. Neese, F.
     Approximate second-order SCF convergence for spin unrestricted wavefunctions
     Chem. Phys. Lett. 2000 325(1-3), 93-98
     doi.org/10.1016/s0009-2614(00)00662-x

Timings for individual modules:

Sum of individual times          ...     6856.815 sec (= 114.280 min)
Startup calculation              ...      317.768 sec (=   5.296 min)   4.6 %
SCF iterations                   ...     2063.036 sec (=  34.384 min)  30.1 %
Property integrals               ...     1049.035 sec (=  17.484 min)  15.3 %
SCF Response                     ...     2253.008 sec (=  37.550 min)  32.9 %
Property calculations            ...      503.162 sec (=   8.386 min)   7.3 %
SCF Gradient evaluation          ...      667.868 sec (=  11.131 min)   9.7 %
Geometry relaxation              ...        2.938 sec (=   0.049 min)   0.0 %
                             ****ORCA TERMINATED NORMALLY****
TOTAL RUN TIME: 0 days 1 hours 56 minutes 41 seconds 237 msec
