
                                 *****************
                                 * O   R   C   A *
                                 *****************

                                            #,                                       
                                            ###                                      
                                            ####                                     
                                            #####                                    
                                            ######                                   
                                           ########,                                 
                                     ,,################,,,,,                         
                               ,,#################################,,                 
                          ,,##########################################,,             
                       ,#########################################, ''#####,          
                    ,#############################################,,   '####,        
                  ,##################################################,,,,####,       
                ,###########''''           ''''###############################       
              ,#####''   ,,,,##########,,,,          '''####'''          '####       
            ,##' ,,,,###########################,,,                        '##       
           ' ,,###''''                  '''############,,,                           
         ,,##''                                '''############,,,,        ,,,,,,###''
      ,#''                                            '''#######################'''  
     '                                                          ''''####''''         
             ,#######,   #######,   ,#######,      ##                                
            ,#'     '#,  ##    ##  ,#'     '#,    #''#        ,####,    ,#,          
            ##       ##  ##   ,#'  ##            #'  '#       #'       ,# #          
            ##       ##  #######   ##           ,######,      #####,      #          
            '#,     ,#'  ##    ##  '#,     ,#' ,#      #,     #,   #      #          
             '#######'   ##     ##  '#######'  #'      '#     '####' #    #          



                #########################################################
                #                        -***-                          #
                #          Department of theory and spectroscopy        #
                #                                                       #
                #                      Frank Neese                      #
                #                                                       #
                #     Directorship, Architecture, Infrastructure        #
                #                    SHARK, DRIVERS                     #
                #        Core code/Algorithms in most modules           #
                #                                                       #
                #        Max Planck Institute fuer Kohlenforschung      #
                #                Kaiser Wilhelm Platz 1                 #
                #                 D-45470 Muelheim/Ruhr                 #
                #                      Germany                          #
                #                                                       #
                #                  All rights reserved                  #
                #                        -***-                          #
                #########################################################


                         Program Version 6.1.0-f.0  -   RELEASE   -


 With contributions from (in alphabetic order):
[Max-Planck-Institut fuer Kohlenforschung]                               
  Daniel Aravena         : Magnetic Suceptibility                        
  Michael Atanasov       : Ab Initio Ligand Field Theory (pilot matlab implementation)
  Alexander A. Auer      : GIAO ZORA, VPT2 properties, NMR spectrum      
  Ute Becker             : All parallelization in ORCA, NUMFREQ, NUMCALC 
  Giovanni Bistoni       : ED, misc. LED, open-shell LED, HFLD           
  Dmytro Bykov           : pre 5.0 version of the SCF Hessian            
  Marcos Casanova-Páez   : Triplet and SCS-CIS(D). UHF-(DLPNO)-IP/EA/STEOM-CCSD. UHF-CVS-IP/STEOM-CCSD   
  Vijay G. Chilkuri      : MRCI spin determinant printing, contributions to CSF-ICE 
  Pauline Colinet        : FMM embedding                                 
  Dipayan Datta          : RHF DLPNO-CCSD density                        
  Achintya Kumar Dutta   : EOM-CC, STEOM-CC                              
  Nicolas Foglia         : Exact transition moments, OPA infrastructure, MCD improvements    
  Dmitry Ganyushin       : Spin-Orbit,Spin-Spin,Magnetic field MRCI      
  Miquel Garcia-Rates    : C-PCM and meta-GGA Hessian, CCSD/C-PCM, Gaussian charge scheme 
  Tiago L. C. Gouveia    : GS-ROHF, GS-ROCIS                             
  Yang Guo               : DLPNO-NEVPT2, F12-NEVPT2, CIM, IAO-localization        
  Andreas Hansen         : Spin unrestricted coupled pair/coupled cluster methods 
  Ingolf Harden          : AUTO-CI MPn and infrastructure                
  Benjamin Helmich-Paris : MC-RPA, TRAH-(SCF,CASSCF), AVAS, COSX integrals, SCF dyn. polar., MC-PDFT, srDFT 
  Lee Huntington         : MR-EOM, pCC                                   
  Robert Izsak           : Overlap fitted RIJCOSX, COSX-SCS-MP3, EOM     
  Riya Kayal             : Wick's Theorem for AUTO-CI, AUTO-CI UHF-CCSDT 
  Emily Kempfer          : AUTO-CI RHF CISDT and CCSDT, approximate NEVPT4
  Christian Kollmar      : KDIIS, OOCD, Brueckner-CCSD(T), CCSD density, CASPT2, CASPT2-K, improved NEVPT2 
  Axel Koslowski         : Symmetry handling                             
  Simone Kossmann        : meta-GGA functionals, TD-DFT gradient, OOMP2, (MP2 Hessian; deprecated post 5.0) 
  Lucas Lang             : DCDCAS, Hyperfine gauge corrections, ICE-SOC+SSC
  Marvin Lechner         : AUTO-CI (C++ implementation), FIC-MRCC        
  Spencer Leger          : CASSCF response                               
  Dagmar Lenk            : GEPOL surface, SMD, ORCA-2-JSON               
  Dimitrios Liakos       : Extrapolation schemes; Compound Job, Property file
  Dimitrios Manganas     : Further ROCIS development; embedding schemes. LFT, Crystal Embedding 
  Dimitrios Pantazis     : SARC Basis sets                               
  Anastasios Papadopoulos: AUTO-CI, single reference methods and gradients 
  Taras Petrenko         : pre 6.0 DFT Hessian and TD-DFT gradient,  ECA, NRVS 
  Petra Pikulova         : Analytic Raman intensities                    
  Peter Pinski           : DLPNO-MP2, DLPNO-MP2 Gradient                 
  Shashank Vittal Rao    : ES-AILFT, MagRelax                            
  Christoph Reimann      : Effective Core Potentials                     
  Marius Retegan         : Local ZFS, SOC                                
  Christoph Riplinger    : Optimizer, TS searches, QM/MM, DLPNO-CCSD(T), (RO)-DLPNO pert. Triples 
  Michael Roemelt        : Original ROCIS implementation, recursive CI coupling coefficients
  Masaaki Saitow         : Open-shell DLPNO-CCSD energy and density      
  Barbara Sandhoefer     : DKH picture change effects                    
  Yorick L. A. Schmerwitz: GMF and freeze-and-release deltaSCF, NEB S-IDPP initial path                    
  Kantharuban Sivalingam : CASSCF convergence/infrastructure, NEVPT2, NEVPT3, NEVPT4(SD), FIC-MRCI and CEPA variants
  Bernardo de Souza      : ESD, SOC TD-DFT                               
  Georgi L. Stoychev     : AutoAux, RI-MP2 NMR, DLPNO-MP2 response, X2C  
  Van Anh Tran           : RI-MP2 g-tensors                              
  Willem Van den Heuvel  : Paramagnetic NMR                              
  Zikuan Wang            : NOTCH, Electric field optimization            
  Frank Wennmohs         : Technical directorship and infrastructure     
  Hang Xu                : AUTO-CI-Response properties                   
                                                                         
[FACCTs GmbH]                                                            
  Markus Bursch, Nicolas Foglia, Miquel Garcia-Rates, Ingolf Harden, Hagen Neugebauer, Anastasios Papadopoulos, 
  Christoph Riplinger, Bernardo de Souza, Georgi L. Stoychev                                                    
                                                                 
  APM, various basis sets, CI-OPT, improved COSX, DLPNO-Multilevel,           
  DOCKER, DRACO, updates on ESD, Fragmentator, GOAT, IRC, LR-CPCM, L-BFGS, MBIS, meta-GGA TD-DFT gradient, ML-optimized integration grids, 
  MM, NACMEs, nearIR, NEB, NEB-TS, NL-DFT gradient (VV10), 2- and 3-layer-ONIOM, interface openCOSMO-RS, QMMM,   
  Crystal-QMMM, RESP, rigid body optimization, SF, symmetry and pop. for TD-DFT, various functionals, SOLVATOR                                   
                                                                         
[Other institutions]                                                     
  V. Asgeirsson          : NEB                                           
  Christoph Bannwarth    : sTDA-DFT, sTD-DFT, PBEh-3c, B97-3c, D3        
  Giovanni Bistoni       : ETS/NOCV, ADLD/ADEX, COVALED                  
  Martin Brehm           : Molecular dynamics                            
  Ronald Cardenas        : ETS/NOCV                                      
  Martina Colucci        : COVALED                                       
  Sebastian Ehlert       : rSCAN, r2SCAN, r2SCAN-3c, D4, dhf basis sets  
  Marvin Friede          : D4 for Fr, Ra, Ac-Lr                          
  Lars Goerigk           : TD-DFT with DH, B97 family of functionals     
  Stefan Grimme          : VdW corrections, initial TS optimization, DFT functionals, gCP, sTDA/sTD-DF 
  Waldemar Hujo          : DFT-NL                                        
  H. Jonsson             : NEB                                           
  Holger Kruse           : gCP                                           
  Marcel Mueller         : wB97X-3c, vDZP basis set                      
  Hagen Neugebauer       : wr2SCAN, Native XTB                           
  Gianluca Regni         : ADLD/ADEX                                     
  Tobias Risthaus        : pre 6.0 range-separated hybrid DFT and stability analysis
  Lukas Wittmann         : regularized MP2, r2SCAN double-hybrids, wr2SCAN        
                                                                         
We gratefully acknowledge several colleagues who have allowed us to      
interface, adapt or use parts of their codes:                            
  Ed Valeev, F. Pavosevic, A. Kumar             : LibInt (2-el integral package), F12 methods 
  Garnet Chan, S. Sharma, J. Yang, R. Olivares  : DMRG                   
  Ulf Ekstrom                                   : XCFun DFT Library      
  Mihaly Kallay                                 : mrcc  (arbitrary order and MRCC methods)
  Frank Weinhold                                : gennbo (NPA and NBO analysis)           
  Simon Mueller                                 : openCOSMO-RS                            
  Christopher J. Cramer and Donald G. Truhlar   : smd solvation model                     
  S Lehtola, MJT Oliveira, MAL Marques          : LibXC Library                           
  Liviu Ungur et al                             : ANISO software                          


 Your calculation uses the libint2 library for the computation of 2-el integrals
 For citations please refer to: http://libint.valeyev.net

 Your ORCA version has been built with support for libXC version: 7.0.0
 For citations please refer to: https://libxc.gitlab.io

 This ORCA versions uses:
   CBLAS   interface :  Fast vector & matrix operations
   LAPACKE interface :  Fast linear algebra routines
   SCALAPACK package :  Parallel linear algebra routines
   Shared memory     :  Shared parallel matrices
   BLAS/LAPACK       :  OpenBLAS 0.3.29  USE64BITINT DYNAMIC_ARCH NO_AFFINITY Cooperlake SINGLE_THREADED
        Core in use  :  Cooperlake
   Copyright (c) 2011-2014, The OpenBLAS Project


  ***********************************
  * Starting time: Sat Feb 28 01:42:55 2026
  * Host name:     c01b01n07
  * Process ID:    1835281
  * Working dir.:  /lustre1/jiangy/jiangy_liuxy/NMR/B9D7C2-SSRS
  ***********************************

NOTE: MaxCore=6000 MB was set to SCF,MP2,MDCI,CIPSI,MRCI,RASCI and CIS
      => If you want to overwrite this, your respective input block should be placed after the MaxCore statement


***************************************
The coordinates will be read from file: conf-10.xyz
***************************************


Your calculation utilizes the atom-pairwise dispersion correction
based on EEQ partial charges (D4)


Warning: RI is on but no J-basis has been assigned. Assigning Def2/J (nothing to worry about!)
================================================================================

----- Orbital basis set information -----
Your calculation utilizes the basis: def2-TZVP
   F. Weigend and R. Ahlrichs, Phys. Chem. Chem. Phys. 7, 3297 (2005).

----- AuxJ basis set information -----
Your calculation utilizes the auxiliary basis: def2/J
   H-Rn: F. Weigend, Phys. Chem. Chem. Phys. 8, 1057 (2006).
   Fr-Lr: K. Eichkorn, F. Weigend, O. Treutler, R. Ahlrichs; Theor. Chem. Acc. 97, 119 (1997).

================================================================================
                                        WARNINGS
                       Please study these warnings very carefully!
================================================================================


WARNING: Geometry Optimization
  ===> : Switching off AutoStart
         For restart on a previous wavefunction, please use MOREAD

================================================================================
                                       INPUT FILE
================================================================================
NAME = opt-conf-10.inp
|  1> ! B3LYP OPT FREQ DEF2-TZVP D4 CPCM(Methanol) 
|  2> ! TightOpt
|  3> %pal nprocs 64 end
|  4> %maxcore 6000
|  5> 
|  6> %cpcm
|  7> end
|  8> 
|  9> %freq
| 10>    Temp 298.15
| 11> end
| 12> 
| 13> * xyzfile 0 1 conf-10.xyz
| 14> 
| 15> 
| 16>                          ****END OF INPUT****
================================================================================

                       *****************************
                       * Geometry Optimization Run *
                       *****************************

Geometry optimization settings:
Update method            Update   .... BFGS
Choice of coordinates    CoordSys .... (2022) Redundant Internals
Initial Hessian          InHess   .... Almloef's Model
Max. no of cycles        MaxIter  .... 246

Convergence Tolerances:
Energy Change            TolE     ....  1.0000e-06 Eh
Max. Gradient            TolMAXG  ....  1.0000e-04 Eh/bohr
RMS Gradient             TolRMSG  ....  3.0000e-05 Eh/bohr
Max. Displacement        TolMAXD  ....  1.0000e-03 bohr
RMS Displacement         TolRMSD  ....  6.0000e-04 bohr
Strict Convergence                .... False

------------------------------------------------------------------------------
                        ORCA OPTIMIZATION COORDINATE SETUP
------------------------------------------------------------------------------

The optimization will be done in redundant internal coordinates (2022)
Making redundant internal coordinates   ...  (2022 redundants) done
Evaluating the initial hessian          ...  (Almloef) done
Evaluating the coordinates              ...  done
Calculating the B-matrix                .... done
Calculating the G-matrix                .... done
The number of degrees of freedom        ....  407

    -----------------------------------------------------------------
                    Redundant Internal Coordinates


    -----------------------------------------------------------------
         Definition                    Initial Value    Approx d2E/dq
    -----------------------------------------------------------------
      1. B(C   1,C   0)                  1.4030         0.595695   
      2. B(C   2,C   1)                  1.4027         0.596395   
      3. B(C   3,C   2)                  1.3885         0.628253   
      4. B(C   4,C   3)                  1.3852         0.635938   
      5. B(C   5,C   4)                  1.3854         0.635450   
      6. B(C   5,C   0)                  1.3871         0.631469   
      7. B(C   6,C   4)                  1.5016         0.414656   
      8. B(C   7,C   6)                  1.5447         0.353932   
      9. B(C   8,C   7)                  1.5457         0.352582   
     10. B(C   9,C   8)                  1.5393         0.361076   
     11. B(C  10,C   9)                  1.5039         0.411095   
     12. B(C  11,C  10)                  1.3934         0.616938   
     13. B(C  12,C  11)                  1.3823         0.642726   
     14. B(C  13,C  12)                  1.4070         0.586872   
     15. B(C  14,C  13)                  1.3854         0.635534   
     16. B(C  15,C  10)                  1.3842         0.638201   
     17. B(C  15,C  14)                  1.3855         0.635179   
     18. B(C  16,C   7)                  1.5389         0.361597   
     19. B(C  17,C   8)                  1.5401         0.359953   
     20. B(O  18,C   2)                  1.3662         0.610809   
     21. B(O  19,C   0)                  1.3628         0.618298   
     22. B(O  20,C   1)                  1.3742         0.593071   
     23. B(O  21,C  13)                  1.3545         0.637611   
     24. B(O  22,C  12)                  1.3749         0.591566   
     25. B(C  23,O  20)                  1.4196         0.501965   
     26. B(C  24,C  23)                  1.5449         0.353733   
     27. B(C  25,C  24)                  1.5096         0.402639   
     28. B(C  26,C  23)                  1.5333         0.369073   
     29. B(O  27,C  26)                  1.4010         0.537344   
     30. B(C  28,C  25)                  1.3934         0.616981   
     31. B(C  29,C  28)                  1.3804         0.647237   
     32. B(C  30,C  29)                  1.4052         0.590802   
     33. B(C  31,C  30)                  1.3829         0.641211   
     34. B(C  32,C  31)                  1.3850         0.636270   
     35. B(C  32,C  25)                  1.3833         0.640330   
     36. B(C  33,O  19)                  1.4076         0.524575   
     37. B(C  34,O  18)                  1.4068         0.526098   
     38. B(C  35,O  22)                  1.4093         0.521388   
     39. B(O  36,C  24)                  1.4156         0.509280   
     40. B(O  37,C  16)                  1.4141         0.512196   
     41. B(O  38,C  17)                  1.4030         0.533472   
     42. B(O  39,C  29)                  1.3779         0.585005   
     43. B(O  40,C  30)                  1.3594         0.626076   
     44. B(C  41,O  39)                  1.4051         0.529359   
     45. B(H  42,C   3)                  1.0783         0.375908   
     46. B(H  43,C   5)                  1.0778         0.376571   
     47. B(H  44,C   6)                  1.0946         0.354107   
     48. B(H  45,C   6)                  1.0907         0.359224   
     49. B(H  46,C   7)                  1.0950         0.353562   
     50. B(H  47,C   8)                  1.0933         0.355787   
     51. B(H  48,C   9)                  1.0918         0.357777   
     52. B(H  49,C   9)                  1.0925         0.356767   
     53. B(H  50,C  11)                  1.0786         0.375538   
     54. B(H  51,C  14)                  1.0791         0.374746   
     55. B(H  52,C  15)                  1.0805         0.372832   
     56. B(H  53,C  16)                  1.0987         0.348835   
     57. B(H  54,C  16)                  1.0919         0.357652   
     58. B(H  55,C  17)                  1.0978         0.349930   
     59. B(H  56,C  17)                  1.0947         0.353953   
     60. B(H  57,O  21)                  0.9680         0.504818   
     61. B(H  57,O  27)                  2.4442         0.010000   
     62. B(H  57,O  22)                  2.2275         0.010000   
     63. B(H  58,C  23)                  1.0921         0.357310   
     64. B(H  59,C  24)                  1.1016         0.345127   
     65. B(H  60,C  26)                  1.0907         0.359226   
     66. B(H  61,C  26)                  1.1006         0.346333   
     67. B(H  62,O  22)                  2.0096         0.010999   
     68. B(H  62,O  20)                  2.2406         0.010000   
     69. B(H  62,O  27)                  0.9717         0.498166   
     70. B(H  63,C  28)                  1.0782         0.376056   
     71. B(H  64,C  31)                  1.0783         0.375856   
     72. B(H  65,C  32)                  1.0789         0.375077   
     73. B(H  66,C  33)                  1.0952         0.353313   
     74. B(H  67,C  33)                  1.0887         0.361795   
     75. B(H  68,H  64)                  2.6030         0.010000   
     76. B(H  68,C  33)                  1.0936         0.355405   
     77. B(H  69,C  34)                  1.0962         0.352038   
     78. B(H  70,C  34)                  1.0884         0.362175   
     79. B(H  71,H  51)                  2.5803         0.010000   
     80. B(H  71,C  34)                  1.0929         0.356225   
     81. B(H  72,C  35)                  1.0890         0.361481   
     82. B(H  73,C  35)                  1.0923         0.357069   
     83. B(H  74,C  35)                  1.0940         0.354909   
     84. B(H  75,O  36)                  0.9636         0.513141   
     85. B(H  76,O  37)                  0.9638         0.512735   
     86. B(H  77,O  37)                  1.8869         0.017263   
     87. B(H  77,O  38)                  0.9713         0.498854   
     88. B(H  78,H  45)                  4.3913         0.010000   
     89. B(H  78,O  39)                  2.1136         0.010000   
     90. B(H  78,O  40)                  0.9668         0.507122   
     91. B(H  79,C  41)                  1.0892         0.361139   
     92. B(H  80,C  41)                  1.0943         0.354396   
     93. B(H  81,H  69)                  2.5709         0.010000   
     94. B(H  81,C  41)                  1.0940         0.354828   
     95. A(C   1,C   0,O  19)          115.2859         0.427932   
     96. A(C   5,C   0,O  19)          124.4607         0.432436   
     97. A(C   1,C   0,C   5)          120.2262         0.432378   
     98. A(C   0,C   1,O  20)          116.3143         0.424751   
     99. A(C   0,C   1,C   2)          119.2909         0.427966   
    100. A(C   2,C   1,O  20)          124.1521         0.424841   
    101. A(C   3,C   2,O  18)          123.4663         0.431094   
    102. A(C   1,C   2,C   3)          119.4346         0.432073   
    103. A(C   1,C   2,O  18)          117.0978         0.427088   
    104. A(C   4,C   3,H  42)          118.9224         0.357023   
    105. A(C   2,C   3,H  42)          120.0130         0.356286   
    106. A(C   2,C   3,C   4)          121.0277         0.437094   
    107. A(C   5,C   4,C   6)          120.2635         0.405796   
    108. A(C   3,C   4,C   6)          119.7928         0.405851   
    109. A(C   3,C   4,C   5)          119.7160         0.437993   
    110. A(C   4,C   5,H  43)          119.0910         0.357083   
    111. A(C   0,C   5,H  43)          120.6243         0.356702   
    112. A(C   0,C   5,C   4)          120.2829         0.437436   
    113. A(C   4,C   6,H  44)          109.6972         0.329028   
    114. A(C   7,C   6,H  45)          110.0369         0.321331   
    115. A(C   4,C   6,C   7)          109.4774         0.366494   
    116. A(H  44,C   6,H  45)          109.3031         0.289963   
    117. A(C   4,C   6,H  45)          109.4171         0.329809   
    118. A(C   7,C   6,H  44)          108.8953         0.320578   
    119. A(C   6,C   7,C  16)          110.7886         0.358026   
    120. A(C   8,C   7,C  16)          115.2025         0.357794   
    121. A(C  16,C   7,H  46)          105.8963         0.321623   
    122. A(C   8,C   7,H  46)          106.1611         0.320297   
    123. A(C   6,C   7,H  46)          106.7689         0.320497   
    124. A(C   6,C   7,C   8)          111.4097         0.356493   
    125. A(C   7,C   8,C  17)          115.3842         0.357517   
    126. A(C  17,C   8,H  47)          107.0216         0.321713   
    127. A(C   7,C   8,C   9)          110.5266         0.357706   
    128. A(C   9,C   8,H  47)          107.3610         0.321877   
    129. A(C   7,C   8,H  47)          106.7737         0.320626   
    130. A(C   9,C   8,C  17)          109.3927         0.358967   
    131. A(H  48,C   9,H  49)          107.8301         0.290120   
    132. A(C  10,C   9,H  48)          109.8450         0.329120   
    133. A(C  10,C   9,H  49)          109.2340         0.328966   
    134. A(C   8,C   9,C  10)          111.7938         0.367208   
    135. A(C   8,C   9,H  48)          109.5732         0.322171   
    136. A(C   8,C   9,H  49)          108.4701         0.322022   
    137. A(C   9,C  10,C  11)          119.8528         0.403069   
    138. A(C  11,C  10,C  15)          118.7225         0.435944   
    139. A(C   9,C  10,C  15)          121.4230         0.405487   
    140. A(C  10,C  11,C  12)          121.1606         0.436499   
    141. A(C  10,C  11,H  50)          118.7558         0.355130   
    142. A(C  12,C  11,H  50)          120.0820         0.357608   
    143. A(C  11,C  12,C  13)          119.7404         0.432592   
    144. A(C  13,C  12,O  22)          114.9805         0.423427   
    145. A(C  11,C  12,O  22)          125.2682         0.430380   
    146. A(C  12,C  13,O  21)          122.0537         0.429149   
    147. A(C  12,C  13,C  14)          118.8569         0.431718   
    148. A(C  14,C  13,O  21)          119.0874         0.435337   
    149. A(C  13,C  14,H  51)          118.2239         0.356797   
    150. A(C  13,C  14,C  15)          120.7917         0.437909   
    151. A(C  15,C  14,H  51)          120.9777         0.356763   
    152. A(C  14,C  15,H  52)          119.2865         0.356453   
    153. A(C  10,C  15,H  52)          120.0030         0.356740   
    154. A(C  10,C  15,C  14)          120.7080         0.438240   
    155. A(O  37,C  16,H  54)          105.6312         0.339276   
    156. A(C   7,C  16,H  54)          110.2243         0.322229   
    157. A(O  37,C  16,H  53)          109.1833         0.337866   
    158. A(C   7,C  16,H  53)          108.7094         0.320915   
    159. A(C   7,C  16,O  37)          114.9897         0.379093   
    160. A(H  53,C  16,H  54)          107.8665         0.289084   
    161. A(O  38,C  17,H  56)          106.0400         0.340999   
    162. A(C   8,C  17,O  38)          113.7370         0.381476   
    163. A(H  55,C  17,H  56)          107.7534         0.288755   
    164. A(C   8,C  17,H  56)          108.2641         0.321441   
    165. A(O  38,C  17,H  55)          110.5943         0.340347   
    166. A(C   8,C  17,H  55)          110.1755         0.320841   
    167. A(C   2,O  18,C  34)          119.3310         0.414922   
    168. A(C   0,O  19,C  33)          118.1185         0.415608   
    169. A(C   1,O  20,C  23)          119.3198         0.409333   
    170. A(C  13,O  21,H  57)          110.1904         0.370018   
    171. A(C  12,O  22,C  35)          118.6164         0.411911   
    172. A(C  26,C  23,H  58)          108.6904         0.323261   
    173. A(C  24,C  23,H  58)          107.9308         0.321021   
    174. A(O  20,C  23,H  58)          111.2196         0.338082   
    175. A(C  24,C  23,C  26)          111.6423         0.359241   
    176. A(O  20,C  23,C  26)          105.4898         0.379112   
    177. A(O  20,C  23,C  24)          111.8538         0.376338   
    178. A(C  23,C  24,O  36)          105.8150         0.377280   
    179. A(O  36,C  24,H  59)          110.0967         0.336944   
    180. A(C  25,C  24,H  59)          108.8541         0.326054   
    181. A(C  23,C  24,H  59)          108.6698         0.319206   
    182. A(C  25,C  24,O  36)          112.4983         0.385855   
    183. A(C  23,C  24,C  25)          110.8232         0.364618   
    184. A(C  28,C  25,C  32)          119.6694         0.436211   
    185. A(C  24,C  25,C  32)          120.9984         0.404240   
    186. A(C  24,C  25,C  28)          119.3199         0.401601   
    187. A(O  27,C  26,H  61)          110.3678         0.340171   
    188. A(H  60,C  26,H  61)          109.3536         0.288956   
    189. A(C  23,C  26,H  61)          108.6917         0.321613   
    190. A(O  27,C  26,H  60)          107.6725         0.342258   
    191. A(C  23,C  26,H  60)          109.7425         0.323545   
    192. A(C  23,C  26,O  27)          110.9951         0.383619   
    193. A(C  26,O  27,H  62)          106.2552         0.358534   
    194. A(C  29,C  28,H  63)          121.1808         0.358118   
    195. A(C  25,C  28,H  63)          118.5285         0.355217   
    196. A(C  25,C  28,C  29)          120.2892         0.437055   
    197. A(C  30,C  29,O  39)          114.5452         0.423088   
    198. A(C  28,C  29,O  39)          125.6843         0.430058   
    199. A(C  28,C  29,C  30)          119.7701         0.433657   
    200. A(C  31,C  30,O  40)          120.1361         0.434604   
    201. A(C  29,C  30,O  40)          120.2593         0.428258   
    202. A(C  29,C  30,C  31)          119.6046         0.432928   
    203. A(C  32,C  31,H  64)          121.1798         0.357046   
    204. A(C  30,C  31,H  64)          118.5924         0.357516   
    205. A(C  30,C  31,C  32)          120.2253         0.438748   
    206. A(C  31,C  32,H  65)          119.6535         0.356921   
    207. A(C  25,C  32,H  65)          119.9520         0.357306   
    208. A(C  25,C  32,C  31)          120.3901         0.438639   
    209. A(H  67,C  33,H  68)          109.4164         0.290455   
    210. A(H  66,C  33,H  68)          109.4777         0.289376   
    211. A(O  19,C  33,H  68)          111.4424         0.340274   
    212. A(H  66,C  33,H  67)          109.2494         0.290186   
    213. A(O  19,C  33,H  67)          105.5112         0.341289   
    214. A(O  19,C  33,H  66)          111.6426         0.339938   
    215. A(H  69,C  34,H  71)          109.7807         0.289316   
    216. A(O  18,C  34,H  71)          111.5266         0.340570   
    217. A(H  69,C  34,H  70)          109.5111         0.290069   
    218. A(O  18,C  34,H  70)          105.1433         0.341515   
    219. A(O  18,C  34,H  69)          111.5902         0.339898   
    220. A(H  70,C  34,H  71)          109.1603         0.290608   
    221. A(H  73,C  35,H  74)          110.1999         0.289793   
    222. A(H  72,C  35,H  74)          109.2936         0.290352   
    223. A(O  22,C  35,H  74)          111.1253         0.339848   
    224. A(H  72,C  35,H  73)          109.1075         0.290628   
    225. A(O  22,C  35,H  73)          111.4225         0.340193   
    226. A(O  22,C  35,H  72)          105.5569         0.340892   
    227. A(C  24,O  36,H  75)          108.4482         0.357072   
    228. A(C  16,O  37,H  76)          108.4273         0.357371   
    229. A(C  17,O  38,H  77)          106.2866         0.358177   
    230. A(C  29,O  39,C  41)          117.7391         0.412205   
    231. A(C  30,O  40,H  78)          107.6636         0.369148   
    232. A(H  80,C  41,H  81)          109.7080         0.289441   
    233. A(H  79,C  41,H  81)          109.6305         0.290298   
    234. A(O  39,C  41,H  81)          110.8325         0.340698   
    235. A(H  79,C  41,H  80)          109.2806         0.290243   
    236. A(O  39,C  41,H  80)          111.5348         0.340629   
    237. A(O  39,C  41,H  79)          105.7662         0.341704   
    238. D(O  20,C   1,C   0,O  19)      2.3219         0.024444   
    239. D(C   2,C   1,C   0,O  19)    176.8979         0.024444   
    240. D(C   2,C   1,C   0,C   5)     -1.2888         0.024444   
    241. D(O  20,C   1,C   0,C   5)   -175.8648         0.024444   
    242. D(O  18,C   2,C   1,C   0)   -178.2590         0.024505   
    243. D(C   3,C   2,C   1,C   0)      1.3470         0.024505   
    244. D(C   3,C   2,C   1,O  20)    175.4704         0.024505   
    245. D(O  18,C   2,C   1,O  20)     -4.1357         0.024505   
    246. D(C   4,C   3,C   2,C   1)     -1.2633         0.027357   
    247. D(H  42,C   3,C   2,O  18)      0.5505         0.027357   
    248. D(C   4,C   3,C   2,O  18)    178.3163         0.027357   
    249. D(H  42,C   3,C   2,C   1)   -179.0291         0.027357   
    250. D(C   6,C   4,C   3,H  42)      4.3478         0.028075   
    251. D(C   5,C   4,C   3,H  42)    178.8807         0.028075   
    252. D(C   5,C   4,C   3,C   2)      1.0910         0.028075   
    253. D(C   6,C   4,C   3,C   2)   -173.4419         0.028075   
    254. D(H  43,C   5,C   4,C   6)     -6.0109         0.028029   
    255. D(H  43,C   5,C   4,C   3)    179.4823         0.028029   
    256. D(C   0,C   5,C   4,C   3)     -1.0129         0.028029   
    257. D(C   4,C   5,C   0,O  19)   -176.8863         0.027656   
    258. D(H  43,C   5,C   0,C   1)   -179.3777         0.027656   
    259. D(H  43,C   5,C   0,O  19)      2.6108         0.027656   
    260. D(C   0,C   5,C   4,C   6)    173.4939         0.028029   
    261. D(C   4,C   5,C   0,C   1)      1.1252         0.027656   
    262. D(H  45,C   6,C   4,C   3)   -167.0656         0.012724   
    263. D(H  44,C   6,C   4,C   5)    138.3310         0.012724   
    264. D(H  44,C   6,C   4,C   3)    -47.1664         0.012724   
    265. D(C   7,C   6,C   4,C   5)   -102.2324         0.012724   
    266. D(C   7,C   6,C   4,C   3)     72.2702         0.012724   
    267. D(C   8,C   7,C   6,H  44)   -176.5057         0.010075   
    268. D(C   8,C   7,C   6,C   4)     63.5652         0.010075   
    269. D(C  16,C   7,C   6,H  45)     72.9276         0.010075   
    270. D(C  16,C   7,C   6,H  44)    -46.8567         0.010075   
    271. D(C   8,C   7,C   6,H  45)    -56.7214         0.010075   
    272. D(C  16,C   7,C   6,C   4)   -166.7858         0.010075   
    273. D(C  17,C   8,C   7,H  46)   -151.7860         0.010004   
    274. D(C  17,C   8,C   7,C  16)    -34.9430         0.010004   
    275. D(C  17,C   8,C   7,C   6)     92.3478         0.010004   
    276. D(C   9,C   8,C   7,C  16)     89.8141         0.010004   
    277. D(C   9,C   8,C   7,H  46)    -27.0290         0.010004   
    278. D(C   9,C   8,C   7,C   6)   -142.8952         0.010004   
    279. D(H  48,C   9,C   8,C  17)     72.2321         0.010455   
    280. D(H  48,C   9,C   8,C   7)    -55.8710         0.010455   
    281. D(C  10,C   9,C   8,H  47)    -49.9509         0.010455   
    282. D(C  10,C   9,C   8,C  17)   -165.7490         0.010455   
    283. D(H  48,C   9,C   8,H  47)   -171.9698         0.010455   
    284. D(C  10,C   9,C   8,C   7)     66.1479         0.010455   
    285. D(C  15,C  10,C   9,H  48)     14.7174         0.012514   
    286. D(C  15,C  10,C   9,C   8)   -107.1453         0.012514   
    287. D(C  11,C  10,C   9,H  49)    -47.6793         0.012514   
    288. D(C  11,C  10,C   9,H  48)   -165.7587         0.012514   
    289. D(C  11,C  10,C   9,C   8)     72.3786         0.012514   
    290. D(H  50,C  11,C  10,C  15)   -179.5598         0.026322   
    291. D(H  50,C  11,C  10,C   9)      0.9035         0.026322   
    292. D(C  12,C  11,C  10,C  15)     -0.0076         0.026322   
    293. D(C  12,C  11,C  10,C   9)   -179.5444         0.026322   
    294. D(O  22,C  12,C  11,H  50)      2.0232         0.028718   
    295. D(C  13,C  12,C  11,H  50)   -179.2439         0.028718   
    296. D(O  22,C  12,C  11,C  10)   -177.5231         0.028718   
    297. D(C  13,C  12,C  11,C  10)      1.2098         0.028718   
    298. D(O  21,C  13,C  12,C  11)    178.8874         0.023689   
    299. D(C  14,C  13,C  12,O  22)    177.2278         0.023689   
    300. D(C  14,C  13,C  12,C  11)     -1.6309         0.023689   
    301. D(O  21,C  13,C  12,O  22)     -2.2539         0.023689   
    302. D(H  51,C  14,C  13,O  21)      1.3076         0.028037   
    303. D(H  51,C  14,C  13,C  12)   -178.1897         0.028037   
    304. D(C  15,C  14,C  13,O  21)   -179.6231         0.028037   
    305. D(C  15,C  14,C  13,C  12)      0.8796         0.028037   
    306. D(H  52,C  15,C  14,H  51)     -0.0504         0.028003   
    307. D(H  52,C  15,C  14,C  13)   -179.0939         0.028003   
    308. D(C  10,C  15,C  14,H  51)    179.3659         0.028003   
    309. D(C  10,C  15,C  14,C  13)      0.3224         0.028003   
    310. D(H  52,C  15,C  10,C  11)    178.6469         0.028288   
    311. D(H  52,C  15,C  10,C   9)     -1.8239         0.028288   
    312. D(C  14,C  15,C  10,C  11)     -0.7652         0.028288   
    313. D(C  14,C  15,C  10,C   9)    178.7639         0.028288   
    314. D(H  53,C  16,C   7,H  46)    -40.2358         0.010484   
    315. D(H  53,C  16,C   7,C   8)   -157.2287         0.010484   
    316. D(H  53,C  16,C   7,C   6)     75.1676         0.010484   
    317. D(O  37,C  16,C   7,H  46)   -162.9605         0.010484   
    318. D(O  37,C  16,C   7,C   8)     80.0466         0.010484   
    319. D(O  37,C  16,C   7,C   6)    -47.5571         0.010484   
    320. D(H  55,C  17,C   8,H  47)   -172.2109         0.010395   
    321. D(H  55,C  17,C   8,C   9)    -56.1966         0.010395   
    322. D(H  55,C  17,C   8,C   7)     69.1474         0.010395   
    323. D(O  38,C  17,C   8,H  47)     62.9723         0.010395   
    324. D(O  38,C  17,C   8,C   9)    178.9867         0.010395   
    325. D(O  38,C  17,C   8,C   7)    -55.6693         0.010395   
    326. D(C  34,O  18,C   2,C   3)      0.1501         0.027315   
    327. D(C  34,O  18,C   2,C   1)    179.7388         0.027315   
    328. D(C  33,O  19,C   0,C   5)     -4.0955         0.028037   
    329. D(C  33,O  19,C   0,C   1)    177.8047         0.028037   
    330. D(C  23,O  20,C   1,C   2)     51.3751         0.028296   
    331. D(C  23,O  20,C   1,C   0)   -134.3422         0.028296   
    332. D(H  57,O  21,C  13,C  14)    173.2788         0.029953   
    333. D(H  57,O  21,C  13,C  12)     -7.2406         0.029953   
    334. D(C  35,O  22,C  12,C  13)   -174.3595         0.030589   
    335. D(C  35,O  22,C  12,C  11)      4.4267         0.030589   
    336. D(H  58,C  23,O  20,C   1)    -33.7129         0.021617   
    337. D(C  26,C  23,O  20,C   1)   -151.3791         0.021617   
    338. D(C  24,C  23,O  20,C   1)     87.0542         0.021617   
    339. D(O  36,C  24,C  23,H  58)    -44.3450         0.010065   
    340. D(O  36,C  24,C  23,C  26)     75.0450         0.010065   
    341. D(O  36,C  24,C  23,O  20)   -167.0050         0.010065   
    342. D(C  25,C  24,C  23,H  58)     77.8792         0.010065   
    343. D(C  25,C  24,C  23,C  26)   -162.7308         0.010065   
    344. D(C  25,C  24,C  23,O  20)    -44.7808         0.010065   
    345. D(C  32,C  25,C  24,O  36)   -126.7293         0.012024   
    346. D(C  32,C  25,C  24,C  23)    115.0336         0.012024   
    347. D(C  28,C  25,C  24,H  59)    176.8565         0.012024   
    348. D(C  28,C  25,C  24,O  36)     54.5510         0.012024   
    349. D(C  28,C  25,C  24,C  23)    -63.6860         0.012024   
    350. D(H  60,C  26,C  23,H  58)     56.6265         0.010892   
    351. D(H  60,C  26,C  23,C  24)    -62.3131         0.010892   
    352. D(H  60,C  26,C  23,O  20)    175.9833         0.010892   
    353. D(O  27,C  26,C  23,H  58)    -62.2681         0.010892   
    354. D(O  27,C  26,C  23,C  24)    178.7924         0.010892   
    355. D(O  27,C  26,C  23,O  20)     57.0887         0.010892   
    356. D(H  62,O  27,C  26,H  61)     72.3631         0.024930   
    357. D(H  62,O  27,C  26,H  60)   -168.3427         0.024930   
    358. D(H  62,O  27,C  26,C  23)    -48.2098         0.024930   
    359. D(H  63,C  28,C  25,C  32)    178.1820         0.026326   
    360. D(H  63,C  28,C  25,C  24)     -3.0811         0.026326   
    361. D(C  29,C  28,C  25,C  32)     -2.2515         0.026326   
    362. D(C  29,C  28,C  25,C  24)    176.4854         0.026326   
    363. D(C  30,C  29,C  28,H  63)   -179.0893         0.029150   
    364. D(C  30,C  29,C  28,C  25)      1.3558         0.029150   
    365. D(O  39,C  29,C  28,H  63)      1.1574         0.029150   
    366. D(O  39,C  29,C  28,C  25)   -178.3975         0.029150   
    367. D(O  40,C  30,C  29,O  39)      0.4793         0.024024   
    368. D(O  40,C  30,C  29,C  28)   -179.3004         0.024024   
    369. D(C  31,C  30,C  29,O  39)   -179.4666         0.024024   
    370. D(C  31,C  30,C  29,C  28)      0.7537         0.024024   
    371. D(H  64,C  31,C  30,O  40)     -1.3571         0.028574   
    372. D(H  64,C  31,C  30,C  29)    178.5889         0.028574   
    373. D(C  32,C  31,C  30,O  40)    178.0834         0.028574   
    374. D(C  32,C  31,C  30,C  29)     -1.9707         0.028574   
    375. D(H  65,C  32,C  31,H  64)      1.2709         0.028106   
    376. D(H  65,C  32,C  31,C  30)   -178.1548         0.028106   
    377. D(C  25,C  32,C  31,H  64)   -179.4937         0.028106   
    378. D(C  25,C  32,C  31,C  30)      1.0806         0.028106   
    379. D(H  65,C  32,C  25,C  28)   -179.7333         0.028490   
    380. D(H  65,C  32,C  25,C  24)      1.5515         0.028490   
    381. D(C  31,C  32,C  25,C  28)      1.0336         0.028490   
    382. D(C  31,C  32,C  25,C  24)   -177.6816         0.028490   
    383. D(H  68,C  33,O  19,C   0)    -58.9206         0.021833   
    384. D(H  67,C  33,O  19,C   0)   -177.5833         0.021833   
    385. D(H  66,C  33,O  19,C   0)     63.8478         0.021833   
    386. D(H  71,C  34,O  18,C   2)    -58.3222         0.021965   
    387. D(H  70,C  34,O  18,C   2)   -176.5036         0.021965   
    388. D(H  69,C  34,O  18,C   2)     64.8625         0.021965   
    389. D(H  74,C  35,O  22,C  12)     54.0668         0.025131   
    390. D(H  73,C  35,O  22,C  12)    -69.2480         0.025131   
    391. D(H  72,C  35,O  22,C  12)    172.4425         0.025131   
    392. D(H  75,O  36,C  24,H  59)    -65.2953         0.020530   
    393. D(H  75,O  36,C  24,C  25)     56.3056         0.020530   
    394. D(H  75,O  36,C  24,C  23)    177.4520         0.020530   
    395. D(H  76,O  37,C  16,H  54)   -171.6934         0.022545   
    396. D(H  76,O  37,C  16,H  53)    -55.9301         0.022545   
    397. D(H  76,O  37,C  16,C   7)     66.5402         0.022545   
    398. D(H  77,O  38,C  17,H  56)   -163.3626         0.022614   
    399. D(H  77,O  38,C  17,H  55)    -46.8135         0.022614   
    400. D(H  77,O  38,C  17,C   8)     77.7786         0.022614   
    401. D(C  41,O  39,C  29,C  30)   -175.6604         0.027480   
    402. D(C  41,O  39,C  29,C  28)      4.1042         0.027480   
    403. D(H  78,O  40,C  30,C  31)    179.6611         0.028799   
    404. D(H  78,O  40,C  30,C  29)     -0.2844         0.028799   
    405. D(H  81,C  41,O  39,C  29)     58.7261         0.024156   
    406. D(H  80,C  41,O  39,C  29)    -63.8247         0.024156   
    407. D(H  79,C  41,O  39,C  29)    177.4727         0.024156   
    -----------------------------------------------------------------

Number of atoms                         .... 82
Number of degrees of freedom            .... 407


         *************************************************************
         *                GEOMETRY OPTIMIZATION CYCLE   1            *
         *************************************************************
---------------------------------
CARTESIAN COORDINATES (ANGSTROEM)
---------------------------------
  C     14.584390  -20.379474   -0.354943
  C     15.309804  -19.189800   -0.191194
  C     14.701259  -18.096759    0.443155
  C     13.403819  -18.221236    0.921782
  C     12.692810  -19.398888    0.759452
  C     13.288784  -20.479747    0.130258
  C     11.245148  -19.456829    1.154067
  C     10.401762  -18.655837    0.137593
  C     10.473554  -19.282775   -1.273477
  C     10.494928  -18.184395   -2.351641
  C     11.753416  -17.363448   -2.287516
  C     12.962811  -17.913957   -2.707032
  C     14.137205  -17.187030   -2.651117
  C     14.123155  -15.876411   -2.139398
  C     12.916708  -15.330448   -1.732414
  C     11.744233  -16.064701   -1.808724
  C      8.980447  -18.415454    0.676297
  C      9.364330  -20.299666   -1.601344
  O     15.435424  -16.949248    0.546216
  O     15.230024  -21.365451   -1.039307
  O     16.551407  -19.147635   -0.778587
  O     15.249535  -15.130432   -2.042533
  O     15.364916  -17.627452   -3.085906
  C     17.653426  -18.643452   -0.039278
  C     18.331179  -19.744864    0.805778
  C     17.299490  -20.587029    1.516612
  C     18.613691  -18.059741   -1.082439
  O     17.977652  -17.082118   -1.858736
  C     16.475987  -19.994883    2.472040
  C     15.478059  -20.728238    3.081810
  C     15.311787  -22.085290    2.757109
  C     16.160914  -22.677351    1.840064
  C     17.143417  -21.927894    1.214480
  C     14.575231  -22.601389   -1.197487
  C     14.868801  -15.822223    1.168989
  C     15.445124  -18.881883   -3.723054
  O     19.190336  -19.067845    1.704417
  O      8.342909  -19.558851    1.210946
  O      9.279021  -21.357756   -0.683947
  O     14.583695  -20.248992    4.014055
  O     14.323253  -22.813248    3.341030
  C     14.628807  -18.878166    4.319285
  H     12.921387  -17.382070    1.396968
  H     12.729226  -21.393932    0.016819
  H     11.115646  -19.016023    2.147546
  H     10.916467  -20.496571    1.175334
  H     10.862632  -17.665992    0.055120
  H     11.425467  -19.817142   -1.333251
  H      9.623794  -17.537307   -2.231863
  H     10.425512  -18.660715   -3.332420
  H     12.969389  -18.923395   -3.086916
  H     12.913031  -14.314201   -1.369385
  H     10.814531  -15.609781   -1.498445
  H      9.023035  -17.632763    1.446112
  H      8.327902  -18.062316   -0.124721
  H      8.397021  -19.788607   -1.692412
  H      9.592954  -20.756478   -2.569535
  H     16.025398  -15.667099   -2.259630
  H     17.343190  -17.843939    0.636928
  H     18.918674  -20.392199    0.135523
  H     19.458780  -17.586374   -0.581150
  H     18.980062  -18.877650   -1.721298
  H     17.132372  -17.467934   -2.142917
  H     16.633147  -18.956181    2.714752
  H     16.033268  -23.725294    1.620190
  H     17.781408  -22.392059    0.478573
  H     13.662221  -22.501357   -1.793998
  H     15.281362  -23.239407   -1.726286
  H     14.331860  -23.051445   -0.230988
  H     14.671053  -16.005293    2.231513
  H     15.615145  -15.036402    1.068251
  H     13.948273  -15.508754    0.670094
  H     16.465830  -18.955662   -4.095272
  H     15.260561  -19.698321   -3.021278
  H     14.748383  -18.942090   -4.564278
  H     19.604635  -19.720121    2.280091
  H      8.816606  -19.828006    2.005987
  H      8.822915  -21.004631    0.097494
  H     13.848180  -22.229323    3.947699
  H     13.822125  -18.706688    5.030797
  H     15.581898  -18.600305    4.779726
  H     14.462398  -18.274184    3.422411

----------------------------
CARTESIAN COORDINATES (A.U.)
----------------------------
  NO LB      ZA    FRAG     MASS         X           Y           Z
   0 C     6.0000    0    12.011   27.560502  -38.511624   -0.670746
   1 C     6.0000    0    12.011   28.931337  -36.263467   -0.361304
   2 C     6.0000    0    12.011   27.781352  -34.197918    0.837442
   3 C     6.0000    0    12.011   25.329547  -34.433146    1.741916
   4 C     6.0000    0    12.011   23.985934  -36.658585    1.435156
   5 C     6.0000    0    12.011   25.112162  -38.701112    0.246152
   6 C     6.0000    0    12.011   21.250249  -36.768078    2.180870
   7 C     6.0000    0    12.011   19.656481  -35.254423    0.260012
   8 C     6.0000    0    12.011   19.792148  -36.439163   -2.406523
   9 C     6.0000    0    12.011   19.832540  -34.363527   -4.443958
  10 C     6.0000    0    12.011   22.210737  -32.812161   -4.322778
  11 C     6.0000    0    12.011   24.496162  -33.852473   -5.115548
  12 C     6.0000    0    12.011   26.715445  -32.478780   -5.009885
  13 C     6.0000    0    12.011   26.688896  -30.002069   -4.042876
  14 C     6.0000    0    12.011   24.409041  -28.970347   -3.273788
  15 C     6.0000    0    12.011   22.193384  -30.357885   -3.417993
  16 C     6.0000    0    12.011   16.970585  -34.800166    1.278017
  17 C     6.0000    0    12.011   17.696018  -38.360809   -3.026102
  18 O     8.0000    0    15.999   29.168724  -32.029437    1.032198
  19 O     8.0000    0    15.999   28.780575  -40.374851   -1.964006
  20 O     8.0000    0    15.999   31.277625  -36.183786   -1.471316
  21 O     8.0000    0    15.999   28.817444  -28.592373   -3.859827
  22 O     8.0000    0    15.999   29.035483  -33.311057   -5.831516
  23 C     6.0000    0    12.011   33.360140  -35.231018   -0.074225
  24 C     6.0000    0    12.011   34.640907  -37.312386    1.522700
  25 C     6.0000    0    12.011   32.691298  -38.903847    2.865981
  26 C     6.0000    0    12.011   35.174778  -34.127965   -2.045512
  27 O     8.0000    0    15.999   33.972838  -32.280526   -3.512501
  28 C     6.0000    0    12.011   31.135104  -37.784853    4.671479
  29 C     6.0000    0    12.011   29.249293  -39.170693    5.823777
  30 C     6.0000    0    12.011   28.935084  -41.735151    5.210182
  31 C     6.0000    0    12.011   30.539701  -42.853983    3.477217
  32 C     6.0000    0    12.011   32.396363  -41.437714    2.295034
  33 C     6.0000    0    12.011   27.543195  -42.710435   -2.262923
  34 C     6.0000    0    12.011   28.097961  -29.899668    2.209070
  35 C     6.0000    0    12.011   29.187055  -35.681588   -7.035552
  36 O     8.0000    0    15.999   36.264480  -36.033005    3.220881
  37 O     8.0000    0    15.999   15.765813  -36.960872    2.288356
  38 O     8.0000    0    15.999   17.534809  -40.360310   -1.292473
  39 O     8.0000    0    15.999   27.559189  -38.265050    7.585465
  40 O     8.0000    0    15.999   27.067025  -43.110790    6.313632
  41 C     6.0000    0    12.011   27.644439  -35.674563    8.162266
  42 H     1.0000    0     1.008   24.417883  -32.847352    2.639888
  43 H     1.0000    0     1.008   24.054752  -40.428673    0.031784
  44 H     1.0000    0     1.008   21.005526  -35.935075    4.058273
  45 H     1.0000    0     1.008   20.629134  -38.732906    2.221059
  46 H     1.0000    0     1.008   20.527399  -33.383886    0.104161
  47 H     1.0000    0     1.008   21.591003  -37.448972   -2.519480
  48 H     1.0000    0     1.008   18.186336  -33.140707   -4.217611
  49 H     1.0000    0     1.008   19.701362  -35.263641   -6.297361
  50 H     1.0000    0     1.008   24.508593  -35.760034   -5.833426
  51 H     1.0000    0     1.008   24.402092  -27.049920   -2.587763
  52 H     1.0000    0     1.008   20.436503  -29.498211   -2.831651
  53 H     1.0000    0     1.008   17.051065  -33.321093    2.732756
  54 H     1.0000    0     1.008   15.737454  -34.132830   -0.235688
  55 H     1.0000    0     1.008   15.868069  -37.395048   -3.198195
  56 H     1.0000    0     1.008   18.128056  -39.224058   -4.855717
  57 H     1.0000    0     1.008   30.283614  -29.606526   -4.270081
  58 H     1.0000    0     1.008   32.773879  -33.720158    1.203619
  59 H     1.0000    0     1.008   35.751112  -38.535671    0.256101
  60 H     1.0000    0     1.008   36.771765  -33.233431   -1.098215
  61 H     1.0000    0     1.008   35.867120  -35.673589   -3.252781
  62 H     1.0000    0     1.008   32.375491  -33.009612   -4.049527
  63 H     1.0000    0     1.008   31.432093  -35.821991    5.130138
  64 H     1.0000    0     1.008   30.298485  -44.834308    3.061715
  65 H     1.0000    0     1.008   33.601991  -42.314859    0.904371
  66 H     1.0000    0     1.008   25.817856  -42.521402   -3.390164
  67 H     1.0000    0     1.008   28.877589  -43.916114   -3.262207
  68 H     1.0000    0     1.008   27.083291  -43.560918   -0.436503
  69 H     1.0000    0     1.008   27.724273  -30.245621    4.216948
  70 H     1.0000    0     1.008   29.508348  -28.414681    2.018702
  71 H     1.0000    0     1.008   26.358417  -29.307298    1.266294
  72 H     1.0000    0     1.008   31.115909  -35.821009   -7.738943
  73 H     1.0000    0     1.008   28.838281  -37.224431   -5.709389
  74 H     1.0000    0     1.008   27.870405  -35.795362   -8.625236
  75 H     1.0000    0     1.008   37.047391  -37.265629    4.308747
  76 H     1.0000    0     1.008   16.660971  -37.469501    3.790766
  77 H     1.0000    0     1.008   16.672892  -39.693000    0.184237
  78 H     1.0000    0     1.008   26.169268  -42.007333    7.460070
  79 H     1.0000    0     1.008   26.120030  -35.350516    9.506828
  80 H     1.0000    0     1.008   29.445520  -35.149483    9.032373
  81 H     1.0000    0     1.008   27.329971  -34.533203    6.467420

--------------------------------
INTERNAL COORDINATES (ANGSTROEM)
--------------------------------
 C      0   0   0     0.000000000000     0.00000000     0.00000000
 C      1   0   0     1.402983472826     0.00000000     0.00000000
 C      2   1   0     1.402663784477   119.29087595     0.00000000
 C      3   2   1     1.388498368760   119.43464844     1.34702419
 C      4   3   2     1.385188847065   121.02772326   358.73669001
 C      5   4   3     1.385397542204   119.71600225     1.09099146
 C      5   4   3     1.501600263006   119.79276913   186.55810486
 C      7   5   4     1.544703136133   109.47740267    72.27017694
 C      8   7   5     1.545743267245   111.40965196    63.56517221
 C      9   8   7     1.539263358981   110.52657538   217.10479848
 C     10   9   8     1.503947627183   111.79380043    66.14785019
 C     11  10   9     1.393445509497   119.85279398    72.37864732
 C     12  11  10     1.382298657055   121.16062607   180.45561697
 C     13  12  11     1.407045432012   119.74041129     1.20980748
 C     14  13  12     1.385361689515   118.85687502   358.36911588
 C     11  10   9     1.384221845471   121.42300602   252.85472469
 C      8   7   5     1.538870729333   110.78860610   193.21418267
 C      9   8   7     1.540111249690   115.38420753    92.34777603
 O      3   2   1     1.366163104761   117.09779684   181.74097324
 O      1   2   3     1.362846197428   115.28585240   176.89791448
 O      2   1   3     1.374185563973   116.31428361   185.42403228
 O     14  13  12     1.354473353524   122.05370267   178.88744988
 O     13  12  11     1.374877220305   125.26816953   182.47693281
 C     21   2   1     1.419585830912   119.31984671   225.65783969
 C     24  21   2     1.544855810410   111.85378249    87.05421121
 C     25  24  21     1.509605113303   110.82318822   315.21920680
 C     24  21   2     1.533300412999   105.48975740   208.62090791
 O     27  24  21     1.401045673913   110.99514205    57.08874859
 C     26  25  24     1.393426421677   119.31989677   296.31397374
 C     29  26  25     1.380394722106   120.28920649   176.48540405
 C     30  29  26     1.405228959352   119.77006326     1.35584503
 C     31  30  29     1.382940691246   119.60459814     0.75370468
 C     26  25  24     1.383315272045   120.99837908   115.03358180
 C     20   1   2     1.407592639092   118.11845481   177.80467870
 C     19   3   2     1.406803219767   119.33099224   179.73883621
 C     23  13  12     1.409251192454   118.61643706     4.42672195
 O     25  24  21     1.415647262367   105.81499311   192.99501911
 O     17   8   7     1.414093100559   114.98967739   312.44294336
 O     18   9   8     1.403014431314   113.73695893   304.33071605
 O     30  29  26     1.377913092362   125.68427834   181.60254062
 O     31  30  29     1.359443021396   120.25931530   180.69957825
 C     40  30  29     1.405121238158   117.73905199     4.10415874
 H      4   3   2     1.078305420952   120.01295844   180.97093641
 H      6   5   4     1.077825728409   119.09099543   179.48233418
 H      7   5   4     1.094568775631   109.69719728   312.83359462
 H      7   5   4     1.090663301452   109.41708406   192.93443123
 H      8   7   5     1.094987451495   106.76890842   308.07252457
 H      9   8   7     1.093279818865   106.77368626   333.56867482
 H     10   9   8     1.091761916751   109.57319261   304.12898560
 H     10   9   8     1.092531540165   108.47009377   186.65246036
 H     12  11  10     1.078573440023   118.75581452     0.90348065
 H     15  14  13     1.079147930579   118.22385503   181.81031867
 H     16  11  10     1.080541370549   120.00296841   358.17609382
 H     17   8   7     1.098651570478   108.70938008    75.16763285
 H     17   8   7     1.091856662383   110.22429024   193.19971147
 H     18   9   8     1.097798384986   110.17553735    69.14743858
 H     18   9   8     1.094686502512   108.26411665   186.75112791
 H     22  14  13     0.968042641390   110.19043979   352.75935690
 H     24  21   2     1.092117617089   111.21957482   326.28712714
 H     25  24  21     1.101560413236   108.66984565    74.78730388
 H     27  24  21     1.090661638097   109.74246939   175.98327991
 H     27  24  21     1.100610882385   108.69169809   295.52891331
 H     28  27  24     0.971653812518   106.25517362   311.79017652
 H     29  26  25     1.078197715053   118.52850306   356.91889108
 H     32  31  30     1.078342487298   118.59243259   178.58885506
 H     33  26  25     1.078907253885   119.95196679     1.55152192
 H     34  20   1     1.095179700715   111.64263909    63.84780812
 H     34  20   1     1.088721904498   105.51122739   182.41665928
 H     34  20   1     1.093572613638   111.44244537   301.07941922
 H     35  19   3     1.096163781013   111.59020421    64.86253815
 H     35  19   3     1.088436260600   105.14334076   183.49635549
 H     35  19   3     1.092945375376   111.52657119   301.67780222
 H     36  23  13     1.088958285279   105.55693800   172.44245172
 H     36  23  13     1.092301289766   111.42245350   290.75200451
 H     36  23  13     1.093952297982   111.12527757    54.06684271
 H     37  25  24     0.963591682842   108.44818129   177.45197378
 H     38  17   8     0.963806869221   108.42730777    66.54019601
 H     39  18   9     0.971277728444   106.28662103    77.77855569
 H     41  31  30     0.966803255910   107.66361692   359.71555266
 H     42  40  30     1.089215495258   105.76617784   177.47268658
 H     42  40  30     1.094346522991   111.53484277   296.17530742
 H     42  40  30     1.094015021493   110.83251636    58.72614976

---------------------------
INTERNAL COORDINATES (A.U.)
---------------------------
 C      0   0   0     0.000000000000     0.00000000     0.00000000
 C      1   0   0     2.651254534059     0.00000000     0.00000000
 C      2   1   0     2.650650410631   119.29087595     0.00000000
 C      3   2   1     2.623881654354   119.43464844     1.34702419
 C      4   3   2     2.617627564715   121.02772326   358.73669001
 C      5   4   3     2.618021941372   119.71600225     1.09099146
 C      5   4   3     2.837613259705   119.79276913   186.55810486
 C      7   5   4     2.919065885502   109.47740267    72.27017694
 C      8   7   5     2.921031448446   111.40965196    63.56517221
 C      9   8   7     2.908786196454   110.52657538   217.10479848
 C     10   9   8     2.842049135137   111.79380043    66.14785019
 C     11  10   9     2.633230395493   119.85279398    72.37864732
 C     12  11  10     2.612165897122   121.16062607   180.45561697
 C     13  12  11     2.658930524487   119.74041129     1.20980748
 C     14  13  12     2.617954189610   118.85687502   358.36911588
 C     11  10   9     2.615800196531   121.42300602   252.85472469
 C      8   7   5     2.908044233947   110.78860610   193.21418267
 C      9   8   7     2.910388477686   115.38420753    92.34777603
 O      3   2   1     2.581674122266   117.09779684   181.74097324
 O      1   2   3     2.575406075795   115.28585240   176.89791448
 O      2   1   3     2.596834373097   116.31428361   185.42403228
 O     14  13  12     2.559583693854   122.05370267   178.88744988
 O     13  12  11     2.598141414144   125.26816953   182.47693281
 C     21   2   1     2.682628444019   119.31984671   225.65783969
 C     24  21   2     2.919354398071   111.85378249    87.05421121
 C     25  24  21     2.852740234509   110.82318822   315.21920680
 C     24  21   2     2.897517861597   105.48975740   208.62090791
 O     27  24  21     2.647592624810   110.99514205    57.08874859
 C     26  25  24     2.633194324739   119.31989677   296.31397374
 C     29  26  25     2.608567981491   120.28920649   176.48540405
 C     30  29  26     2.655497888631   119.77006326     1.35584503
 C     31  30  29     2.613379165911   119.60459814     0.75370468
 C     26  25  24     2.614087021035   120.99837908   115.03358180
 C     20   1   2     2.659964596008   118.11845481   177.80467870
 C     19   3   2     2.658472809678   119.33099224   179.73883621
 C     23  13  12     2.663098807640   118.61643706     4.42672195
 O     25  24  21     2.675185628110   105.81499311   192.99501911
 O     17   8   7     2.672248687924   114.98967739   312.44294336
 O     18   9   8     2.651313037123   113.73695893   304.33071605
 O     30  29  26     2.603878380908   125.68427834   181.60254062
 O     31  30  29     2.568975005108   120.25931530   180.69957825
 C     40  30  29     2.655294325075   117.73905199     4.10415874
 H      4   3   2     2.037701934322   120.01295844   180.97093641
 H      6   5   4     2.036795446788   119.09099543   179.48233418
 H      7   5   4     2.068435220685   109.69719728   312.83359462
 H      7   5   4     2.061054944063   109.41708406   192.93443123
 H      8   7   5     2.069226403405   106.76890842   308.07252457
 H      9   8   7     2.065999445398   106.77368626   333.56867482
 H     10   9   8     2.063131026104   109.57319261   304.12898560
 H     10   9   8     2.064585403582   108.47009377   186.65246036
 H     12  11  10     2.038208416964   118.75581452     0.90348065
 H     15  14  13     2.039294046782   118.22385503   181.81031867
 H     16  11  10     2.041927266709   120.00296841   358.17609382
 H     17   8   7     2.076150584807   108.70938008    75.16763285
 H     17   8   7     2.063310069402   110.22429024   193.19971147
 H     18   9   8     2.074538297886   110.17553735    69.14743858
 H     18   9   8     2.068657692248   108.26411665   186.75112791
 H     22  14  13     1.829335478185   110.19043979   352.75935690
 H     24  21   2     2.063803202329   111.21957482   326.28712714
 H     25  24  21     2.081647500985   108.66984565    74.78730388
 H     27  24  21     2.061051800778   109.74246939   175.98327991
 H     27  24  21     2.079853147721   108.69169809   295.52891331
 H     28  27  24     1.836159602640   106.25517362   311.79017652
 H     29  26  25     2.037498399669   118.52850306   356.91889108
 H     32  31  30     2.037771979564   118.59243259   178.58885506
 H     33  26  25     2.038839233743   119.95196679     1.55152192
 H     34  20   1     2.069589701782   111.64263909    63.84780812
 H     34  20   1     2.057386235503   105.51122739   182.41665928
 H     34  20   1     2.066552747331   111.44244537   301.07941922
 H     35  19   3     2.071449344038   111.59020421    64.86253815
 H     35  19   3     2.056846446763   105.14334076   183.49635549
 H     35  19   3     2.065367438796   111.52657119   301.67780222
 H     36  23  13     2.057832930441   105.55693800   172.44245172
 H     36  23  13     2.064150293387   111.42245350   290.75200451
 H     36  23  13     2.067270246759   111.12527757    54.06684271
 H     37  25  24     1.820924385495   108.44818129   177.45197378
 H     38  17   8     1.821331028819   108.42730777    66.54019601
 H     39  18   9     1.835448906736   106.28662103    77.77855569
 H     41  31  30     1.826993379053   107.66361692   359.71555266
 H     42  40  30     2.058318986861   105.76617784   177.47268658
 H     42  40  30     2.068015224061   111.53484277   296.17530742
 H     42  40  30     2.067388777017   110.83251636    58.72614976

---------------------
BASIS SET INFORMATION
---------------------
There are 3 groups of distinct atoms

 Group   1 Type C   : 11s6p2d1f contracted to 5s3p2d1f pattern {62111/411/11/1}
 Group   2 Type O   : 11s6p2d1f contracted to 5s3p2d1f pattern {62111/411/11/1}
 Group   3 Type H   : 5s1p contracted to 3s1p pattern {311/1}

Atom   0C    basis set group =>   1
Atom   1C    basis set group =>   1
Atom   2C    basis set group =>   1
Atom   3C    basis set group =>   1
Atom   4C    basis set group =>   1
Atom   5C    basis set group =>   1
Atom   6C    basis set group =>   1
Atom   7C    basis set group =>   1
Atom   8C    basis set group =>   1
Atom   9C    basis set group =>   1
Atom  10C    basis set group =>   1
Atom  11C    basis set group =>   1
Atom  12C    basis set group =>   1
Atom  13C    basis set group =>   1
Atom  14C    basis set group =>   1
Atom  15C    basis set group =>   1
Atom  16C    basis set group =>   1
Atom  17C    basis set group =>   1
Atom  18O    basis set group =>   2
Atom  19O    basis set group =>   2
Atom  20O    basis set group =>   2
Atom  21O    basis set group =>   2
Atom  22O    basis set group =>   2
Atom  23C    basis set group =>   1
Atom  24C    basis set group =>   1
Atom  25C    basis set group =>   1
Atom  26C    basis set group =>   1
Atom  27O    basis set group =>   2
Atom  28C    basis set group =>   1
Atom  29C    basis set group =>   1
Atom  30C    basis set group =>   1
Atom  31C    basis set group =>   1
Atom  32C    basis set group =>   1
Atom  33C    basis set group =>   1
Atom  34C    basis set group =>   1
Atom  35C    basis set group =>   1
Atom  36O    basis set group =>   2
Atom  37O    basis set group =>   2
Atom  38O    basis set group =>   2
Atom  39O    basis set group =>   2
Atom  40O    basis set group =>   2
Atom  41C    basis set group =>   1
Atom  42H    basis set group =>   3
Atom  43H    basis set group =>   3
Atom  44H    basis set group =>   3
Atom  45H    basis set group =>   3
Atom  46H    basis set group =>   3
Atom  47H    basis set group =>   3
Atom  48H    basis set group =>   3
Atom  49H    basis set group =>   3
Atom  50H    basis set group =>   3
Atom  51H    basis set group =>   3
Atom  52H    basis set group =>   3
Atom  53H    basis set group =>   3
Atom  54H    basis set group =>   3
Atom  55H    basis set group =>   3
Atom  56H    basis set group =>   3
Atom  57H    basis set group =>   3
Atom  58H    basis set group =>   3
Atom  59H    basis set group =>   3
Atom  60H    basis set group =>   3
Atom  61H    basis set group =>   3
Atom  62H    basis set group =>   3
Atom  63H    basis set group =>   3
Atom  64H    basis set group =>   3
Atom  65H    basis set group =>   3
Atom  66H    basis set group =>   3
Atom  67H    basis set group =>   3
Atom  68H    basis set group =>   3
Atom  69H    basis set group =>   3
Atom  70H    basis set group =>   3
Atom  71H    basis set group =>   3
Atom  72H    basis set group =>   3
Atom  73H    basis set group =>   3
Atom  74H    basis set group =>   3
Atom  75H    basis set group =>   3
Atom  76H    basis set group =>   3
Atom  77H    basis set group =>   3
Atom  78H    basis set group =>   3
Atom  79H    basis set group =>   3
Atom  80H    basis set group =>   3
Atom  81H    basis set group =>   3
---------------------------------
AUXILIARY/J BASIS SET INFORMATION
---------------------------------
There are 3 groups of distinct atoms

 Group   1 Type C   : 12s5p4d2f1g contracted to 6s4p3d1f1g pattern {711111/2111/211/2/1}
 Group   2 Type O   : 12s5p4d2f1g contracted to 6s4p3d1f1g pattern {711111/2111/211/2/1}
 Group   3 Type H   : 5s2p1d contracted to 3s1p1d pattern {311/2/1}

Atom   0C    basis set group =>   1
Atom   1C    basis set group =>   1
Atom   2C    basis set group =>   1
Atom   3C    basis set group =>   1
Atom   4C    basis set group =>   1
Atom   5C    basis set group =>   1
Atom   6C    basis set group =>   1
Atom   7C    basis set group =>   1
Atom   8C    basis set group =>   1
Atom   9C    basis set group =>   1
Atom  10C    basis set group =>   1
Atom  11C    basis set group =>   1
Atom  12C    basis set group =>   1
Atom  13C    basis set group =>   1
Atom  14C    basis set group =>   1
Atom  15C    basis set group =>   1
Atom  16C    basis set group =>   1
Atom  17C    basis set group =>   1
Atom  18O    basis set group =>   2
Atom  19O    basis set group =>   2
Atom  20O    basis set group =>   2
Atom  21O    basis set group =>   2
Atom  22O    basis set group =>   2
Atom  23C    basis set group =>   1
Atom  24C    basis set group =>   1
Atom  25C    basis set group =>   1
Atom  26C    basis set group =>   1
Atom  27O    basis set group =>   2
Atom  28C    basis set group =>   1
Atom  29C    basis set group =>   1
Atom  30C    basis set group =>   1
Atom  31C    basis set group =>   1
Atom  32C    basis set group =>   1
Atom  33C    basis set group =>   1
Atom  34C    basis set group =>   1
Atom  35C    basis set group =>   1
Atom  36O    basis set group =>   2
Atom  37O    basis set group =>   2
Atom  38O    basis set group =>   2
Atom  39O    basis set group =>   2
Atom  40O    basis set group =>   2
Atom  41C    basis set group =>   1
Atom  42H    basis set group =>   3
Atom  43H    basis set group =>   3
Atom  44H    basis set group =>   3
Atom  45H    basis set group =>   3
Atom  46H    basis set group =>   3
Atom  47H    basis set group =>   3
Atom  48H    basis set group =>   3
Atom  49H    basis set group =>   3
Atom  50H    basis set group =>   3
Atom  51H    basis set group =>   3
Atom  52H    basis set group =>   3
Atom  53H    basis set group =>   3
Atom  54H    basis set group =>   3
Atom  55H    basis set group =>   3
Atom  56H    basis set group =>   3
Atom  57H    basis set group =>   3
Atom  58H    basis set group =>   3
Atom  59H    basis set group =>   3
Atom  60H    basis set group =>   3
Atom  61H    basis set group =>   3
Atom  62H    basis set group =>   3
Atom  63H    basis set group =>   3
Atom  64H    basis set group =>   3
Atom  65H    basis set group =>   3
Atom  66H    basis set group =>   3
Atom  67H    basis set group =>   3
Atom  68H    basis set group =>   3
Atom  69H    basis set group =>   3
Atom  70H    basis set group =>   3
Atom  71H    basis set group =>   3
Atom  72H    basis set group =>   3
Atom  73H    basis set group =>   3
Atom  74H    basis set group =>   3
Atom  75H    basis set group =>   3
Atom  76H    basis set group =>   3
Atom  77H    basis set group =>   3
Atom  78H    basis set group =>   3
Atom  79H    basis set group =>   3
Atom  80H    basis set group =>   3
Atom  81H    basis set group =>   3
--------------------------------------------------------------------------
WARNING: There is at least one non-excluded one OpenFabrics device found,
but there are no active ports detected (or Open MPI was unable to use
them).  This is most certainly not what you wanted.  Check your
cables, subnet manager configuration, etc.  The openib BTL will be
ignored for this job.

  Local host: c01b01n07
--------------------------------------------------------------------------
--------------------------------------------------------------------------
WARNING: There was an error initializing an OpenFabrics device.

  Local host:   c01b01n07
  Local device: mlx5_0
--------------------------------------------------------------------------


           ************************************************************
           *        Program running with 64 parallel MPI-processes    *
           *              working on a common directory               *
           ************************************************************
------------------------------------------------------------------------------
                             ORCA STARTUP CALCULATIONS
                           -- RI-GTO INTEGRALS CHOSEN --
------------------------------------------------------------------------------
------------------------------------------------------------------------------
                   ___                                                        
                  /   \      - P O W E R E D   B Y -                         
                 /     \                                                     
                 |  |  |   _    _      __       _____    __    __             
                 |  |  |  | |  | |    /  \     |  _  \  |  |  /  |          
                  \  \/   | |  | |   /    \    | | | |  |  | /  /          
                 / \  \   | |__| |  /  /\  \   | |_| |  |  |/  /          
                |  |  |   |  __  | /  /__\  \  |    /   |      \           
                |  |  |   | |  | | |   __   |  |    \   |  |\   \          
                \     /   | |  | | |  |  |  |  | |\  \  |  | \   \       
                 \___/    |_|  |_| |__|  |__|  |_| \__\ |__|  \__/        
                                                                              
                      - O R C A' S   B I G   F R I E N D -                    
                                      &                                       
                       - I N T E G R A L  F E E D E R -                       
                                                                              
 v1 FN, 2020, v2 2021, v3 2022-2024                                           
------------------------------------------------------------------------------


[c01b01n07:1835406] 3 more processes have sent help message help-mpi-btl-openib.txt / no active ports found
[c01b01n07:1835406] Set MCA parameter "orte_base_help_aggregate" to 0 to see all help / error messages
[c01b01n07:1835406] 59 more processes have sent help message help-mpi-btl-openib.txt / error in device init
----------------------
SHARK INTEGRAL PACKAGE
----------------------

Number of atoms                             ...     82
Number of basis functions                   ...   1542
Number of shells                            ...    622
Maximum angular momentum                    ...      3
Integral batch strategy                     ... SHARK/LIBINT Hybrid
RI-J (if used) integral strategy            ... SPLIT-RIJ (Revised 2003 algorithm where possible)
Printlevel                                  ...      1
Contraction scheme used                     ... SEGMENTED contraction
Prescreening option                         ... SCHWARTZ
   Thresh                                   ... 2.500e-11
   Tcut                                     ... 2.500e-12
   Tpresel                                  ... 2.500e-12 
Coulomb Range Separation                    ... NOT USED
Exchange Range Separation                   ... NOT USED
Multipole approximations                    ... NOT USED
Finite Nucleus Model                        ... NOT USED
CABS basis                                  ... NOT available
Auxiliary Coulomb fitting basis             ... AVAILABLE
   # of basis functions in Aux-J            ...   2498
   # of shells in Aux-J                     ...    830
   Maximum angular momentum in Aux-J        ...      4
Auxiliary J/K fitting basis                 ... NOT available
Auxiliary Correlation fitting basis         ... NOT available
Auxiliary 'external' fitting basis          ... NOT available

Checking pre-screening integrals            ... done (  1.0 sec) Dimension = 622
   => SHARK Basis and OBASIS are compatible. Storing Pre-screening
Shell pair information
Shell pair cut-off parameter TPreSel        ...   2.5e-12
Total number of shell pairs                 ...    193753
Shell pairs after pre-screening             ...    120515
Total number of primitive shell pairs       ...    584784
Primitive shell pairs kept                  ...    227861
          la=0 lb=0:  33535 shell pairs
          la=1 lb=0:  35937 shell pairs
          la=1 lb=1:   9687 shell pairs
          la=2 lb=0:  16358 shell pairs
          la=2 lb=1:   8936 shell pairs
          la=2 lb=2:   2060 shell pairs
          la=3 lb=0:   7499 shell pairs
          la=3 lb=1:   4208 shell pairs
          la=3 lb=2:   1837 shell pairs
          la=3 lb=3:    458 shell pairs

Checking whether 4 symmetric matrices of dimension 1542 fit in memory
:Max Core in MB      =   6000.00
 MB in use           =    144.36
 MB left             =   5855.64
 MB needed           =     36.31
 Data fit in memory  = YES
Calculating RI/J V-Matrix + Cholesky decomp.... done (  3.8 sec)
Calculating Nuclear repulsion               ... done (  0.1 sec) ENN=   5896.860256519077 Eh

Diagonalization of the overlap matrix:
Smallest eigenvalue                        ... 2.335e-06
Time for diagonalization                   ...   54.970 sec
Threshold for overlap eigenvalues          ... 1.000e-07
Number of eigenvalues below threshold      ... 0
Time for construction of square roots      ...    3.072 sec
Total time needed                          ...   58.490 sec

-------------------
DFT GRID GENERATION
-------------------

General Integration Accuracy     IntAcc      ... 4.388
Radial Grid Type                 RadialGrid  ... OptM3 with GC (2021)
Angular Grid (max. ang.)         AngularGrid ... 4 (Lebedev-302)
Angular grid pruning method      GridPruning ... 4 (adaptive)
Weight generation scheme         WeightScheme... mBecke (2022)
Basis function cutoff            BFCut       ... 1.0000e-11
Integration weight cutoff        WCut        ... 1.0000e-14
Partially contracted basis set               ... off
Rotationally invariant grid construction     ... off
Angular grids for H and He will be reduced by one unit

Total number of grid points                  ...   373248
Total number of batches                      ...     5870
Average number of points per batch           ...       63
Average number of grid points per atom       ...     4552

--------------------
COSX GRID GENERATION
--------------------

GRIDX 1
-------
General Integration Accuracy     IntAcc      ... 3.816
Radial Grid Type                 RadialGrid  ... OptM3 with GC (2021)
Angular Grid (max. ang.)         AngularGrid ... 1 (Lebedev-50)
Angular grid pruning method      GridPruning ... 4 (adaptive)
Weight generation scheme         WeightScheme... mBecke (2022)
Basis function cutoff            BFCut       ... 1.0000e-11
Integration weight cutoff        WCut        ... 1.0000e-14
Partially contracted basis set               ... on
Rotationally invariant grid construction     ... off
Angular grids for H and He will be reduced by one unit

Total number of grid points                  ...    47229
Total number of batches                      ...      414
Average number of points per batch           ...      114
Average number of grid points per atom       ...      576
UseSFitting                                  ... on

GRIDX 2
-------
General Integration Accuracy     IntAcc      ... 4.020
Radial Grid Type                 RadialGrid  ... OptM3 with GC (2021)
Angular Grid (max. ang.)         AngularGrid ... 2 (Lebedev-110)
Angular grid pruning method      GridPruning ... 4 (adaptive)
Weight generation scheme         WeightScheme... mBecke (2022)
Basis function cutoff            BFCut       ... 1.0000e-11
[...]
freq.     649.08  E(vib)   ...       0.08 
freq.     655.20  E(vib)   ...       0.08 
freq.     660.73  E(vib)   ...       0.08 
freq.     676.22  E(vib)   ...       0.08 
freq.     713.75  E(vib)   ...       0.07 
freq.     738.11  E(vib)   ...       0.06 
freq.     744.29  E(vib)   ...       0.06 
freq.     744.41  E(vib)   ...       0.06 
freq.     757.52  E(vib)   ...       0.06 
freq.     758.12  E(vib)   ...       0.06 
freq.     763.69  E(vib)   ...       0.06 
freq.     806.50  E(vib)   ...       0.05 
freq.     809.64  E(vib)   ...       0.05 
freq.     820.81  E(vib)   ...       0.05 
freq.     833.20  E(vib)   ...       0.04 
freq.     836.22  E(vib)   ...       0.04 
freq.     849.52  E(vib)   ...       0.04 
freq.     851.94  E(vib)   ...       0.04 
freq.     878.12  E(vib)   ...       0.04 
freq.     888.21  E(vib)   ...       0.04 
freq.     893.13  E(vib)   ...       0.03 
freq.     909.79  E(vib)   ...       0.03 
freq.     911.74  E(vib)   ...       0.03 
freq.     917.86  E(vib)   ...       0.03 
freq.     934.62  E(vib)   ...       0.03 
freq.     943.75  E(vib)   ...       0.03 
freq.     946.95  E(vib)   ...       0.03 
freq.     947.18  E(vib)   ...       0.03 
freq.     957.67  E(vib)   ...       0.03 
freq.     983.70  E(vib)   ...       0.02 
freq.     996.77  E(vib)   ...       0.02 
freq.    1003.03  E(vib)   ...       0.02 
freq.    1011.78  E(vib)   ...       0.02 
freq.    1034.87  E(vib)   ...       0.02 
freq.    1040.32  E(vib)   ...       0.02 
freq.    1045.67  E(vib)   ...       0.02 
freq.    1047.78  E(vib)   ...       0.02 
freq.    1050.40  E(vib)   ...       0.02 
freq.    1056.84  E(vib)   ...       0.02 
freq.    1063.33  E(vib)   ...       0.02 
freq.    1069.30  E(vib)   ...       0.02 
freq.    1074.63  E(vib)   ...       0.02 
freq.    1103.43  E(vib)   ...       0.02 
freq.    1104.86  E(vib)   ...       0.02 
freq.    1125.09  E(vib)   ...       0.01 
freq.    1139.22  E(vib)   ...       0.01 
freq.    1142.85  E(vib)   ...       0.01 
freq.    1150.38  E(vib)   ...       0.01 
freq.    1168.90  E(vib)   ...       0.01 
freq.    1169.23  E(vib)   ...       0.01 
freq.    1170.98  E(vib)   ...       0.01 
freq.    1171.89  E(vib)   ...       0.01 
freq.    1172.27  E(vib)   ...       0.01 
freq.    1175.06  E(vib)   ...       0.01 
freq.    1183.34  E(vib)   ...       0.01 
freq.    1186.51  E(vib)   ...       0.01 
freq.    1199.03  E(vib)   ...       0.01 
freq.    1200.49  E(vib)   ...       0.01 
freq.    1207.09  E(vib)   ...       0.01 
freq.    1209.13  E(vib)   ...       0.01 
freq.    1214.07  E(vib)   ...       0.01 
freq.    1218.06  E(vib)   ...       0.01 
freq.    1219.76  E(vib)   ...       0.01 
freq.    1222.63  E(vib)   ...       0.01 
freq.    1238.98  E(vib)   ...       0.01 
freq.    1243.92  E(vib)   ...       0.01 
freq.    1245.35  E(vib)   ...       0.01 
freq.    1251.00  E(vib)   ...       0.01 
freq.    1251.16  E(vib)   ...       0.01 
freq.    1252.69  E(vib)   ...       0.01 
freq.    1276.71  E(vib)   ...       0.01 
freq.    1288.08  E(vib)   ...       0.01 
freq.    1289.87  E(vib)   ...       0.01 
freq.    1293.60  E(vib)   ...       0.01 
freq.    1295.31  E(vib)   ...       0.01 
freq.    1302.34  E(vib)   ...       0.01 
freq.    1319.21  E(vib)   ...       0.01 
freq.    1323.92  E(vib)   ...       0.01 
freq.    1347.17  E(vib)   ...       0.01 
freq.    1351.21  E(vib)   ...       0.01 
freq.    1354.46  E(vib)   ...       0.01 
freq.    1360.09  E(vib)   ...       0.01 
freq.    1365.97  E(vib)   ...       0.01 
freq.    1370.19  E(vib)   ...       0.01 
freq.    1372.78  E(vib)   ...       0.01 
freq.    1382.67  E(vib)   ...       0.01 
freq.    1383.77  E(vib)   ...       0.00 
freq.    1394.92  E(vib)   ...       0.00 
freq.    1401.47  E(vib)   ...       0.00 
freq.    1404.69  E(vib)   ...       0.00 
freq.    1407.42  E(vib)   ...       0.00 
freq.    1416.56  E(vib)   ...       0.00 
freq.    1417.96  E(vib)   ...       0.00 
freq.    1431.12  E(vib)   ...       0.00 
freq.    1445.24  E(vib)   ...       0.00 
freq.    1454.10  E(vib)   ...       0.00 
freq.    1460.67  E(vib)   ...       0.00 
freq.    1469.58  E(vib)   ...       0.00 
freq.    1478.32  E(vib)   ...       0.00 
freq.    1478.66  E(vib)   ...       0.00 
freq.    1479.02  E(vib)   ...       0.00 
freq.    1480.70  E(vib)   ...       0.00 
freq.    1480.88  E(vib)   ...       0.00 
freq.    1482.36  E(vib)   ...       0.00 
freq.    1483.61  E(vib)   ...       0.00 
freq.    1483.90  E(vib)   ...       0.00 
freq.    1484.90  E(vib)   ...       0.00 
freq.    1489.45  E(vib)   ...       0.00 
freq.    1491.93  E(vib)   ...       0.00 
freq.    1492.45  E(vib)   ...       0.00 
freq.    1492.93  E(vib)   ...       0.00 
freq.    1493.49  E(vib)   ...       0.00 
freq.    1494.65  E(vib)   ...       0.00 
freq.    1496.19  E(vib)   ...       0.00 
freq.    1501.60  E(vib)   ...       0.00 
freq.    1537.80  E(vib)   ...       0.00 
freq.    1541.90  E(vib)   ...       0.00 
freq.    1541.96  E(vib)   ...       0.00 
freq.    1630.77  E(vib)   ...       0.00 
freq.    1639.70  E(vib)   ...       0.00 
freq.    1642.73  E(vib)   ...       0.00 
freq.    1644.75  E(vib)   ...       0.00 
freq.    1647.91  E(vib)   ...       0.00 
freq.    1650.39  E(vib)   ...       0.00 
freq.    2987.89  E(vib)   ...       0.00 
freq.    2988.03  E(vib)   ...       0.00 
freq.    3005.98  E(vib)   ...       0.00 
freq.    3014.18  E(vib)   ...       0.00 
freq.    3016.96  E(vib)   ...       0.00 
freq.    3017.71  E(vib)   ...       0.00 
freq.    3025.05  E(vib)   ...       0.00 
freq.    3025.53  E(vib)   ...       0.00 
freq.    3028.24  E(vib)   ...       0.00 
freq.    3031.23  E(vib)   ...       0.00 
freq.    3037.55  E(vib)   ...       0.00 
freq.    3045.47  E(vib)   ...       0.00 
freq.    3054.78  E(vib)   ...       0.00 
freq.    3067.21  E(vib)   ...       0.00 
freq.    3078.79  E(vib)   ...       0.00 
freq.    3083.40  E(vib)   ...       0.00 
freq.    3086.74  E(vib)   ...       0.00 
freq.    3091.47  E(vib)   ...       0.00 
freq.    3094.56  E(vib)   ...       0.00 
freq.    3103.53  E(vib)   ...       0.00 
freq.    3103.79  E(vib)   ...       0.00 
freq.    3116.82  E(vib)   ...       0.00 
freq.    3133.38  E(vib)   ...       0.00 
freq.    3139.16  E(vib)   ...       0.00 
freq.    3142.97  E(vib)   ...       0.00 
freq.    3145.36  E(vib)   ...       0.00 
freq.    3168.57  E(vib)   ...       0.00 
freq.    3176.17  E(vib)   ...       0.00 
freq.    3185.27  E(vib)   ...       0.00 
freq.    3190.79  E(vib)   ...       0.00 
freq.    3200.63  E(vib)   ...       0.00 
freq.    3209.76  E(vib)   ...       0.00 
freq.    3210.81  E(vib)   ...       0.00 
freq.    3213.40  E(vib)   ...       0.00 
freq.    3591.72  E(vib)   ...       0.00 
freq.    3697.88  E(vib)   ...       0.00 
freq.    3720.02  E(vib)   ...       0.00 
freq.    3743.62  E(vib)   ...       0.00 
freq.    3771.00  E(vib)   ...       0.00 
freq.    3787.70  E(vib)   ...       0.00 

------------
INNER ENERGY
------------

The inner energy is: U= E(el) + E(ZPE) + E(vib) + E(rot) + E(trans)
    E(el)   - is the total energy from the electronic structure calculation
              = E(kin-el) + E(nuc-el) + E(el-el) + E(nuc-nuc)
    E(ZPE)  - the the zero temperature vibrational energy from the frequency calculation
    E(vib)  - the the finite temperature correction to E(ZPE) due to population
              of excited vibrational states
    E(rot)  - is the rotational thermal energy
    E(trans)- is the translational thermal energy

Summary of contributions to the inner energy U:
Electronic energy                ...  -2032.63862575 Eh
Zero point energy                ...      0.67935366 Eh     426.30 kcal/mol
Thermal vibrational correction   ...      0.04008401 Eh      25.15 kcal/mol
Thermal rotational correction    ...      0.00141627 Eh       0.89 kcal/mol
Thermal translational correction ...      0.00141627 Eh       0.89 kcal/mol
-----------------------------------------------------------------------
Total thermal energy                  -2031.91635554 Eh


Summary of corrections to the electronic energy:
(perhaps to be used in another calculation)
Total thermal correction                  0.04291655 Eh      26.93 kcal/mol
Non-thermal (ZPE) correction              0.67935366 Eh     426.30 kcal/mol
-----------------------------------------------------------------------
Total correction                          0.72227021 Eh     453.23 kcal/mol


--------
ENTHALPY
--------

The enthalpy is H = U + kB*T
                kB is Boltzmann's constant
Total thermal energy              ...  -2031.91635554 Eh 
Thermal Enthalpy correction       ...      0.00094421 Eh       0.59 kcal/mol
-----------------------------------------------------------------------
Total Enthalpy                    ...  -2031.91541133 Eh


Note: Only C1 symmetry has been detected, increase convergence thresholds 
      if your molecule has a higher symmetry. Symmetry factor of 1.0 is   
      used for the rotational entropy correction. 
 

Note: Rotational entropy computed according to Herzberg 
Infrared and Raman Spectra, Chapter V,1, Van Nostrand Reinhold, 1945 
Point Group:  C1, Symmetry Number:   1  
Rotational constants in cm-1:     0.003508     0.002671     0.001975 

Vibrational entropy computed according to the QRRHO of S. Grimme
Chem.Eur.J. 2012 18 9955 using a reference frequency of 100.0 cm-1


-------
ENTROPY
-------

The entropy contributions are T*S = T*(S(el)+S(vib)+S(rot)+S(trans))
     S(el)   - electronic entropy
     S(vib)  - vibrational entropy
     S(rot)  - rotational entropy
     S(trans)- translational entropy
The entropies will be listed as multiplied by the temperature to get
units of energy

Electronic entropy                ...      0.00000000 Eh      0.00 kcal/mol
Vibrational entropy               ...      0.07148212 Eh     44.86 kcal/mol
Rotational entropy                ...      0.01791658 Eh     11.24 kcal/mol
Translational entropy             ...      0.02138181 Eh     13.42 kcal/mol
-----------------------------------------------------------------------
Final entropy term                ...      0.11078051 Eh     69.52 kcal/mol

In case the symmetry of your molecule has not been determined correctly
or in case you have a reason to use a different symmetry number we print 
out the resulting rotational entropy values for sn=1,12:

 non-linear molecules -----------------------------------
|  sn= 1 | S(rot)=       0.01791658 Eh     11.24 kcal/mol|
|  sn= 2 | S(rot)=       0.01726212 Eh     10.83 kcal/mol|
|  sn= 3 | S(rot)=       0.01687929 Eh     10.59 kcal/mol|
|  sn= 4 | S(rot)=       0.01660767 Eh     10.42 kcal/mol|
|  sn= 5 | S(rot)=       0.01639698 Eh     10.29 kcal/mol|
|  sn= 6 | S(rot)=       0.01622483 Eh     10.18 kcal/mol|
|  sn= 7 | S(rot)=       0.01607929 Eh     10.09 kcal/mol|
|  sn= 8 | S(rot)=       0.01595321 Eh     10.01 kcal/mol|
|  sn= 9 | S(rot)=       0.01584200 Eh      9.94 kcal/mol|
|  sn=10 | S(rot)=       0.01574252 Eh      9.88 kcal/mol|
|  sn=11 | S(rot)=       0.01565253 Eh      9.82 kcal/mol|
|  sn=12 | S(rot)=       0.01557038 Eh      9.77 kcal/mol|
 linear molecules ---------------------------------------
|  Dinfh | S(rot)=       0.01120544 Eh      7.03 kcal/mol|
|  Cinfv | S(rot)=       0.01185990 Eh      7.44 kcal/mol|
 --------------------------------------------------------


-------------------
GIBBS FREE ENERGY
-------------------

The Gibbs free energy is G = H - T*S

Total enthalpy                    ...  -2031.91541133 Eh 
Total entropy correction          ...     -0.11078051 Eh    -69.52 kcal/mol
-----------------------------------------------------------------------
Final Gibbs free energy         ...  -2032.02619185 Eh

For completeness - the Gibbs free energy minus the electronic energy
G-E(el)                           ...      0.61243391 Eh    384.31 kcal/mol


Maximum memory used throughout the entire PROP-calculation: 1827.5 MB
--------------------------------------------------------------------------
WARNING: There was an error initializing an OpenFabrics device.

  Local host:   c01b01n07
  Local device: mlx5_0
--------------------------------------------------------------------------
--------------------------------------------------------------------------
WARNING: There is at least one non-excluded one OpenFabrics device found,
but there are no active ports detected (or Open MPI was unable to use
them).  This is most certainly not what you wanted.  Check your
cables, subnet manager configuration, etc.  The openib BTL will be
ignored for this job.

  Local host: c01b01n07
--------------------------------------------------------------------------
[c01b01n07:1983471] 58 more processes have sent help message help-mpi-btl-openib.txt / error in device init
[c01b01n07:1983471] Set MCA parameter "orte_base_help_aggregate" to 0 to see all help / error messages
[c01b01n07:1983471] 4 more processes have sent help message help-mpi-btl-openib.txt / no active ports found

--------------------------------
SUGGESTED CITATIONS FOR THIS RUN
--------------------------------

Below you find a list of papers that are relevant to this ORCA run
We neither can nor want to force you to cite these papers, but we appreciate if you do
You receive ORCA, which is the product of decades of hard work by many enthusiastic individuals, for free
The only thing we kindly ask in return is that you cite our papers,
We deeply appreciate it, if you show your appreciation for ORCA by not just citing the generic ORCA reference.

Please note that relegating all ORCA citations to the supporting information does *not* help us.
SI sections are not indexed - citations you put there will not count into any citation statistics
But we need these citations in order to attract the funding resources that allow us to do what we are doing

Therefore, if you are a happy ORCA user, please consider citing a few of the papers listed below in the main body of your paper

In addition to the list printed below, the program has created the file opt-conf-10.bibtex that contains the list in bibtex format
You can import this file easily into all common literature databanks and citation aid programs


List of essential papers. We consider these as the minimum necessary citations

  1. Neese, F.
     Software update: the ORCA program system, version 6.0
     WIRES Comput. Molec. Sci. 2025 15(1), e70019
     doi.org/10.1002/wcms.7019

List of papers to cite with high priority. The work reported in these papers was absolutely
necessary for this run to complete.
Our perspective: the developers of density functionals and basis sets usually get cited in chemistry papers
Good! But without the algorithms to do something with them, the functionals or basis sets would not do anything.
Hence, in our opinion, the algorithm design and method developments papers are equally worthy of getting cited

  1. Neese, F.
     An improvement of the resolution of the identity approximation for the formation of the Coulomb matrix
     J. Comp. Chem. 2003 24(14), 1740-1747
     doi.org/10.1002/jcc.10318
  2. Neese, F.; Wennmohs, F.; Hansen, A.; Becker, U.
     Efficient, approximate and parallel Hartree-Fock and hybrid DFT calculations. A 'chain-of-spheres' algorithm for the Hartree-Fock exchange
     Chem. Phys. 2009 356(1-3), 98-109
     doi.org/10.1016/j.chemphys.2008.10.036
  3. Bykov, D.; Petrenko, T.; Izsak, R.; Kossmann, S.; Becker, U.; Valeev, E.; Neese, F.
     Efficient implementation of the analytic second derivatives of Hartree-Fock and hybrid DFT energies: a detailed analysis of different approximations
     Molec. Phys. 2015 113 , 1961-1977
     doi.org/10.1080/00268976.2015.1025114
  4. Caldeweyher, E.; Bannwarth, C.; Grimme, S.
     Extension of the D3 dispersion coefficient model
     J. Chem. Phys. 2017 147 , 034112
     doi.org/10.1063/1.4993215
  5. Caldeweyher, E.; Ehlert, S.; Hansen, A.; Neugebauer, H.; Spicher, S.; Bannwarth, C.; Grimme, S.
     A generally applicable atomic-charge dependent London dispersion correction
     J. Chem. Phys. 2019 150 , 154122
     doi.org/10.1063/1.5090222
  6. Garcia-Rates, M.; Neese, F.
     Efficient implementation of the analytical second derivatives of hartree-fock and hybrid DFT energies within the framework of the conductor-like polarizable continuum model
     J. Comput. Chem. 2019 40 , 1816-1828
     doi.org/10.1002/jcc.25833
  7. Caldeweyher, E.; Mewes, J.; Ehlert, S.; Grimme, S.
     Extension and evaluation of the D4 London-dispersion model for periodic systems
     Phys. Chem. Chem. Phys. 2020 22(16), 8499-8512
     doi.org/10.1039/D0CP00502A
  8. Garcia-Rates, M.; Neese, F.
     Effect of the Solute Cavity on the Solvation Energy and its Derivatives within the Framework of the Gaussian Charge Scheme
     J. Comput. Chem. 2020 41 , 922-939
     doi.org/10.1002/jcc.26139
  9. Helmich-Paris, B.; de Souza, B.; Neese, F.; Izsák, R.
     An improved chain of spheres for exchange algorithm
     J. Chem. Phys. 2021 155(10), 104109
     doi.org/10.1063/5.0058766
 10. Neese, F.
     The SHARK Integral Generation and Digestion System
     J. Comp. Chem. 2022 44(3), 381
     doi.org/10.1002/jcc.26942
 11. Wittmann, L.; Gordiy, I.; Friede, M.; Helmich-Paris, B.; Grimme, S.; Hansen, A.; Bursch, M.
     Extension of the D3 and D4 London Dispersion Corrections to the full Actinides Series
     Phys. Chem. Chem. Phys. 2024 26(32), 21379-21394
     doi.org/10.1039/D4CP01514B

List of suggested additional citations. These are papers that are important in the 'surrounding' of 
of this run, or papers that preceded the highly important papers. If you like your results we are grateful for a citation.

  1. Izsak, R.; Neese, F.
     An overlap fitted chain of spheres exchange method
     J. Chem. Phys. 2011 135 , 144105
     doi.org/10.1063/1.3646921
  2. Izsak, R.; Hansen, A.; Neese, F.
     The resolution of identity and chain of spheres approximations for the LPNO-CCSD singles Fock term
     Molec. Phys. 2012 110 , 2413-2417
     doi.org/10.1080/00268976.2012.687466
  3. Neese, F.
     The ORCA program system
     WIRES Comput. Molec. Sci. 2012 2(1), 73-78
     doi.org/10.1002/wcms.81
  4. Izsak, R.; Neese, F.; Klopper, W.
     Robust fitting techniques in the chain of spheres approximation to the Fock exchange: The role of the complementary space
     J. Chem. Phys. 2013 139 , 
     doi.org/10.1063/1.4819264
  5. Neese, F.
     Software update: the ORCA program system, version 4.0
     WIRES Comput. Molec. Sci. 2018 8(1), 1-6
     doi.org/10.1002/wcms.1327
  6. Neese, F.; Wennmohs, F.; Becker, U.; Riplinger, C.
     The ORCA quantum chemistry program package
     J. Chem. Phys. 2020 152(22), 224108
     doi.org/10.1063/5.0004608
  7. Neese, F.
     Software update: The ORCA program system—Version 5.0
     WIRES Comput. Molec. Sci. 2022 12(1), e1606
     doi.org/10.1002/wcms.1606

List of optional additional citations

  1. Neese, F.
     Approximate second-order SCF convergence for spin unrestricted wavefunctions
     Chem. Phys. Lett. 2000 325(1-3), 93-98
     doi.org/10.1016/s0009-2614(00)00662-x

Timings for individual modules:

Sum of individual times          ...    30662.494 sec (= 511.042 min)
Startup calculation              ...     2912.778 sec (=  48.546 min)   9.5 %
SCF iterations                   ...    18098.132 sec (= 301.636 min)  59.0 %
Property integrals               ...     2563.638 sec (=  42.727 min)   8.4 %
SCF Response                     ...     4644.993 sec (=  77.417 min)  15.1 %
Property calculations            ...     1027.784 sec (=  17.130 min)   3.4 %
SCF Gradient evaluation          ...     1404.741 sec (=  23.412 min)   4.6 %
Geometry relaxation              ...       10.429 sec (=   0.174 min)   0.0 %
                             ****ORCA TERMINATED NORMALLY****
TOTAL RUN TIME: 0 days 8 hours 39 minutes 18 seconds 333 msec
