
                                 *****************
                                 * O   R   C   A *
                                 *****************

                                            #,                                       
                                            ###                                      
                                            ####                                     
                                            #####                                    
                                            ######                                   
                                           ########,                                 
                                     ,,################,,,,,                         
                               ,,#################################,,                 
                          ,,##########################################,,             
                       ,#########################################, ''#####,          
                    ,#############################################,,   '####,        
                  ,##################################################,,,,####,       
                ,###########''''           ''''###############################       
              ,#####''   ,,,,##########,,,,          '''####'''          '####       
            ,##' ,,,,###########################,,,                        '##       
           ' ,,###''''                  '''############,,,                           
         ,,##''                                '''############,,,,        ,,,,,,###''
      ,#''                                            '''#######################'''  
     '                                                          ''''####''''         
             ,#######,   #######,   ,#######,      ##                                
            ,#'     '#,  ##    ##  ,#'     '#,    #''#        ,####,    ,#,          
            ##       ##  ##   ,#'  ##            #'  '#       #'       ,# #          
            ##       ##  #######   ##           ,######,      #####,      #          
            '#,     ,#'  ##    ##  '#,     ,#' ,#      #,     #,   #      #          
             '#######'   ##     ##  '#######'  #'      '#     '####' #    #          



                #########################################################
                #                        -***-                          #
                #          Department of theory and spectroscopy        #
                #                                                       #
                #                      Frank Neese                      #
                #                                                       #
                #     Directorship, Architecture, Infrastructure        #
                #                    SHARK, DRIVERS                     #
                #        Core code/Algorithms in most modules           #
                #                                                       #
                #        Max Planck Institute fuer Kohlenforschung      #
                #                Kaiser Wilhelm Platz 1                 #
                #                 D-45470 Muelheim/Ruhr                 #
                #                      Germany                          #
                #                                                       #
                #                  All rights reserved                  #
                #                        -***-                          #
                #########################################################


                         Program Version 6.1.0-f.0  -   RELEASE   -


 With contributions from (in alphabetic order):
[Max-Planck-Institut fuer Kohlenforschung]                               
  Daniel Aravena         : Magnetic Suceptibility                        
  Michael Atanasov       : Ab Initio Ligand Field Theory (pilot matlab implementation)
  Alexander A. Auer      : GIAO ZORA, VPT2 properties, NMR spectrum      
  Ute Becker             : All parallelization in ORCA, NUMFREQ, NUMCALC 
  Giovanni Bistoni       : ED, misc. LED, open-shell LED, HFLD           
  Dmytro Bykov           : pre 5.0 version of the SCF Hessian            
  Marcos Casanova-Páez   : Triplet and SCS-CIS(D). UHF-(DLPNO)-IP/EA/STEOM-CCSD. UHF-CVS-IP/STEOM-CCSD   
  Vijay G. Chilkuri      : MRCI spin determinant printing, contributions to CSF-ICE 
  Pauline Colinet        : FMM embedding                                 
  Dipayan Datta          : RHF DLPNO-CCSD density                        
  Achintya Kumar Dutta   : EOM-CC, STEOM-CC                              
  Nicolas Foglia         : Exact transition moments, OPA infrastructure, MCD improvements    
  Dmitry Ganyushin       : Spin-Orbit,Spin-Spin,Magnetic field MRCI      
  Miquel Garcia-Rates    : C-PCM and meta-GGA Hessian, CCSD/C-PCM, Gaussian charge scheme 
  Tiago L. C. Gouveia    : GS-ROHF, GS-ROCIS                             
  Yang Guo               : DLPNO-NEVPT2, F12-NEVPT2, CIM, IAO-localization        
  Andreas Hansen         : Spin unrestricted coupled pair/coupled cluster methods 
  Ingolf Harden          : AUTO-CI MPn and infrastructure                
  Benjamin Helmich-Paris : MC-RPA, TRAH-(SCF,CASSCF), AVAS, COSX integrals, SCF dyn. polar., MC-PDFT, srDFT 
  Lee Huntington         : MR-EOM, pCC                                   
  Robert Izsak           : Overlap fitted RIJCOSX, COSX-SCS-MP3, EOM     
  Riya Kayal             : Wick's Theorem for AUTO-CI, AUTO-CI UHF-CCSDT 
  Emily Kempfer          : AUTO-CI RHF CISDT and CCSDT, approximate NEVPT4
  Christian Kollmar      : KDIIS, OOCD, Brueckner-CCSD(T), CCSD density, CASPT2, CASPT2-K, improved NEVPT2 
  Axel Koslowski         : Symmetry handling                             
  Simone Kossmann        : meta-GGA functionals, TD-DFT gradient, OOMP2, (MP2 Hessian; deprecated post 5.0) 
  Lucas Lang             : DCDCAS, Hyperfine gauge corrections, ICE-SOC+SSC
  Marvin Lechner         : AUTO-CI (C++ implementation), FIC-MRCC        
  Spencer Leger          : CASSCF response                               
  Dagmar Lenk            : GEPOL surface, SMD, ORCA-2-JSON               
  Dimitrios Liakos       : Extrapolation schemes; Compound Job, Property file
  Dimitrios Manganas     : Further ROCIS development; embedding schemes. LFT, Crystal Embedding 
  Dimitrios Pantazis     : SARC Basis sets                               
  Anastasios Papadopoulos: AUTO-CI, single reference methods and gradients 
  Taras Petrenko         : pre 6.0 DFT Hessian and TD-DFT gradient,  ECA, NRVS 
  Petra Pikulova         : Analytic Raman intensities                    
  Peter Pinski           : DLPNO-MP2, DLPNO-MP2 Gradient                 
  Shashank Vittal Rao    : ES-AILFT, MagRelax                            
  Christoph Reimann      : Effective Core Potentials                     
  Marius Retegan         : Local ZFS, SOC                                
  Christoph Riplinger    : Optimizer, TS searches, QM/MM, DLPNO-CCSD(T), (RO)-DLPNO pert. Triples 
  Michael Roemelt        : Original ROCIS implementation, recursive CI coupling coefficients
  Masaaki Saitow         : Open-shell DLPNO-CCSD energy and density      
  Barbara Sandhoefer     : DKH picture change effects                    
  Yorick L. A. Schmerwitz: GMF and freeze-and-release deltaSCF, NEB S-IDPP initial path                    
  Kantharuban Sivalingam : CASSCF convergence/infrastructure, NEVPT2, NEVPT3, NEVPT4(SD), FIC-MRCI and CEPA variants
  Bernardo de Souza      : ESD, SOC TD-DFT                               
  Georgi L. Stoychev     : AutoAux, RI-MP2 NMR, DLPNO-MP2 response, X2C  
  Van Anh Tran           : RI-MP2 g-tensors                              
  Willem Van den Heuvel  : Paramagnetic NMR                              
  Zikuan Wang            : NOTCH, Electric field optimization            
  Frank Wennmohs         : Technical directorship and infrastructure     
  Hang Xu                : AUTO-CI-Response properties                   
                                                                         
[FACCTs GmbH]                                                            
  Markus Bursch, Nicolas Foglia, Miquel Garcia-Rates, Ingolf Harden, Hagen Neugebauer, Anastasios Papadopoulos, 
  Christoph Riplinger, Bernardo de Souza, Georgi L. Stoychev                                                    
                                                                 
  APM, various basis sets, CI-OPT, improved COSX, DLPNO-Multilevel,           
  DOCKER, DRACO, updates on ESD, Fragmentator, GOAT, IRC, LR-CPCM, L-BFGS, MBIS, meta-GGA TD-DFT gradient, ML-optimized integration grids, 
  MM, NACMEs, nearIR, NEB, NEB-TS, NL-DFT gradient (VV10), 2- and 3-layer-ONIOM, interface openCOSMO-RS, QMMM,   
  Crystal-QMMM, RESP, rigid body optimization, SF, symmetry and pop. for TD-DFT, various functionals, SOLVATOR                                   
                                                                         
[Other institutions]                                                     
  V. Asgeirsson          : NEB                                           
  Christoph Bannwarth    : sTDA-DFT, sTD-DFT, PBEh-3c, B97-3c, D3        
  Giovanni Bistoni       : ETS/NOCV, ADLD/ADEX, COVALED                  
  Martin Brehm           : Molecular dynamics                            
  Ronald Cardenas        : ETS/NOCV                                      
  Martina Colucci        : COVALED                                       
  Sebastian Ehlert       : rSCAN, r2SCAN, r2SCAN-3c, D4, dhf basis sets  
  Marvin Friede          : D4 for Fr, Ra, Ac-Lr                          
  Lars Goerigk           : TD-DFT with DH, B97 family of functionals     
  Stefan Grimme          : VdW corrections, initial TS optimization, DFT functionals, gCP, sTDA/sTD-DF 
  Waldemar Hujo          : DFT-NL                                        
  H. Jonsson             : NEB                                           
  Holger Kruse           : gCP                                           
  Marcel Mueller         : wB97X-3c, vDZP basis set                      
  Hagen Neugebauer       : wr2SCAN, Native XTB                           
  Gianluca Regni         : ADLD/ADEX                                     
  Tobias Risthaus        : pre 6.0 range-separated hybrid DFT and stability analysis
  Lukas Wittmann         : regularized MP2, r2SCAN double-hybrids, wr2SCAN        
                                                                         
We gratefully acknowledge several colleagues who have allowed us to      
interface, adapt or use parts of their codes:                            
  Ed Valeev, F. Pavosevic, A. Kumar             : LibInt (2-el integral package), F12 methods 
  Garnet Chan, S. Sharma, J. Yang, R. Olivares  : DMRG                   
  Ulf Ekstrom                                   : XCFun DFT Library      
  Mihaly Kallay                                 : mrcc  (arbitrary order and MRCC methods)
  Frank Weinhold                                : gennbo (NPA and NBO analysis)           
  Simon Mueller                                 : openCOSMO-RS                            
  Christopher J. Cramer and Donald G. Truhlar   : smd solvation model                     
  S Lehtola, MJT Oliveira, MAL Marques          : LibXC Library                           
  Liviu Ungur et al                             : ANISO software                          


 Your calculation uses the libint2 library for the computation of 2-el integrals
 For citations please refer to: http://libint.valeyev.net

 Your ORCA version has been built with support for libXC version: 7.0.0
 For citations please refer to: https://libxc.gitlab.io

 This ORCA versions uses:
   CBLAS   interface :  Fast vector & matrix operations
   LAPACKE interface :  Fast linear algebra routines
   SCALAPACK package :  Parallel linear algebra routines
   Shared memory     :  Shared parallel matrices
   BLAS/LAPACK       :  OpenBLAS 0.3.29  USE64BITINT DYNAMIC_ARCH NO_AFFINITY Cooperlake SINGLE_THREADED
        Core in use  :  Cooperlake
   Copyright (c) 2011-2014, The OpenBLAS Project


  ***********************************
  * Starting time: Sat Feb 28 01:43:35 2026
  * Host name:     c01b01n05
  * Process ID:    2142410
  * Working dir.:  /lustre1/jiangy/jiangy_liuxy/NMR/B9D7C2-SSRS
  ***********************************

NOTE: MaxCore=6000 MB was set to SCF,MP2,MDCI,CIPSI,MRCI,RASCI and CIS
      => If you want to overwrite this, your respective input block should be placed after the MaxCore statement


***************************************
The coordinates will be read from file: conf-14.xyz
***************************************


Your calculation utilizes the atom-pairwise dispersion correction
based on EEQ partial charges (D4)


Warning: RI is on but no J-basis has been assigned. Assigning Def2/J (nothing to worry about!)
================================================================================

----- Orbital basis set information -----
Your calculation utilizes the basis: def2-TZVP
   F. Weigend and R. Ahlrichs, Phys. Chem. Chem. Phys. 7, 3297 (2005).

----- AuxJ basis set information -----
Your calculation utilizes the auxiliary basis: def2/J
   H-Rn: F. Weigend, Phys. Chem. Chem. Phys. 8, 1057 (2006).
   Fr-Lr: K. Eichkorn, F. Weigend, O. Treutler, R. Ahlrichs; Theor. Chem. Acc. 97, 119 (1997).

================================================================================
                                        WARNINGS
                       Please study these warnings very carefully!
================================================================================


WARNING: Geometry Optimization
  ===> : Switching off AutoStart
         For restart on a previous wavefunction, please use MOREAD

================================================================================
                                       INPUT FILE
================================================================================
NAME = opt-conf-14.inp
|  1> ! B3LYP OPT FREQ DEF2-TZVP D4 CPCM(Methanol) 
|  2> ! TightOpt
|  3> %pal nprocs 64 end
|  4> %maxcore 6000
|  5> 
|  6> %cpcm
|  7> end
|  8> 
|  9> %freq
| 10>    Temp 298.15
| 11> end
| 12> 
| 13> * xyzfile 0 1 conf-14.xyz
| 14> 
| 15> 
| 16>                          ****END OF INPUT****
================================================================================

                       *****************************
                       * Geometry Optimization Run *
                       *****************************

Geometry optimization settings:
Update method            Update   .... BFGS
Choice of coordinates    CoordSys .... (2022) Redundant Internals
Initial Hessian          InHess   .... Almloef's Model
Max. no of cycles        MaxIter  .... 246

Convergence Tolerances:
Energy Change            TolE     ....  1.0000e-06 Eh
Max. Gradient            TolMAXG  ....  1.0000e-04 Eh/bohr
RMS Gradient             TolRMSG  ....  3.0000e-05 Eh/bohr
Max. Displacement        TolMAXD  ....  1.0000e-03 bohr
RMS Displacement         TolRMSD  ....  6.0000e-04 bohr
Strict Convergence                .... False

------------------------------------------------------------------------------
                        ORCA OPTIMIZATION COORDINATE SETUP
------------------------------------------------------------------------------

The optimization will be done in redundant internal coordinates (2022)
Making redundant internal coordinates   ...  (2022 redundants) done
Evaluating the initial hessian          ...  (Almloef) done
Evaluating the coordinates              ...  done
Calculating the B-matrix                .... done
Calculating the G-matrix                .... done
The number of degrees of freedom        ....  408

    -----------------------------------------------------------------
                    Redundant Internal Coordinates


    -----------------------------------------------------------------
         Definition                    Initial Value    Approx d2E/dq
    -----------------------------------------------------------------
      1. B(C   1,C   0)                  1.4064         0.588369   
      2. B(C   2,C   1)                  1.4002         0.601887   
      3. B(C   3,C   2)                  1.3872         0.631282   
      4. B(C   4,C   3)                  1.3848         0.636838   
      5. B(C   5,C   4)                  1.3861         0.633782   
      6. B(C   5,C   0)                  1.3853         0.635679   
      7. B(C   6,C   4)                  1.4991         0.418435   
      8. B(C   7,C   6)                  1.5438         0.355073   
      9. B(C   8,C   7)                  1.5480         0.349678   
     10. B(C   9,C   8)                  1.5410         0.358735   
     11. B(C  10,C   9)                  1.5053         0.408989   
     12. B(C  11,C  10)                  1.3936         0.616589   
     13. B(C  12,C  11)                  1.3819         0.643758   
     14. B(C  13,C  12)                  1.4075         0.585893   
     15. B(C  14,C  13)                  1.3856         0.635093   
     16. B(C  15,C  10)                  1.3834         0.640070   
     17. B(C  15,C  14)                  1.3856         0.634968   
     18. B(C  16,C   7)                  1.5404         0.359574   
     19. B(C  17,C   8)                  1.5350         0.366724   
     20. B(O  18,C   2)                  1.3769         0.587291   
     21. B(O  19,C   0)                  1.3655         0.612235   
     22. B(O  20,C   1)                  1.3658         0.611561   
     23. B(O  21,C  13)                  1.3523         0.642777   
     24. B(O  22,C  12)                  1.3752         0.590762   
     25. B(C  23,O  20)                  1.4194         0.502270   
     26. B(C  24,C  23)                  1.5634         0.330418   
     27. B(C  25,C  24)                  1.5163         0.392913   
     28. B(C  26,C  23)                  1.5345         0.367404   
     29. B(O  27,C  26)                  1.4033         0.532837   
     30. B(C  28,C  25)                  1.3908         0.622971   
     31. B(C  29,C  28)                  1.3817         0.644097   
     32. B(C  30,C  29)                  1.4029         0.595973   
     33. B(C  31,C  30)                  1.3835         0.639883   
     34. B(C  32,C  31)                  1.3833         0.640419   
     35. B(C  32,C  25)                  1.3853         0.635657   
     36. B(C  33,O  19)                  1.4073         0.525229   
     37. B(C  34,O  18)                  1.4095         0.520886   
     38. B(C  35,O  22)                  1.4069         0.525829   
     39. B(O  36,C  24)                  1.4027         0.534152   
     40. B(O  37,C  16)                  1.4004         0.538663   
     41. B(O  38,C  17)                  1.4127         0.514878   
     42. B(O  39,C  29)                  1.3780         0.584728   
     43. B(O  40,C  30)                  1.3633         0.617202   
     44. B(C  41,O  39)                  1.4053         0.529097   
     45. B(H  42,C   3)                  1.0778         0.376663   
     46. B(H  43,C   5)                  1.0787         0.375377   
     47. B(H  44,C   6)                  1.0916         0.358024   
     48. B(H  45,C   6)                  1.0896         0.360648   
     49. B(H  46,C   7)                  1.0944         0.354365   
     50. B(H  47,C   8)                  1.0965         0.351549   
     51. B(H  48,C   9)                  1.0911         0.358684   
     52. B(H  49,C   9)                  1.0932         0.355861   
     53. B(H  50,C  11)                  1.0791         0.374800   
     54. B(H  51,C  14)                  1.0789         0.375117   
     55. B(H  52,C  15)                  1.0805         0.372824   
     56. B(H  53,C  16)                  1.0947         0.353982   
     57. B(H  54,C  16)                  1.1017         0.344915   
     58. B(H  55,C  17)                  1.0917         0.357907   
     59. B(H  56,C  17)                  1.0996         0.347600   
     60. B(H  57,O  21)                  0.9730         0.495670   
     61. B(H  57,O  27)                  2.1048         0.010000   
     62. B(H  57,O  22)                  2.2465         0.010000   
     63. B(H  58,C  23)                  1.0965         0.351546   
     64. B(H  59,C  24)                  1.0964         0.351748   
     65. B(H  60,C  26)                  1.0912         0.358554   
     66. B(H  61,C  26)                  1.0980         0.349639   
     67. B(H  62,O  22)                  2.0223         0.010498   
     68. B(H  62,O  20)                  2.2718         0.010000   
     69. B(H  62,O  27)                  0.9707         0.499946   
     70. B(H  63,C  28)                  1.0780         0.376388   
     71. B(H  64,C  31)                  1.0781         0.376232   
     72. B(H  65,C  32)                  1.0785         0.375664   
     73. B(H  66,C  33)                  1.0965         0.351569   
     74. B(H  67,C  33)                  1.0887         0.361781   
     75. B(H  68,O  40)                  2.8172         0.010000   
     76. B(H  68,C  33)                  1.0931         0.356001   
     77. B(H  69,C  34)                  1.0892         0.361207   
     78. B(H  70,H  51)                  2.4881         0.010000   
     79. B(H  70,C  34)                  1.0921         0.357368   
     80. B(H  71,C  34)                  1.0955         0.352908   
     81. B(H  72,C  35)                  1.0893         0.361079   
     82. B(H  73,C  35)                  1.0928         0.356403   
     83. B(H  74,C  35)                  1.0941         0.354688   
     84. B(H  75,O  18)                  2.0080         0.011064   
     85. B(H  75,O  36)                  0.9685         0.503879   
     86. B(H  76,O  38)                  1.8944         0.016793   
     87. B(H  76,O  37)                  0.9706         0.500152   
     88. B(H  77,H  66)                  4.1518         0.010000   
     89. B(H  77,O  38)                  0.9636         0.513180   
     90. B(H  78,O  39)                  2.1120         0.010000   
     91. B(H  78,O  40)                  0.9671         0.506633   
     92. B(H  79,C  41)                  1.0945         0.354229   
     93. B(H  80,C   3)                  2.7059         0.010000   
     94. B(H  80,C  41)                  1.0947         0.353951   
     95. B(H  81,C  41)                  1.0890         0.361431   
     96. A(C   1,C   0,O  19)          114.8905         0.426231   
     97. A(C   5,C   0,O  19)          124.3503         0.432186   
     98. A(C   1,C   0,C   5)          120.7210         0.431933   
     99. A(C   0,C   1,O  20)          113.9061         0.426147   
    100. A(C   0,C   1,C   2)          118.7111         0.427720   
    101. A(C   2,C   1,O  20)          127.3016         0.427885   
    102. A(C   3,C   2,O  18)          122.3239         0.428437   
    103. A(C   1,C   2,C   3)          119.4319         0.433160   
    104. A(C   1,C   2,O  18)          118.2292         0.424793   
    105. A(C   4,C   3,H  42)          118.3631         0.357231   
    106. A(C   2,C   3,H  42)          119.9461         0.356699   
    107. A(C   2,C   3,C   4)          121.6737         0.437585   
    108. A(C   5,C   4,C   6)          121.7006         0.406258   
    109. A(C   3,C   4,C   6)          119.0063         0.406604   
    110. A(C   3,C   4,C   5)          119.0699         0.437897   
    111. A(C   4,C   5,H  43)          119.5178         0.356731   
    112. A(C   0,C   5,H  43)          120.2045         0.356913   
    113. A(C   0,C   5,C   4)          120.2775         0.437753   
    114. A(C   4,C   6,H  44)          110.4471         0.330121   
    115. A(C   7,C   6,H  45)          110.3997         0.321709   
    116. A(C   4,C   6,C   7)          109.0856         0.367267   
    117. A(H  44,C   6,H  45)          107.6352         0.290645   
    118. A(C   4,C   6,H  45)          111.1765         0.330520   
    119. A(C   7,C   6,H  44)          108.0413         0.321325   
    120. A(C   6,C   7,C  16)          110.0640         0.357881   
    121. A(C   8,C   7,C  16)          115.3890         0.356951   
    122. A(C  16,C   7,H  46)          106.3699         0.321447   
    123. A(C   8,C   7,H  46)          105.9941         0.319983   
    124. A(C   6,C   7,H  46)          106.6777         0.320785   
    125. A(C   6,C   7,C   8)          111.7501         0.356188   
    126. A(C   7,C   8,C  17)          115.3596         0.358147   
    127. A(C  17,C   8,H  47)          107.3118         0.322064   
    128. A(C   7,C   8,C   9)          110.4500         0.356809   
    129. A(C   9,C   8,H  47)          106.9388         0.320905   
    130. A(C   7,C   8,H  47)          107.1153         0.319567   
    131. A(C   9,C   8,C  17)          109.2719         0.359709   
    132. A(H  48,C   9,H  49)          107.7587         0.290120   
    133. A(C  10,C   9,H  48)          110.0910         0.328978   
    134. A(C  10,C   9,H  49)          108.7305         0.328550   
    135. A(C   8,C   9,C  10)          111.8936         0.366476   
    136. A(C   8,C   9,H  48)          109.4546         0.321962   
    137. A(C   8,C   9,H  49)          108.8105         0.321546   
    138. A(C   9,C  10,C  11)          119.4393         0.402664   
    139. A(C  11,C  10,C  15)          118.6004         0.436129   
    140. A(C   9,C  10,C  15)          121.9566         0.405329   
    141. A(C  10,C  11,C  12)          121.3596         0.436581   
    142. A(C  10,C  11,H  50)          118.6531         0.354978   
    143. A(C  12,C  11,H  50)          119.9785         0.357586   
    144. A(C  11,C  12,C  13)          119.6989         0.432587   
    145. A(C  13,C  12,O  22)          115.1693         0.423198   
    146. A(C  11,C  12,O  22)          125.1141         0.430399   
    147. A(C  12,C  13,O  21)          122.3301         0.429642   
    148. A(C  12,C  13,C  14)          118.6547         0.431535   
    149. A(C  14,C  13,O  21)          119.0118         0.435916   
    150. A(C  13,C  14,H  51)          117.9231         0.356815   
    151. A(C  13,C  14,C  15)          121.0270         0.437828   
    152. A(C  15,C  14,H  51)          121.0409         0.356803   
    153. A(C  14,C  15,H  52)          119.3481         0.356431   
    154. A(C  10,C  15,H  52)          120.0070         0.356916   
    155. A(C  10,C  15,C  14)          120.6374         0.438445   
    156. A(O  37,C  16,H  54)          111.0539         0.340077   
    157. A(C   7,C  16,H  54)          109.3940         0.320029   
    158. A(O  37,C  16,H  53)          105.0617         0.341556   
    159. A(C   7,C  16,H  53)          108.6237         0.321390   
    160. A(C   7,C  16,O  37)          114.9264         0.382048   
    161. A(H  53,C  16,H  54)          107.4217         0.288107   
    162. A(O  38,C  17,H  56)          109.5337         0.337960   
    163. A(C   8,C  17,O  38)          113.8483         0.380363   
    164. A(H  55,C  17,H  56)          107.6270         0.288955   
    165. A(C   8,C  17,H  56)          108.6336         0.321469   
    166. A(O  38,C  17,H  55)          105.6801         0.339612   
    167. A(C   8,C  17,H  55)          111.3249         0.323011   
    168. A(C   2,O  18,C  34)          118.8669         0.411311   
    169. A(C   0,O  19,C  33)          118.3238         0.414972   
    170. A(C   1,O  20,C  23)          122.4674         0.411611   
    171. A(C  13,O  21,H  57)          111.0687         0.369369   
    172. A(C  12,O  22,C  35)          118.7375         0.412432   
    173. A(C  26,C  23,H  58)          107.5830         0.322161   
    174. A(C  24,C  23,H  58)          108.2741         0.316628   
    175. A(O  20,C  23,H  58)          110.2695         0.337201   
    176. A(C  24,C  23,C  26)          112.8244         0.354830   
    177. A(O  20,C  23,C  26)          103.8859         0.378854   
    178. A(O  20,C  23,C  24)          113.8101         0.371976   
    179. A(C  23,C  24,O  36)          110.5412         0.375946   
    180. A(O  36,C  24,H  59)          105.2072         0.340715   
    181. A(C  25,C  24,H  59)          108.5675         0.325761   
    182. A(C  23,C  24,H  59)          108.5065         0.316658   
    183. A(C  25,C  24,O  36)          113.6920         0.387420   
    184. A(C  23,C  24,C  25)          110.0845         0.358899   
    185. A(C  28,C  25,C  32)          119.4358         0.436395   
    186. A(C  24,C  25,C  32)          119.6361         0.401981   
    187. A(C  24,C  25,C  28)          120.8285         0.400556   
    188. A(O  27,C  26,H  61)          110.4838         0.340232   
    189. A(H  60,C  26,H  61)          109.4906         0.289302   
    190. A(C  23,C  26,H  61)          109.2457         0.321874   
    191. A(O  27,C  26,H  60)          106.9007         0.341668   
    192. A(C  23,C  26,H  60)          109.9353         0.323205   
    193. A(C  23,C  26,O  27)          110.7544         0.382756   
    194. A(C  26,O  27,H  62)          106.9278         0.358238   
    195. A(C  29,C  28,H  63)          120.3151         0.357875   
    196. A(C  25,C  28,H  63)          119.2401         0.355853   
    197. A(C  25,C  28,C  29)          120.4448         0.437434   
    198. A(C  30,C  29,O  39)          114.6597         0.423712   
    199. A(C  28,C  29,O  39)          125.5756         0.429647   
    200. A(C  28,C  29,C  30)          119.7584         0.433957   
    201. A(C  31,C  30,O  40)          120.2640         0.433328   
    202. A(C  29,C  30,O  40)          120.1595         0.427832   
    203. A(C  29,C  30,C  31)          119.5744         0.433445   
    204. A(C  32,C  31,H  64)          121.1574         0.357502   
    205. A(C  30,C  31,H  64)          118.6309         0.357451   
    206. A(C  30,C  31,C  32)          120.2017         0.439098   
    207. A(C  31,C  32,H  65)          119.5872         0.357410   
    208. A(C  25,C  32,H  65)          119.8846         0.356957   
    209. A(C  25,C  32,C  31)          120.5240         0.438574   
    210. A(H  67,C  33,H  68)          109.2263         0.290529   
    211. A(H  66,C  33,H  68)          109.6008         0.289228   
    212. A(O  19,C  33,H  68)          111.6247         0.340440   
    213. A(H  66,C  33,H  67)          108.9535         0.289959   
    214. A(O  19,C  33,H  67)          105.5118         0.341358   
    215. A(O  19,C  33,H  66)          111.7955         0.339728   
    216. A(H  69,C  34,H  71)          109.3491         0.290060   
    217. A(O  18,C  34,H  71)          111.6757         0.339473   
    218. A(H  69,C  34,H  70)          109.3423         0.290632   
    219. A(O  18,C  34,H  70)          111.2369         0.340186   
    220. A(O  18,C  34,H  69)          105.3230         0.340794   
    221. A(H  70,C  34,H  71)          109.7942         0.289574   
    222. A(H  73,C  35,H  74)          110.1795         0.289679   
    223. A(H  72,C  35,H  74)          109.0769         0.290272   
    224. A(O  22,C  35,H  74)          111.4114         0.340295   
    225. A(H  72,C  35,H  73)          109.2767         0.290492   
    226. A(O  22,C  35,H  73)          111.0707         0.340569   
    227. A(O  22,C  35,H  72)          105.6962         0.341312   
    228. A(C  24,O  36,H  75)          107.4623         0.358866   
    229. A(C  16,O  37,H  76)          108.5086         0.358926   
    230. A(C  17,O  38,H  77)          108.7245         0.357741   
    231. A(C  29,O  39,C  41)          117.9500         0.412134   
    232. A(C  30,O  40,H  78)          107.4617         0.368183   
    233. A(H  80,C  41,H  81)          109.4953         0.290222   
    234. A(H  79,C  41,H  81)          109.3224         0.290258   
    235. A(O  39,C  41,H  81)          105.7015         0.341722   
    236. A(H  79,C  41,H  80)          109.8389         0.289308   
    237. A(O  39,C  41,H  80)          110.9216         0.340529   
    238. A(O  39,C  41,H  79)          111.4619         0.340574   
    239. D(O  20,C   1,C   0,O  19)      3.2955         0.023816   
    240. D(C   2,C   1,C   0,O  19)   -179.7423         0.023816   
    241. D(C   2,C   1,C   0,C   5)      2.4084         0.023816   
    242. D(O  20,C   1,C   0,C   5)   -174.5538         0.023816   
    243. D(O  18,C   2,C   1,C   0)    175.8356         0.024982   
    244. D(C   3,C   2,C   1,C   0)     -2.7886         0.024982   
    245. D(C   3,C   2,C   1,O  20)    173.7195         0.024982   
    246. D(O  18,C   2,C   1,O  20)     -7.6563         0.024982   
    247. D(C   4,C   3,C   2,C   1)      0.2918         0.030039   
    248. D(H  42,C   3,C   2,O  18)      3.2574         0.030039   
    249. D(C   4,C   3,C   2,O  18)   -178.2738         0.030039   
    250. D(H  42,C   3,C   2,C   1)   -178.1770         0.030039   
    251. D(C   6,C   4,C   3,H  42)      6.4701         0.030608   
    252. D(C   5,C   4,C   3,H  42)   -178.8644         0.030608   
    253. D(C   5,C   4,C   3,C   2)      2.6434         0.030608   
    254. D(C   6,C   4,C   3,C   2)   -172.0221         0.030608   
    255. D(H  43,C   5,C   4,C   6)     -8.6510         0.027872   
    256. D(H  43,C   5,C   4,C   3)    176.8329         0.027872   
    257. D(C   0,C   5,C   4,C   3)     -3.0258         0.027872   
    258. D(C   4,C   5,C   0,O  19)   -177.1202         0.028050   
    259. D(H  43,C   5,C   0,C   1)   -179.3411         0.028050   
    260. D(H  43,C   5,C   0,O  19)      3.0221         0.028050   
    261. D(C   0,C   5,C   4,C   6)    171.4903         0.027872   
    262. D(C   4,C   5,C   0,C   1)      0.5166         0.028050   
    263. D(H  45,C   6,C   4,C   3)   -165.8239         0.012950   
    264. D(H  44,C   6,C   4,C   5)    139.0746         0.012950   
    265. D(H  44,C   6,C   4,C   3)    -46.4059         0.012950   
    266. D(C   7,C   6,C   4,C   5)   -102.3215         0.012950   
    267. D(C   7,C   6,C   4,C   3)     72.1980         0.012950   
    268. D(C   8,C   7,C   6,H  44)   -173.5751         0.010135   
    269. D(C   8,C   7,C   6,C   4)     66.3274         0.010135   
    270. D(C  16,C   7,C   6,H  45)     73.4621         0.010135   
    271. D(C  16,C   7,C   6,H  44)    -43.9942         0.010135   
    272. D(C   8,C   7,C   6,H  45)    -56.1188         0.010135   
    273. D(C  16,C   7,C   6,C   4)   -164.0918         0.010135   
    274. D(C  17,C   8,C   7,H  46)   -148.2139         0.010000   
    275. D(C  17,C   8,C   7,C  16)    -30.7902         0.010000   
    276. D(C  17,C   8,C   7,C   6)     95.9509         0.010000   
    277. D(C   9,C   8,C   7,C  16)     93.7200         0.010000   
    278. D(C   9,C   8,C   7,H  46)    -23.7037         0.010000   
    279. D(C   9,C   8,C   7,C   6)   -139.5388         0.010000   
    280. D(H  48,C   9,C   8,C  17)     78.8463         0.010330   
    281. D(H  48,C   9,C   8,C   7)    -49.0781         0.010330   
    282. D(C  10,C   9,C   8,H  47)    -42.9880         0.010330   
    283. D(C  10,C   9,C   8,C  17)   -158.8383         0.010330   
    284. D(H  48,C   9,C   8,H  47)   -165.3034         0.010330   
    285. D(C  10,C   9,C   8,C   7)     73.2374         0.010330   
    286. D(C  15,C  10,C   9,H  48)     14.8448         0.012391   
    287. D(C  15,C  10,C   9,C   8)   -107.1064         0.012391   
    288. D(C  11,C  10,C   9,H  49)    -46.6109         0.012391   
    289. D(C  11,C  10,C   9,H  48)   -164.4478         0.012391   
    290. D(C  11,C  10,C   9,C   8)     73.6010         0.012391   
    291. D(H  50,C  11,C  10,C  15)   -179.1308         0.026290   
    292. D(H  50,C  11,C  10,C   9)      0.1856         0.026290   
    293. D(C  12,C  11,C  10,C  15)     -0.2103         0.026290   
    294. D(C  12,C  11,C  10,C   9)    179.1061         0.026290   
    295. D(O  22,C  12,C  11,H  50)      1.8870         0.028817   
    296. D(C  13,C  12,C  11,H  50)   -179.7214         0.028817   
    297. D(O  22,C  12,C  11,C  10)   -177.0194         0.028817   
    298. D(C  13,C  12,C  11,C  10)      1.3722         0.028817   
    299. D(O  21,C  13,C  12,C  11)    178.8904         0.023607   
    300. D(C  14,C  13,C  12,O  22)    176.7554         0.023607   
    301. D(C  14,C  13,C  12,C  11)     -1.7909         0.023607   
    302. D(O  21,C  13,C  12,O  22)     -2.5632         0.023607   
    303. D(H  51,C  14,C  13,O  21)      1.5160         0.027995   
    304. D(H  51,C  14,C  13,C  12)   -177.8257         0.027995   
    305. D(C  15,C  14,C  13,O  21)   -179.5644         0.027995   
    306. D(C  15,C  14,C  13,C  12)      1.0939         0.027995   
    307. D(H  52,C  15,C  14,H  51)     -0.0634         0.027983   
    308. D(H  52,C  15,C  14,C  13)   -178.9492         0.027983   
    309. D(C  10,C  15,C  14,H  51)    178.9448         0.027983   
    310. D(C  10,C  15,C  14,C  13)      0.0590         0.027983   
    311. D(H  52,C  15,C  10,C  11)    178.4874         0.028465   
    312. D(H  52,C  15,C  10,C   9)     -0.8110         0.028465   
    313. D(C  14,C  15,C  10,C  11)     -0.5143         0.028465   
    314. D(C  14,C  15,C  10,C   9)   -179.8127         0.028465   
    315. D(H  53,C  16,C   7,H  46)    -41.2202         0.010375   
    316. D(H  53,C  16,C   7,C   8)   -158.4327         0.010375   
    317. D(H  53,C  16,C   7,C   6)     73.9764         0.010375   
    318. D(O  37,C  16,C   7,H  46)   -158.5430         0.010375   
    319. D(O  37,C  16,C   7,C   8)     84.2445         0.010375   
    320. D(O  37,C  16,C   7,C   6)    -43.3464         0.010375   
    321. D(H  55,C  17,C   8,H  47)   -178.5183         0.010763   
    322. D(H  55,C  17,C   8,C   9)    -62.9065         0.010763   
    323. D(H  55,C  17,C   8,C   7)     62.2157         0.010763   
    324. D(O  38,C  17,C   8,H  47)     62.1550         0.010763   
    325. D(O  38,C  17,C   8,C   9)    177.7668         0.010763   
    326. D(O  38,C  17,C   8,C   7)    -57.1109         0.010763   
    327. D(C  34,O  18,C   2,C   3)     -6.2763         0.027710   
    328. D(C  34,O  18,C   2,C   1)    175.1417         0.027710   
    329. D(C  33,O  19,C   0,C   5)    -13.1386         0.027451   
    330. D(C  33,O  19,C   0,C   1)    169.1008         0.027451   
    331. D(C  23,O  20,C   1,C   2)     28.8846         0.030222   
    332. D(C  23,O  20,C   1,C   0)   -154.4651         0.030222   
    333. D(H  57,O  21,C  13,C  14)    176.2391         0.030480   
    334. D(H  57,O  21,C  13,C  12)     -4.4446         0.030480   
    335. D(C  35,O  22,C  12,C  13)   -179.1796         0.030500   
    336. D(C  35,O  22,C  12,C  11)     -0.7232         0.030500   
    337. D(H  58,C  23,O  20,C   1)    -57.3725         0.021644   
    338. D(C  26,C  23,O  20,C   1)   -172.3980         0.021644   
    339. D(C  24,C  23,O  20,C   1)     64.5196         0.021644   
    340. D(O  36,C  24,C  23,H  58)      1.5550         0.010000   
    341. D(O  36,C  24,C  23,C  26)    120.5108         0.010000   
    342. D(O  36,C  24,C  23,O  20)   -121.4347         0.010000   
    343. D(C  25,C  24,C  23,H  58)    127.9888         0.010000   
    344. D(C  25,C  24,C  23,C  26)   -113.0554         0.010000   
    345. D(C  25,C  24,C  23,O  20)      4.9991         0.010000   
    346. D(C  32,C  25,C  24,O  36)   -162.0483         0.011477   
    347. D(C  32,C  25,C  24,C  23)     73.3108         0.011477   
    348. D(C  28,C  25,C  24,H  59)    138.3168         0.011477   
    349. D(C  28,C  25,C  24,O  36)     21.6002         0.011477   
    350. D(C  28,C  25,C  24,C  23)   -103.0406         0.011477   
    351. D(H  60,C  26,C  23,H  58)     59.3687         0.010800   
    352. D(H  60,C  26,C  23,C  24)    -59.9878         0.010800   
    353. D(H  60,C  26,C  23,O  20)    176.2855         0.010800   
    354. D(O  27,C  26,C  23,H  58)    -58.5454         0.010800   
    355. D(O  27,C  26,C  23,C  24)   -177.9019         0.010800   
    356. D(O  27,C  26,C  23,O  20)     58.3714         0.010800   
    357. D(H  62,O  27,C  26,H  61)     66.0351         0.024491   
    358. D(H  62,O  27,C  26,H  60)   -174.9032         0.024491   
    359. D(H  62,O  27,C  26,C  23)    -55.1531         0.024491   
    360. D(H  63,C  28,C  25,C  32)    177.6421         0.026871   
    361. D(H  63,C  28,C  25,C  24)     -5.9992         0.026871   
    362. D(C  29,C  28,C  25,C  32)     -2.4034         0.026871   
    363. D(C  29,C  28,C  25,C  24)    173.9553         0.026871   
    364. D(C  30,C  29,C  28,H  63)   -179.0500         0.028849   
    365. D(C  30,C  29,C  28,C  25)      0.9959         0.028849   
    366. D(O  39,C  29,C  28,H  63)      1.9160         0.028849   
    367. D(O  39,C  29,C  28,C  25)   -178.0381         0.028849   
    368. D(O  40,C  30,C  29,O  39)      0.9565         0.024468   
    369. D(O  40,C  30,C  29,C  28)   -178.1790         0.024468   
    370. D(C  31,C  30,C  29,O  39)   -179.5678         0.024468   
    371. D(C  31,C  30,C  29,C  28)      1.2967         0.024468   
    372. D(H  64,C  31,C  30,O  40)     -1.5623         0.028447   
    373. D(H  64,C  31,C  30,C  29)    178.9625         0.028447   
    374. D(C  32,C  31,C  30,O  40)    177.3010         0.028447   
    375. D(C  32,C  31,C  30,C  29)     -2.1742         0.028447   
    376. D(H  65,C  32,C  31,H  64)      0.3417         0.028498   
    377. D(H  65,C  32,C  31,C  30)   -178.4925         0.028498   
    378. D(C  25,C  32,C  31,H  64)    179.5983         0.028498   
    379. D(C  25,C  32,C  31,C  30)      0.7642         0.028498   
    380. D(H  65,C  32,C  25,C  28)   -179.2187         0.028048   
    381. D(H  65,C  32,C  25,C  24)      4.3787         0.028048   
    382. D(C  31,C  32,C  25,C  28)      1.5269         0.028048   
    383. D(C  31,C  32,C  25,C  24)   -174.8757         0.028048   
    384. D(H  68,C  33,O  19,C   0)    -54.5502         0.021890   
    385. D(H  67,C  33,O  19,C   0)   -173.0821         0.021890   
    386. D(H  66,C  33,O  19,C   0)     68.6227         0.021890   
    387. D(H  71,C  34,O  18,C   2)     66.8711         0.023352   
    388. D(H  70,C  34,O  18,C   2)    -56.1821         0.023352   
    389. D(H  69,C  34,O  18,C   2)   -174.5363         0.023352   
    390. D(H  74,C  35,O  22,C  12)     56.4165         0.025584   
    391. D(H  73,C  35,O  22,C  12)    -66.8246         0.025584   
    392. D(H  72,C  35,O  22,C  12)    174.7666         0.025584   
    393. D(H  75,O  36,C  24,H  59)    163.7740         0.022674   
    394. D(H  75,O  36,C  24,C  25)    -77.5650         0.022674   
    395. D(H  75,O  36,C  24,C  23)     46.8300         0.022674   
    396. D(H  76,O  37,C  16,H  54)     72.3514         0.023077   
    397. D(H  76,O  37,C  16,H  53)   -171.8110         0.023077   
    398. D(H  76,O  37,C  16,C   7)    -52.4871         0.023077   
    399. D(H  77,O  38,C  17,H  56)     64.9209         0.022792   
    400. D(H  77,O  38,C  17,H  55)   -179.4005         0.022792   
    401. D(H  77,O  38,C  17,C   8)    -56.9165         0.022792   
    402. D(C  41,O  39,C  29,C  30)   -174.7152         0.027452   
    403. D(C  41,O  39,C  29,C  28)      4.3621         0.027452   
    404. D(H  78,O  40,C  30,C  31)    177.1375         0.030825   
    405. D(H  78,O  40,C  30,C  29)     -3.3904         0.030825   
    406. D(H  81,C  41,O  39,C  29)    177.0880         0.024131   
    407. D(H  80,C  41,O  39,C  29)     58.4937         0.024131   
    408. D(H  79,C  41,O  39,C  29)    -64.2374         0.024131   
    -----------------------------------------------------------------

Number of atoms                         .... 82
Number of degrees of freedom            .... 408


         *************************************************************
         *                GEOMETRY OPTIMIZATION CYCLE   1            *
         *************************************************************
---------------------------------
CARTESIAN COORDINATES (ANGSTROEM)
---------------------------------
  C     14.567707  -20.198053   -0.368454
  C     15.234612  -19.011545   -0.014532
  C     14.578301  -18.092175    0.812806
  C     13.274172  -18.344717    1.212509
  C     12.601784  -19.489550    0.818897
  C     13.268141  -20.431454    0.050720
  C     11.141499  -19.618951    1.132291
  C     10.343041  -18.661242    0.221984
  C     10.428316  -19.079733   -1.265928
  C     10.584437  -17.838779   -2.166176
  C     11.963085  -17.242627   -2.066181
  C     13.036501  -17.893978   -2.670862
  C     14.315304  -17.372859   -2.619471
  C     14.552483  -16.174728   -1.919983
  C     13.479733  -15.526864   -1.329025
  C     12.199915  -16.052970   -1.400978
  C      8.917513  -18.472764    0.774406
  C      9.258819  -19.932574   -1.777085
  O     15.271311  -16.975836    1.224199
  O     15.281022  -21.040409   -1.172373
  O     16.462207  -18.871833   -0.596750
  O     15.785624  -15.629366   -1.817045
  O     15.417099  -17.918182   -3.235893
  C     17.494671  -18.087532   -0.019131
  C     18.007214  -18.631351    1.354125
  C     17.340277  -19.955569    1.671443
  C     18.587437  -18.066288   -1.096259
  O     18.094185  -17.527538   -2.294513
  C     16.304038  -20.028171    2.596242
  C     15.619107  -21.212643    2.788702
  C     15.985339  -22.354874    2.061248
  C     17.047551  -22.289899    1.177183
  C     17.715313  -21.094900    0.978368
  C     14.787227  -22.341513   -1.381313
  C     14.593563  -15.990948    1.970779
  C     15.261390  -19.107514   -3.971237
  O     17.846169  -17.664460    2.357450
  O      8.294271  -19.647714    1.212725
  O      9.060637  -21.126028   -1.047681
  O     14.554921  -21.393291    3.645367
  O     15.291470  -23.517993    2.217338
  C     14.057211  -20.267858    4.323918
  H     12.751005  -17.628742    1.825078
  H     12.768220  -21.349132   -0.216705
  H     10.947861  -19.339427    2.169549
  H     10.799368  -20.644601    0.997435
  H     10.831438  -17.684186    0.288885
  H     11.341634  -19.675412   -1.381781
  H      9.833914  -17.095274   -1.893493
  H     10.402728  -18.130955   -3.203842
  H     12.850370  -18.814650   -3.202080
  H     13.669135  -14.591149   -0.826489
  H     11.380330  -15.516379   -0.944981
  H      8.967603  -17.830213    1.659228
  H      8.300109  -17.953430    0.024133
  H      8.314243  -19.388792   -1.715411
  H      9.435861  -20.173504   -2.835275
  H     16.457822  -16.205865   -2.220241
  H     17.152248  -17.055946    0.125739
  H     19.089122  -18.793739    1.282212
  H     19.412222  -17.427217   -0.776930
  H     18.956628  -19.087740   -1.257481
  H     17.310114  -18.046321   -2.536010
  H     16.040172  -19.149033    3.161471
  H     17.326665  -23.181133    0.638635
  H     18.526234  -21.049697    0.268799
  H     13.866346  -22.336781   -1.976566
  H     15.565013  -22.862334   -1.937311
  H     14.610403  -22.861854   -0.436389
  H     15.308141  -15.177652    2.089977
  H     13.714475  -15.624630    1.436325
  H     14.299083  -16.363005    2.958178
  H     16.227574  -19.293735   -4.438462
  H     15.010391  -19.944883   -3.315458
  H     14.502049  -18.998275   -4.751347
  H     16.949571  -17.307356    2.275720
  H      8.340097  -20.305075    0.500135
  H      9.876294  -21.638710   -1.065832
  H     14.627188  -23.369653    2.904319
  H     14.801971  -19.851911    5.009626
  H     13.731678  -19.497715    3.617342
  H     13.200446  -20.622912    4.894708

----------------------------
CARTESIAN COORDINATES (A.U.)
----------------------------
  NO LB      ZA    FRAG     MASS         X           Y           Z
   0 C     6.0000    0    12.011   27.528977  -38.168789   -0.696277
   1 C     6.0000    0    12.011   28.789245  -35.926613   -0.027461
   2 C     6.0000    0    12.011   27.548996  -34.189255    1.535980
   3 C     6.0000    0    12.011   25.084550  -34.666491    2.291310
   4 C     6.0000    0    12.011   23.813920  -36.829913    1.547491
   5 C     6.0000    0    12.011   25.073153  -38.609852    0.095847
   6 C     6.0000    0    12.011   21.054382  -37.074444    2.139721
   7 C     6.0000    0    12.011   19.545515  -35.264637    0.419488
   8 C     6.0000    0    12.011   19.706661  -36.055469   -2.392257
   9 C     6.0000    0    12.011   20.001687  -33.710407   -4.093479
  10 C     6.0000    0    12.011   22.606954  -32.583843   -3.904517
  11 C     6.0000    0    12.011   24.635417  -33.814718   -5.047197
  12 C     6.0000    0    12.011   27.052004  -32.829947   -4.950083
  13 C     6.0000    0    12.011   27.500207  -30.565807   -3.628241
  14 C     6.0000    0    12.011   25.473004  -29.341522   -2.511493
  15 C     6.0000    0    12.011   23.054498  -30.335718   -2.647465
  16 C     6.0000    0    12.011   16.851657  -34.908465    1.463416
  17 C     6.0000    0    12.011   17.496633  -37.667106   -3.358204
  18 O     8.0000    0    15.999   28.858596  -32.079681    2.313401
  19 O     8.0000    0    15.999   28.876947  -39.760611   -2.215464
  20 O     8.0000    0    15.999   31.109063  -35.662597   -1.127694
  21 O     8.0000    0    15.999   29.830506  -29.535221   -3.433718
  22 O     8.0000    0    15.999   29.134095  -33.860457   -6.114951
  23 C     6.0000    0    12.011   33.060137  -34.180482   -0.036152
  24 C     6.0000    0    12.011   34.028704  -35.208151    2.558925
  25 C     6.0000    0    12.011   32.768374  -37.710560    3.158570
  26 C     6.0000    0    12.011   35.125165  -34.140337   -2.071630
  27 O     8.0000    0    15.999   34.193055  -33.122247   -4.336001
  28 C     6.0000    0    12.011   30.810167  -37.847758    4.906187
  29 C     6.0000    0    12.011   29.515834  -40.086085    5.269883
  30 C     6.0000    0    12.011   30.207913  -42.244589    3.895195
  31 C     6.0000    0    12.011   32.215202  -42.121805    2.224553
  32 C     6.0000    0    12.011   33.477089  -39.863584    1.848847
  33 C     6.0000    0    12.011   27.943809  -42.219342   -2.610304
  34 C     6.0000    0    12.011   27.577837  -30.218512    3.724232
  35 C     6.0000    0    12.011   28.839847  -36.107969   -7.504550
  36 O     8.0000    0    15.999   33.724371  -33.380992    4.454935
  37 O     8.0000    0    15.999   15.673901  -37.128798    2.291718
  38 O     8.0000    0    15.999   17.122122  -39.922408   -1.979830
  39 O     8.0000    0    15.999   27.504815  -40.427461    6.888746
  40 O     8.0000    0    15.999   28.896691  -44.442567    4.190162
  41 C     6.0000    0    12.011   26.564279  -38.300702    8.171021
  42 H     1.0000    0     1.008   24.095907  -33.313495    3.448898
  43 H     1.0000    0     1.008   24.128439  -40.344014   -0.409513
  44 H     1.0000    0     1.008   20.688459  -36.546221    4.099854
  45 H     1.0000    0     1.008   20.407848  -39.012641    1.884880
  46 H     1.0000    0     1.008   20.468452  -33.418268    0.545913
  47 H     1.0000    0     1.008   21.432581  -37.181140   -2.611187
  48 H     1.0000    0     1.008   18.583404  -32.305387   -3.578183
  49 H     1.0000    0     1.008   19.658306  -34.262539   -6.054384
  50 H     1.0000    0     1.008   24.283679  -35.554536   -6.051053
  51 H     1.0000    0     1.008   25.830922  -27.573276   -1.561839
  52 H     1.0000    0     1.008   21.505707  -29.321707   -1.785756
  53 H     1.0000    0     1.008   16.946314  -33.694220    3.135486
  54 H     1.0000    0     1.008   15.684933  -33.927066    0.045606
  55 H     1.0000    0     1.008   15.711642  -36.639506   -3.241656
  56 H     1.0000    0     1.008   17.831194  -38.122398   -5.357894
  57 H     1.0000    0     1.008   31.100777  -30.624648   -4.195647
  58 H     1.0000    0     1.008   32.413051  -32.231067    0.237613
  59 H     1.0000    0     1.008   36.073213  -35.515020    2.423030
  60 H     1.0000    0     1.008   36.683783  -32.932667   -1.468185
  61 H     1.0000    0     1.008   35.822835  -36.070601   -2.376294
  62 H     1.0000    0     1.008   32.711374  -34.102605   -4.792365
  63 H     1.0000    0     1.008   30.311533  -36.186428    5.974315
  64 H     1.0000    0     1.008   32.742651  -43.805992    1.206845
  65 H     1.0000    0     1.008   35.009508  -39.778163    0.507957
  66 H     1.0000    0     1.008   26.203596  -42.210400   -3.735169
  67 H     1.0000    0     1.008   29.413612  -43.203549   -3.660987
  68 H     1.0000    0     1.008   27.609661  -43.202643   -0.824656
  69 H     1.0000    0     1.008   28.928193  -28.681606    3.949484
  70 H     1.0000    0     1.008   25.916602  -29.526272    2.714261
  71 H     1.0000    0     1.008   27.021351  -30.921599    5.590146
  72 H     1.0000    0     1.008   30.665671  -36.459875   -8.387478
  73 H     1.0000    0     1.008   28.365527  -37.690366   -6.265307
  74 H     1.0000    0     1.008   27.404900  -35.901537   -8.978744
  75 H     1.0000    0     1.008   32.030048  -32.706164    4.300487
  76 H     1.0000    0     1.008   15.760500  -38.371031    0.945118
  77 H     1.0000    0     1.008   18.663491  -40.891235   -2.014131
  78 H     1.0000    0     1.008   27.641380  -44.162244    5.488367
  79 H     1.0000    0     1.008   27.971671  -37.514675    9.466821
  80 H     1.0000    0     1.008   25.949111  -36.845341    6.835786
  81 H     1.0000    0     1.008   24.945228  -38.971655    9.249658

--------------------------------
INTERNAL COORDINATES (ANGSTROEM)
--------------------------------
 C      0   0   0     0.000000000000     0.00000000     0.00000000
 C      1   0   0     1.406352003377     0.00000000     0.00000000
 C      2   1   0     1.400168874522   118.71106486     0.00000000
 C      3   2   1     1.387188792304   119.43193037   357.21136095
 C      4   3   2     1.384803472325   121.67366591     0.29181437
 C      1   2   3     1.385299382217   120.72103344     2.40838342
 C      5   4   3     1.499130569372   119.00628237   187.97785152
 C      7   5   4     1.543826940690   109.08559335    72.19800909
 C      8   7   5     1.547994320574   111.75014112    66.32735118
 C      9   8   7     1.541033935295   110.45003802   220.46118278
 C     10   9   8     1.505345903328   111.89360956    73.23735452
 C     11  10   9     1.393599353729   119.43927705    73.60096870
 C     12  11  10     1.381861756394   121.35963555   179.10609549
 C     13  12  11     1.407500050447   119.69890356     1.37223136
 C     14  13  12     1.385550563237   118.65468190   358.20906404
 C     11  10   9     1.383425776557   121.95664728   252.89360381
 C      8   7   5     1.540397967218   110.06401847   195.90824416
 C      9   8   7     1.535038293062   115.35958361    95.95093726
 O      3   2   1     1.376851486326   118.22915219   175.83561075
 O      1   2   3     1.365528684721   114.89049191   180.25768500
 O      2   1   3     1.365828176355   113.90613984   183.03782064
 O     14  13  12     1.352277067236   122.33011621   178.89039047
 O     13  12  11     1.375247380422   125.11407863   182.98057365
 C     21   2   1     1.419420414777   122.46737527   205.53486418
 C     24  21   2     1.563416356601   113.81008038    64.51957408
 C     25  24  21     1.516261681298   110.08451974     4.99905769
 C     24  21   2     1.534533594999   103.88591496   187.60202258
 O     27  24  21     1.403338681169   110.75440530    58.37141121
 C     26  25  24     1.390796360637   120.82849618   256.95937296
 C     29  26  25     1.381718630047   120.44475275   173.95533277
 C     30  29  26     1.402856518980   119.75843172     0.99594466
 C     31  30  29     1.383505360658   119.57440010     1.29669797
 C     32  31  30     1.383277230583   120.20169149   357.82584997
 C     20   1   2     1.407253206249   118.32382308   169.10083301
 C     19   3   2     1.409513865736   118.86689884   175.14167318
 C     23  13  12     1.406942717700   118.73747860   359.27679148
 O     25  24  21     1.402667545218   110.54118891   238.56526602
 O     17   8   7     1.400378456123   114.92635050   316.65364702
 O     18   9   8     1.412671512851   113.84825540   302.88907162
 O     30  29  26     1.378041870887   125.57558159   181.96188780
 O     31  30  29     1.363329080200   120.15952296   181.82096516
 C     40  30  29     1.405256026198   117.94997007     4.36207801
 H      4   3   2     1.077758908575   119.94613070   181.82299668
 H      6   1   2     1.078689605420   120.20454103   180.65892208
 H      7   5   4     1.091573565645   110.44705979   313.59410313
 H      7   5   4     1.089585922486   111.17654800   194.17606109
 H      8   7   5     1.094370490289   106.67769330   310.90992213
 H      9   8   7     1.096542268472   107.11525752   336.57657647
 H     10   9   8     1.091072880146   109.45461099   310.92192673
 H     10   9   8     1.093223061965   108.81053560   193.40241272
 H     12  11  10     1.079108377927   118.65307855     0.18559929
 H     15  14  13     1.078878382038   117.92306415   182.17427006
 H     16  11  10     1.080547825954   120.00702331   359.18899808
 H     17   8   7     1.094664218139   108.62370385    73.97644482
 H     17   8   7     1.101727687794   109.39396385   190.95055032
 H     18   9   8     1.091662851509   111.32488124    62.21571136
 H     18   9   8     1.099617017280   108.63361121   180.55499809
 H     22  14  13     0.973020912625   111.06867002   355.55542220
 H     24  21   2     1.096544611160   110.26952055   302.62751862
 H     25  24  21     1.096387608484   108.50651537   123.67899431
 H     27  24  21     1.091171098959   109.93530510   176.28551814
 H     27  24  21     1.098025084427   109.24574919   296.45480589
 H     28  27  24     0.970682735077   106.92777461   304.84694688
 H     29  26  25     1.077957550088   119.24009611   354.00076033
 H     32  31  30     1.078070357902   118.63087465   178.96253388
 H     33  32  31     1.078482083268   119.58720465   181.50754089
 H     34  20   1     1.096526369061   111.79551382    68.62272205
 H     34  20   1     1.088732240694   105.51175236   186.91789164
 H     34  20   1     1.093116114184   111.62468567   305.44978264
 H     35  19   3     1.089164384018   105.32304982   185.46369006
 H     35  19   3     1.092073095508   111.23689245   303.81790256
 H     35  19   3     1.095491787063   111.67565179    66.87106406
 H     36  23  13     1.089261138009   105.69620243   174.76662795
 H     36  23  13     1.092809441318   111.07068461   293.17542619
 H     36  23  13     1.094122213436   111.41138271    56.41650486
 H     37  25  24     0.968549943443   107.46226394    46.83001172
 H     38  17   8     0.970570832411   108.50863724   307.51294873
 H     39  18   9     0.963571057476   108.72450407   303.08353085
 H     41  31  30     0.967065905275   107.46166377   356.60961388
 H     42  40  30     1.094474267484   111.46193742   295.76263522
 H     42  40  30     1.094688114842   110.92161151    58.49374339
 H     42  40  30     1.088995387556   105.70146591   177.08799656

---------------------------
INTERNAL COORDINATES (A.U.)
---------------------------
 C      0   0   0     0.000000000000     0.00000000     0.00000000
 C      1   0   0     2.657620134275     0.00000000     0.00000000
 C      2   1   0     2.645935714087   118.71106486     0.00000000
 C      3   2   1     2.621406913500   119.43193037   357.21136095
 C      4   3   2     2.616899311997   121.67366591     0.29181437
 C      1   2   3     2.617836445880   120.72103344     2.40838342
 C      5   4   3     2.832946215103   119.00628237   187.97785152
 C      7   5   4     2.917410116074   109.08559335    72.19800909
 C      8   7   5     2.925285322751   111.75014112    66.32735118
 C      9   8   7     2.912132100786   110.45003802   220.46118278
 C     10   9   8     2.844691494109   111.89360956    73.23735452
 C     11  10   9     2.633521118958   119.43927705    73.60096870
 C     12  11  10     2.611340274524   121.35963555   179.10609549
 C     13  12  11     2.659789628826   119.69890356     1.37223136
 C     14  13  12     2.618311109219   118.65468190   358.20906404
 C     11  10   9     2.614295844299   121.95664728   252.89360381
 C      8   7   5     2.910930295292   110.06401847   195.90824416
 C      9   8   7     2.900801978969   115.35958361    95.95093726
 O      3   2   1     2.601872236238   118.22915219   175.83561075
 O      1   2   3     2.580475242136   114.89049191   180.25768500
 O      2   1   3     2.581041199304   113.90613984   183.03782064
 O     14  13  12     2.555433314258   122.33011621   178.89039047
 O     13  12  11     2.598840915390   125.11407863   182.98057365
 C     21   2   1     2.682315852825   122.46737527   205.53486418
 C     24  21   2     2.954428747269   113.81008038    64.51957408
 C     25  24  21     2.865319325011   110.08451974     4.99905769
 C     24  21   2     2.899848237851   103.88591496   187.60202258
 O     27  24  21     2.651925780548   110.75440530    58.37141121
 C     26  25  24     2.628224229659   120.82849618   256.95937296
 C     29  26  25     2.611069804927   120.44475275   173.95533277
 C     30  29  26     2.651014626058   119.75843172     0.99594466
 C     31  30  29     2.614446236455   119.57440010     1.29669797
 C     32  31  30     2.614015133092   120.20169149   357.82584997
 C     20   1   2     2.659323160893   118.32382308   169.10083301
 C     19   3   2     2.663595188206   118.86689884   175.14167318
 C     23  13  12     2.658736422568   118.73747860   359.27679148
 O     25  24  21     2.650657517402   110.54118891   238.56526602
 O     17   8   7     2.646331765916   114.92635050   316.65364702
 O     18   9   8     2.669562276481   113.84825540   302.88907162
 O     30  29  26     2.604121737053   125.57558159   181.96188780
 O     31  30  29     2.576318591989   120.15952296   181.82096516
 C     40  30  29     2.655549037557   117.94997007     4.36207801
 H      4   3   2     2.036669175600   119.94613070   181.82299668
 H      6   1   2     2.038427937751   120.20454103   180.65892208
 H      7   5   4     2.062775094096   110.44705979   313.59410313
 H      7   5   4     2.059018992874   111.17654800   194.17606109
 H      8   7   5     2.068060515692   106.67769330   310.90992213
 H      9   8   7     2.072164581682   107.11525752   336.57657647
 H     10   9   8     2.061828935624   109.45461099   310.92192673
 H     10   9   8     2.065892190400   108.81053560   193.40241272
 H     12  11  10     2.039219303102   118.65307855     0.18559929
 H     15  14  13     2.038784673859   117.92306415   182.17427006
 H     16  11  10     2.041939465656   120.00702331   359.18899808
 H     17   8   7     2.068615580885   108.62370385    73.97644482
 H     17   8   7     2.081963604089   109.39396385   190.95055032
 H     18   9   8     2.062943819928   111.32488124    62.21571136
 H     18   9   8     2.077975014858   108.63361121   180.55499809
 H     22  14  13     1.838743047439   111.06867002   355.55542220
 H     24  21   2     2.072169008719   110.26952055   302.62751862
 H     25  24  21     2.071872316661   108.50651537   123.67899431
 H     27  24  21     2.062014542282   109.93530510   176.28551814
 H     27  24  21     2.074966697742   109.24574919   296.45480589
 H     28  27  24     1.834324532221   106.92777461   304.84694688
 H     29  26  25     2.037044553660   119.24009611   354.00076033
 H     32  31  30     2.037257729533   118.63087465   178.96253388
 H     33  32  31     2.038035777718   119.58720465   181.50754089
 H     34  20   1     2.072134536149   111.79551382    68.62272205
 H     34  20   1     2.057405768083   105.51175236   186.91789164
 H     34  20   1     2.065690088384   111.62468567   305.44978264
 H     35  19   3     2.058222400614   105.32304982   185.46369006
 H     35  19   3     2.063719068734   111.23689245   303.81790256
 H     35  19   3     2.070179459509   111.67565179    66.87106406
 H     36  23  13     2.058405239160   105.69620243   174.76662795
 H     36  23  13     2.065110560655   111.07068461   293.17542619
 H     36  23  13     2.067591340433   111.41138271    56.41650486
 H     37  25  24     1.830294140132   107.46226394    46.83001172
 H     38  17   8     1.834113066829   108.50863724   307.51294873
 H     39  18   9     1.820885409203   108.72450407   303.08353085
 H     41  31  30     1.827489714423   107.46166377   356.60961388
 H     42  40  30     2.068256626168   111.46193742   295.76263522
 H     42  40  30     2.068660739110   110.92161151    58.49374339
 H     42  40  30     2.057903043585   105.70146591   177.08799656

---------------------
BASIS SET INFORMATION
---------------------
There are 3 groups of distinct atoms

 Group   1 Type C   : 11s6p2d1f contracted to 5s3p2d1f pattern {62111/411/11/1}
 Group   2 Type O   : 11s6p2d1f contracted to 5s3p2d1f pattern {62111/411/11/1}
 Group   3 Type H   : 5s1p contracted to 3s1p pattern {311/1}

Atom   0C    basis set group =>   1
Atom   1C    basis set group =>   1
Atom   2C    basis set group =>   1
Atom   3C    basis set group =>   1
Atom   4C    basis set group =>   1
Atom   5C    basis set group =>   1
Atom   6C    basis set group =>   1
Atom   7C    basis set group =>   1
Atom   8C    basis set group =>   1
Atom   9C    basis set group =>   1
Atom  10C    basis set group =>   1
Atom  11C    basis set group =>   1
Atom  12C    basis set group =>   1
Atom  13C    basis set group =>   1
Atom  14C    basis set group =>   1
Atom  15C    basis set group =>   1
Atom  16C    basis set group =>   1
Atom  17C    basis set group =>   1
Atom  18O    basis set group =>   2
Atom  19O    basis set group =>   2
Atom  20O    basis set group =>   2
Atom  21O    basis set group =>   2
Atom  22O    basis set group =>   2
Atom  23C    basis set group =>   1
Atom  24C    basis set group =>   1
Atom  25C    basis set group =>   1
Atom  26C    basis set group =>   1
Atom  27O    basis set group =>   2
Atom  28C    basis set group =>   1
Atom  29C    basis set group =>   1
Atom  30C    basis set group =>   1
Atom  31C    basis set group =>   1
Atom  32C    basis set group =>   1
Atom  33C    basis set group =>   1
Atom  34C    basis set group =>   1
Atom  35C    basis set group =>   1
Atom  36O    basis set group =>   2
Atom  37O    basis set group =>   2
Atom  38O    basis set group =>   2
Atom  39O    basis set group =>   2
Atom  40O    basis set group =>   2
Atom  41C    basis set group =>   1
Atom  42H    basis set group =>   3
Atom  43H    basis set group =>   3
Atom  44H    basis set group =>   3
Atom  45H    basis set group =>   3
Atom  46H    basis set group =>   3
Atom  47H    basis set group =>   3
Atom  48H    basis set group =>   3
Atom  49H    basis set group =>   3
Atom  50H    basis set group =>   3
Atom  51H    basis set group =>   3
Atom  52H    basis set group =>   3
Atom  53H    basis set group =>   3
Atom  54H    basis set group =>   3
Atom  55H    basis set group =>   3
Atom  56H    basis set group =>   3
Atom  57H    basis set group =>   3
Atom  58H    basis set group =>   3
Atom  59H    basis set group =>   3
Atom  60H    basis set group =>   3
Atom  61H    basis set group =>   3
Atom  62H    basis set group =>   3
Atom  63H    basis set group =>   3
Atom  64H    basis set group =>   3
Atom  65H    basis set group =>   3
Atom  66H    basis set group =>   3
Atom  67H    basis set group =>   3
Atom  68H    basis set group =>   3
Atom  69H    basis set group =>   3
Atom  70H    basis set group =>   3
Atom  71H    basis set group =>   3
Atom  72H    basis set group =>   3
Atom  73H    basis set group =>   3
Atom  74H    basis set group =>   3
Atom  75H    basis set group =>   3
Atom  76H    basis set group =>   3
Atom  77H    basis set group =>   3
Atom  78H    basis set group =>   3
Atom  79H    basis set group =>   3
Atom  80H    basis set group =>   3
Atom  81H    basis set group =>   3
---------------------------------
AUXILIARY/J BASIS SET INFORMATION
---------------------------------
There are 3 groups of distinct atoms

 Group   1 Type C   : 12s5p4d2f1g contracted to 6s4p3d1f1g pattern {711111/2111/211/2/1}
 Group   2 Type O   : 12s5p4d2f1g contracted to 6s4p3d1f1g pattern {711111/2111/211/2/1}
 Group   3 Type H   : 5s2p1d contracted to 3s1p1d pattern {311/2/1}

Atom   0C    basis set group =>   1
Atom   1C    basis set group =>   1
Atom   2C    basis set group =>   1
Atom   3C    basis set group =>   1
Atom   4C    basis set group =>   1
Atom   5C    basis set group =>   1
Atom   6C    basis set group =>   1
Atom   7C    basis set group =>   1
Atom   8C    basis set group =>   1
Atom   9C    basis set group =>   1
Atom  10C    basis set group =>   1
Atom  11C    basis set group =>   1
Atom  12C    basis set group =>   1
Atom  13C    basis set group =>   1
Atom  14C    basis set group =>   1
Atom  15C    basis set group =>   1
Atom  16C    basis set group =>   1
Atom  17C    basis set group =>   1
Atom  18O    basis set group =>   2
Atom  19O    basis set group =>   2
Atom  20O    basis set group =>   2
Atom  21O    basis set group =>   2
Atom  22O    basis set group =>   2
Atom  23C    basis set group =>   1
Atom  24C    basis set group =>   1
Atom  25C    basis set group =>   1
Atom  26C    basis set group =>   1
Atom  27O    basis set group =>   2
Atom  28C    basis set group =>   1
Atom  29C    basis set group =>   1
Atom  30C    basis set group =>   1
Atom  31C    basis set group =>   1
Atom  32C    basis set group =>   1
Atom  33C    basis set group =>   1
Atom  34C    basis set group =>   1
Atom  35C    basis set group =>   1
Atom  36O    basis set group =>   2
Atom  37O    basis set group =>   2
Atom  38O    basis set group =>   2
Atom  39O    basis set group =>   2
Atom  40O    basis set group =>   2
Atom  41C    basis set group =>   1
Atom  42H    basis set group =>   3
Atom  43H    basis set group =>   3
Atom  44H    basis set group =>   3
Atom  45H    basis set group =>   3
Atom  46H    basis set group =>   3
Atom  47H    basis set group =>   3
Atom  48H    basis set group =>   3
Atom  49H    basis set group =>   3
Atom  50H    basis set group =>   3
Atom  51H    basis set group =>   3
Atom  52H    basis set group =>   3
Atom  53H    basis set group =>   3
Atom  54H    basis set group =>   3
Atom  55H    basis set group =>   3
Atom  56H    basis set group =>   3
Atom  57H    basis set group =>   3
Atom  58H    basis set group =>   3
Atom  59H    basis set group =>   3
Atom  60H    basis set group =>   3
Atom  61H    basis set group =>   3
Atom  62H    basis set group =>   3
Atom  63H    basis set group =>   3
Atom  64H    basis set group =>   3
Atom  65H    basis set group =>   3
Atom  66H    basis set group =>   3
Atom  67H    basis set group =>   3
Atom  68H    basis set group =>   3
Atom  69H    basis set group =>   3
Atom  70H    basis set group =>   3
Atom  71H    basis set group =>   3
Atom  72H    basis set group =>   3
Atom  73H    basis set group =>   3
Atom  74H    basis set group =>   3
Atom  75H    basis set group =>   3
Atom  76H    basis set group =>   3
Atom  77H    basis set group =>   3
Atom  78H    basis set group =>   3
Atom  79H    basis set group =>   3
Atom  80H    basis set group =>   3
Atom  81H    basis set group =>   3
--------------------------------------------------------------------------
WARNING: There was an error initializing an OpenFabrics device.

  Local host:   c01b01n05
  Local device: mlx5_0
--------------------------------------------------------------------------
--------------------------------------------------------------------------
WARNING: There is at least one non-excluded one OpenFabrics device found,
but there are no active ports detected (or Open MPI was unable to use
them).  This is most certainly not what you wanted.  Check your
cables, subnet manager configuration, etc.  The openib BTL will be
ignored for this job.

  Local host: c01b01n05
--------------------------------------------------------------------------


           ************************************************************
           *        Program running with 64 parallel MPI-processes    *
           *              working on a common directory               *
           ************************************************************
------------------------------------------------------------------------------
                             ORCA STARTUP CALCULATIONS
                           -- RI-GTO INTEGRALS CHOSEN --
------------------------------------------------------------------------------
------------------------------------------------------------------------------
                   ___                                                        
                  /   \      - P O W E R E D   B Y -                         
                 /     \                                                     
                 |  |  |   _    _      __       _____    __    __             
                 |  |  |  | |  | |    /  \     |  _  \  |  |  /  |          
                  \  \/   | |  | |   /    \    | | | |  |  | /  /          
                 / \  \   | |__| |  /  /\  \   | |_| |  |  |/  /          
                |  |  |   |  __  | /  /__\  \  |    /   |      \           
                |  |  |   | |  | | |   __   |  |    \   |  |\   \          
                \     /   | |  | | |  |  |  |  | |\  \  |  | \   \       
                 \___/    |_|  |_| |__|  |__|  |_| \__\ |__|  \__/        
                                                                              
                      - O R C A' S   B I G   F R I E N D -                    
                                      &                                       
                       - I N T E G R A L  F E E D E R -                       
                                                                              
 v1 FN, 2020, v2 2021, v3 2022-2024                                           
------------------------------------------------------------------------------


----------------------
SHARK INTEGRAL PACKAGE
----------------------

Number of atoms                             ...     82
Number of basis functions                   ...   1542
Number of shells                            ...    622
Maximum angular momentum                    ...      3
Integral batch strategy                     ... SHARK/LIBINT Hybrid
RI-J (if used) integral strategy            ... SPLIT-RIJ (Revised 2003 algorithm where possible)
Printlevel                                  ...      1
Contraction scheme used                     ... SEGMENTED contraction
Prescreening option                         ... SCHWARTZ
   Thresh                                   ... 2.500e-11
   Tcut                                     ... 2.500e-12
   Tpresel                                  ... 2.500e-12 
Coulomb Range Separation                    ... NOT USED
Exchange Range Separation                   ... NOT USED
Multipole approximations                    ... NOT USED
Finite Nucleus Model                        ... NOT USED
CABS basis                                  ... NOT available
Auxiliary Coulomb fitting basis             ... AVAILABLE
   # of basis functions in Aux-J            ...   2498
   # of shells in Aux-J                     ...    830
   Maximum angular momentum in Aux-J        ...      4
Auxiliary J/K fitting basis                 ... NOT available
Auxiliary Correlation fitting basis         ... NOT available
Auxiliary 'external' fitting basis          ... NOT available

Checking pre-screening integrals            ... done (  0.3 sec) Dimension = 622
   => SHARK Basis and OBASIS are compatible. Storing Pre-screening
Shell pair information
Shell pair cut-off parameter TPreSel        ...   2.5e-12
Total number of shell pairs                 ...    193753
Shell pairs after pre-screening             ...    121803
Total number of primitive shell pairs       ...    584784
Primitive shell pairs kept                  ...    230344
          la=0 lb=0:  33886 shell pairs
          la=1 lb=0:  36235 shell pairs
          la=1 lb=1:   9791 shell pairs
          la=2 lb=0:  16585 shell pairs
          la=2 lb=1:   9029 shell pairs
          la=2 lb=2:   2084 shell pairs
          la=3 lb=0:   7561 shell pairs
          la=3 lb=1:   4258 shell pairs
          la=3 lb=2:   1908 shell pairs
          la=3 lb=3:    466 shell pairs

Checking whether 4 symmetric matrices of dimension 1542 fit in memory
:Max Core in MB      =   6000.00
 MB in use           =    145.90
 MB left             =   5854.10
 MB needed           =     36.31
 Data fit in memory  = YES
[c01b01n05:2142411] 57 more processes have sent help message help-mpi-btl-openib.txt / error in device init
[c01b01n05:2142411] Set MCA parameter "orte_base_help_aggregate" to 0 to see all help / error messages
[c01b01n05:2142411] 5 more processes have sent help message help-mpi-btl-openib.txt / no active ports found
Calculating RI/J V-Matrix + Cholesky decomp.... done (  1.8 sec)
Calculating Nuclear repulsion               ... done (  0.0 sec) ENN=   5946.412334919787 Eh

Diagonalization of the overlap matrix:
Smallest eigenvalue                        ... 2.079e-06
Time for diagonalization                   ...   30.516 sec
Threshold for overlap eigenvalues          ... 1.000e-07
Number of eigenvalues below threshold      ... 0
Time for construction of square roots      ...    2.156 sec
Total time needed                          ...   32.988 sec

-------------------
DFT GRID GENERATION
-------------------

General Integration Accuracy     IntAcc      ... 4.388
Radial Grid Type                 RadialGrid  ... OptM3 with GC (2021)
Angular Grid (max. ang.)         AngularGrid ... 4 (Lebedev-302)
Angular grid pruning method      GridPruning ... 4 (adaptive)
Weight generation scheme         WeightScheme... mBecke (2022)
Basis function cutoff            BFCut       ... 1.0000e-11
Integration weight cutoff        WCut        ... 1.0000e-14
Partially contracted basis set               ... off
Rotationally invariant grid construction     ... off
Angular grids for H and He will be reduced by one unit

Total number of grid points                  ...   373036
Total number of batches                      ...     5866
Average number of points per batch           ...       63
Average number of grid points per atom       ...     4549

--------------------
COSX GRID GENERATION
--------------------

GRIDX 1
-------
General Integration Accuracy     IntAcc      ... 3.816
Radial Grid Type                 RadialGrid  ... OptM3 with GC (2021)
Angular Grid (max. ang.)         AngularGrid ... 1 (Lebedev-50)
Angular grid pruning method      GridPruning ... 4 (adaptive)
Weight generation scheme         WeightScheme... mBecke (2022)
Basis function cutoff            BFCut       ... 1.0000e-11
Integration weight cutoff        WCut        ... 1.0000e-14
Partially contracted basis set               ... on
Rotationally invariant grid construction     ... off
Angular grids for H and He will be reduced by one unit

Total number of grid points                  ...    47189
Total number of batches                      ...      413
Average number of points per batch           ...      114
Average number of grid points per atom       ...      575
UseSFitting                                  ... on

GRIDX 2
-------
General Integration Accuracy     IntAcc      ... 4.020
Radial Grid Type                 RadialGrid  ... OptM3 with GC (2021)
Angular Grid (max. ang.)         AngularGrid ... 2 (Lebedev-110)
Angular grid pruning method      GridPruning ... 4 (adaptive)
Weight generation scheme         WeightScheme... mBecke (2022)
[...]
freq.     645.83  E(vib)   ...       0.09 
freq.     654.67  E(vib)   ...       0.08 
freq.     670.57  E(vib)   ...       0.08 
freq.     696.52  E(vib)   ...       0.07 
freq.     706.85  E(vib)   ...       0.07 
freq.     735.42  E(vib)   ...       0.06 
freq.     740.75  E(vib)   ...       0.06 
freq.     746.99  E(vib)   ...       0.06 
freq.     752.93  E(vib)   ...       0.06 
freq.     765.30  E(vib)   ...       0.06 
freq.     766.33  E(vib)   ...       0.06 
freq.     784.98  E(vib)   ...       0.05 
freq.     809.05  E(vib)   ...       0.05 
freq.     822.24  E(vib)   ...       0.05 
freq.     834.82  E(vib)   ...       0.04 
freq.     838.11  E(vib)   ...       0.04 
freq.     848.77  E(vib)   ...       0.04 
freq.     856.21  E(vib)   ...       0.04 
freq.     878.81  E(vib)   ...       0.04 
freq.     896.83  E(vib)   ...       0.03 
freq.     898.40  E(vib)   ...       0.03 
freq.     911.22  E(vib)   ...       0.03 
freq.     916.54  E(vib)   ...       0.03 
freq.     924.65  E(vib)   ...       0.03 
freq.     932.63  E(vib)   ...       0.03 
freq.     940.46  E(vib)   ...       0.03 
freq.     945.64  E(vib)   ...       0.03 
freq.     949.91  E(vib)   ...       0.03 
freq.     953.56  E(vib)   ...       0.03 
freq.     985.96  E(vib)   ...       0.02 
freq.     994.19  E(vib)   ...       0.02 
freq.     999.49  E(vib)   ...       0.02 
freq.    1002.97  E(vib)   ...       0.02 
freq.    1021.90  E(vib)   ...       0.02 
freq.    1038.38  E(vib)   ...       0.02 
freq.    1043.38  E(vib)   ...       0.02 
freq.    1046.90  E(vib)   ...       0.02 
freq.    1048.93  E(vib)   ...       0.02 
freq.    1056.76  E(vib)   ...       0.02 
freq.    1060.84  E(vib)   ...       0.02 
freq.    1077.24  E(vib)   ...       0.02 
freq.    1083.99  E(vib)   ...       0.02 
freq.    1106.58  E(vib)   ...       0.02 
freq.    1108.55  E(vib)   ...       0.02 
freq.    1125.86  E(vib)   ...       0.01 
freq.    1141.64  E(vib)   ...       0.01 
freq.    1143.00  E(vib)   ...       0.01 
freq.    1145.13  E(vib)   ...       0.01 
freq.    1164.70  E(vib)   ...       0.01 
freq.    1169.59  E(vib)   ...       0.01 
freq.    1171.65  E(vib)   ...       0.01 
freq.    1171.79  E(vib)   ...       0.01 
freq.    1173.25  E(vib)   ...       0.01 
freq.    1173.98  E(vib)   ...       0.01 
freq.    1176.92  E(vib)   ...       0.01 
freq.    1185.51  E(vib)   ...       0.01 
freq.    1194.97  E(vib)   ...       0.01 
freq.    1197.51  E(vib)   ...       0.01 
freq.    1208.94  E(vib)   ...       0.01 
freq.    1213.18  E(vib)   ...       0.01 
freq.    1213.64  E(vib)   ...       0.01 
freq.    1220.90  E(vib)   ...       0.01 
freq.    1222.24  E(vib)   ...       0.01 
freq.    1239.31  E(vib)   ...       0.01 
freq.    1244.28  E(vib)   ...       0.01 
freq.    1247.10  E(vib)   ...       0.01 
freq.    1251.70  E(vib)   ...       0.01 
freq.    1256.50  E(vib)   ...       0.01 
freq.    1266.92  E(vib)   ...       0.01 
freq.    1276.50  E(vib)   ...       0.01 
freq.    1278.51  E(vib)   ...       0.01 
freq.    1279.68  E(vib)   ...       0.01 
freq.    1290.91  E(vib)   ...       0.01 
freq.    1292.25  E(vib)   ...       0.01 
freq.    1296.92  E(vib)   ...       0.01 
freq.    1311.08  E(vib)   ...       0.01 
freq.    1320.65  E(vib)   ...       0.01 
freq.    1327.14  E(vib)   ...       0.01 
freq.    1341.90  E(vib)   ...       0.01 
freq.    1352.14  E(vib)   ...       0.01 
freq.    1358.10  E(vib)   ...       0.01 
freq.    1361.78  E(vib)   ...       0.01 
freq.    1363.28  E(vib)   ...       0.01 
freq.    1366.19  E(vib)   ...       0.01 
freq.    1380.95  E(vib)   ...       0.01 
freq.    1383.77  E(vib)   ...       0.00 
freq.    1389.41  E(vib)   ...       0.00 
freq.    1392.48  E(vib)   ...       0.00 
freq.    1397.93  E(vib)   ...       0.00 
freq.    1401.59  E(vib)   ...       0.00 
freq.    1402.66  E(vib)   ...       0.00 
freq.    1414.72  E(vib)   ...       0.00 
freq.    1421.28  E(vib)   ...       0.00 
freq.    1438.41  E(vib)   ...       0.00 
freq.    1455.64  E(vib)   ...       0.00 
freq.    1459.65  E(vib)   ...       0.00 
freq.    1460.78  E(vib)   ...       0.00 
freq.    1463.92  E(vib)   ...       0.00 
freq.    1477.98  E(vib)   ...       0.00 
freq.    1479.72  E(vib)   ...       0.00 
freq.    1480.86  E(vib)   ...       0.00 
freq.    1481.11  E(vib)   ...       0.00 
freq.    1481.28  E(vib)   ...       0.00 
freq.    1481.66  E(vib)   ...       0.00 
freq.    1481.71  E(vib)   ...       0.00 
freq.    1483.84  E(vib)   ...       0.00 
freq.    1485.04  E(vib)   ...       0.00 
freq.    1487.96  E(vib)   ...       0.00 
freq.    1491.02  E(vib)   ...       0.00 
freq.    1492.78  E(vib)   ...       0.00 
freq.    1494.14  E(vib)   ...       0.00 
freq.    1494.28  E(vib)   ...       0.00 
freq.    1494.97  E(vib)   ...       0.00 
freq.    1498.98  E(vib)   ...       0.00 
freq.    1511.53  E(vib)   ...       0.00 
freq.    1537.84  E(vib)   ...       0.00 
freq.    1543.16  E(vib)   ...       0.00 
freq.    1543.75  E(vib)   ...       0.00 
freq.    1629.53  E(vib)   ...       0.00 
freq.    1633.89  E(vib)   ...       0.00 
freq.    1642.27  E(vib)   ...       0.00 
freq.    1643.50  E(vib)   ...       0.00 
freq.    1647.18  E(vib)   ...       0.00 
freq.    1650.30  E(vib)   ...       0.00 
freq.    2977.12  E(vib)   ...       0.00 
freq.    3014.91  E(vib)   ...       0.00 
freq.    3016.13  E(vib)   ...       0.00 
freq.    3020.13  E(vib)   ...       0.00 
freq.    3024.32  E(vib)   ...       0.00 
freq.    3024.75  E(vib)   ...       0.00 
freq.    3029.30  E(vib)   ...       0.00 
freq.    3030.01  E(vib)   ...       0.00 
freq.    3031.78  E(vib)   ...       0.00 
freq.    3032.15  E(vib)   ...       0.00 
freq.    3033.86  E(vib)   ...       0.00 
freq.    3042.91  E(vib)   ...       0.00 
freq.    3052.71  E(vib)   ...       0.00 
freq.    3058.54  E(vib)   ...       0.00 
freq.    3077.72  E(vib)   ...       0.00 
freq.    3080.02  E(vib)   ...       0.00 
freq.    3087.55  E(vib)   ...       0.00 
freq.    3090.84  E(vib)   ...       0.00 
freq.    3092.99  E(vib)   ...       0.00 
freq.    3099.35  E(vib)   ...       0.00 
freq.    3103.35  E(vib)   ...       0.00 
freq.    3112.12  E(vib)   ...       0.00 
freq.    3134.27  E(vib)   ...       0.00 
freq.    3138.28  E(vib)   ...       0.00 
freq.    3140.88  E(vib)   ...       0.00 
freq.    3144.22  E(vib)   ...       0.00 
freq.    3168.24  E(vib)   ...       0.00 
freq.    3173.17  E(vib)   ...       0.00 
freq.    3185.13  E(vib)   ...       0.00 
freq.    3187.91  E(vib)   ...       0.00 
freq.    3201.23  E(vib)   ...       0.00 
freq.    3209.05  E(vib)   ...       0.00 
freq.    3211.34  E(vib)   ...       0.00 
freq.    3230.87  E(vib)   ...       0.00 
freq.    3515.59  E(vib)   ...       0.00 
freq.    3548.71  E(vib)   ...       0.00 
freq.    3630.49  E(vib)   ...       0.00 
freq.    3680.58  E(vib)   ...       0.00 
freq.    3720.25  E(vib)   ...       0.00 
freq.    3764.35  E(vib)   ...       0.00 

------------
INNER ENERGY
------------

The inner energy is: U= E(el) + E(ZPE) + E(vib) + E(rot) + E(trans)
    E(el)   - is the total energy from the electronic structure calculation
              = E(kin-el) + E(nuc-el) + E(el-el) + E(nuc-nuc)
    E(ZPE)  - the the zero temperature vibrational energy from the frequency calculation
    E(vib)  - the the finite temperature correction to E(ZPE) due to population
              of excited vibrational states
    E(rot)  - is the rotational thermal energy
    E(trans)- is the translational thermal energy

Summary of contributions to the inner energy U:
Electronic energy                ...  -2032.63504662 Eh
Zero point energy                ...      0.68039239 Eh     426.95 kcal/mol
Thermal vibrational correction   ...      0.03921984 Eh      24.61 kcal/mol
Thermal rotational correction    ...      0.00141627 Eh       0.89 kcal/mol
Thermal translational correction ...      0.00141627 Eh       0.89 kcal/mol
-----------------------------------------------------------------------
Total thermal energy                  -2031.91260185 Eh


Summary of corrections to the electronic energy:
(perhaps to be used in another calculation)
Total thermal correction                  0.04205238 Eh      26.39 kcal/mol
Non-thermal (ZPE) correction              0.68039239 Eh     426.95 kcal/mol
-----------------------------------------------------------------------
Total correction                          0.72244478 Eh     453.34 kcal/mol


--------
ENTHALPY
--------

The enthalpy is H = U + kB*T
                kB is Boltzmann's constant
Total thermal energy              ...  -2031.91260185 Eh 
Thermal Enthalpy correction       ...      0.00094421 Eh       0.59 kcal/mol
-----------------------------------------------------------------------
Total Enthalpy                    ...  -2031.91165764 Eh


Note: Only C1 symmetry has been detected, increase convergence thresholds 
      if your molecule has a higher symmetry. Symmetry factor of 1.0 is   
      used for the rotational entropy correction. 
 

Note: Rotational entropy computed according to Herzberg 
Infrared and Raman Spectra, Chapter V,1, Van Nostrand Reinhold, 1945 
Point Group:  C1, Symmetry Number:   1  
Rotational constants in cm-1:     0.003850     0.002453     0.001963 

Vibrational entropy computed according to the QRRHO of S. Grimme
Chem.Eur.J. 2012 18 9955 using a reference frequency of 100.0 cm-1


-------
ENTROPY
-------

The entropy contributions are T*S = T*(S(el)+S(vib)+S(rot)+S(trans))
     S(el)   - electronic entropy
     S(vib)  - vibrational entropy
     S(rot)  - rotational entropy
     S(trans)- translational entropy
The entropies will be listed as multiplied by the temperature to get
units of energy

Electronic entropy                ...      0.00000000 Eh      0.00 kcal/mol
Vibrational entropy               ...      0.06957645 Eh     43.66 kcal/mol
Rotational entropy                ...      0.01791558 Eh     11.24 kcal/mol
Translational entropy             ...      0.02138181 Eh     13.42 kcal/mol
-----------------------------------------------------------------------
Final entropy term                ...      0.10887384 Eh     68.32 kcal/mol

In case the symmetry of your molecule has not been determined correctly
or in case you have a reason to use a different symmetry number we print 
out the resulting rotational entropy values for sn=1,12:

 non-linear molecules -----------------------------------
|  sn= 1 | S(rot)=       0.01791558 Eh     11.24 kcal/mol|
|  sn= 2 | S(rot)=       0.01726112 Eh     10.83 kcal/mol|
|  sn= 3 | S(rot)=       0.01687829 Eh     10.59 kcal/mol|
|  sn= 4 | S(rot)=       0.01660667 Eh     10.42 kcal/mol|
|  sn= 5 | S(rot)=       0.01639598 Eh     10.29 kcal/mol|
|  sn= 6 | S(rot)=       0.01622383 Eh     10.18 kcal/mol|
|  sn= 7 | S(rot)=       0.01607829 Eh     10.09 kcal/mol|
|  sn= 8 | S(rot)=       0.01595221 Eh     10.01 kcal/mol|
|  sn= 9 | S(rot)=       0.01584100 Eh      9.94 kcal/mol|
|  sn=10 | S(rot)=       0.01574152 Eh      9.88 kcal/mol|
|  sn=11 | S(rot)=       0.01565153 Eh      9.82 kcal/mol|
|  sn=12 | S(rot)=       0.01556938 Eh      9.77 kcal/mol|
 linear molecules ---------------------------------------
|  Dinfh | S(rot)=       0.01121103 Eh      7.04 kcal/mol|
|  Cinfv | S(rot)=       0.01186548 Eh      7.45 kcal/mol|
 --------------------------------------------------------


-------------------
GIBBS FREE ENERGY
-------------------

The Gibbs free energy is G = H - T*S

Total enthalpy                    ...  -2031.91165764 Eh 
Total entropy correction          ...     -0.10887384 Eh    -68.32 kcal/mol
-----------------------------------------------------------------------
Final Gibbs free energy         ...  -2032.02053148 Eh

For completeness - the Gibbs free energy minus the electronic energy
G-E(el)                           ...      0.61451514 Eh    385.61 kcal/mol


Maximum memory used throughout the entire PROP-calculation: 1825.5 MB
--------------------------------------------------------------------------
WARNING: There was an error initializing an OpenFabrics device.

  Local host:   c01b01n05
  Local device: mlx5_0
--------------------------------------------------------------------------
--------------------------------------------------------------------------
WARNING: There is at least one non-excluded one OpenFabrics device found,
but there are no active ports detected (or Open MPI was unable to use
them).  This is most certainly not what you wanted.  Check your
cables, subnet manager configuration, etc.  The openib BTL will be
ignored for this job.

  Local host: c01b01n05
--------------------------------------------------------------------------
[c01b01n05:2241411] 58 more processes have sent help message help-mpi-btl-openib.txt / error in device init
[c01b01n05:2241411] Set MCA parameter "orte_base_help_aggregate" to 0 to see all help / error messages
[c01b01n05:2241411] 4 more processes have sent help message help-mpi-btl-openib.txt / no active ports found

--------------------------------
SUGGESTED CITATIONS FOR THIS RUN
--------------------------------

Below you find a list of papers that are relevant to this ORCA run
We neither can nor want to force you to cite these papers, but we appreciate if you do
You receive ORCA, which is the product of decades of hard work by many enthusiastic individuals, for free
The only thing we kindly ask in return is that you cite our papers,
We deeply appreciate it, if you show your appreciation for ORCA by not just citing the generic ORCA reference.

Please note that relegating all ORCA citations to the supporting information does *not* help us.
SI sections are not indexed - citations you put there will not count into any citation statistics
But we need these citations in order to attract the funding resources that allow us to do what we are doing

Therefore, if you are a happy ORCA user, please consider citing a few of the papers listed below in the main body of your paper

In addition to the list printed below, the program has created the file opt-conf-14.bibtex that contains the list in bibtex format
You can import this file easily into all common literature databanks and citation aid programs


List of essential papers. We consider these as the minimum necessary citations

  1. Neese, F.
     Software update: the ORCA program system, version 6.0
     WIRES Comput. Molec. Sci. 2025 15(1), e70019
     doi.org/10.1002/wcms.7019

List of papers to cite with high priority. The work reported in these papers was absolutely
necessary for this run to complete.
Our perspective: the developers of density functionals and basis sets usually get cited in chemistry papers
Good! But without the algorithms to do something with them, the functionals or basis sets would not do anything.
Hence, in our opinion, the algorithm design and method developments papers are equally worthy of getting cited

  1. Neese, F.
     An improvement of the resolution of the identity approximation for the formation of the Coulomb matrix
     J. Comp. Chem. 2003 24(14), 1740-1747
     doi.org/10.1002/jcc.10318
  2. Neese, F.; Wennmohs, F.; Hansen, A.; Becker, U.
     Efficient, approximate and parallel Hartree-Fock and hybrid DFT calculations. A 'chain-of-spheres' algorithm for the Hartree-Fock exchange
     Chem. Phys. 2009 356(1-3), 98-109
     doi.org/10.1016/j.chemphys.2008.10.036
  3. Bykov, D.; Petrenko, T.; Izsak, R.; Kossmann, S.; Becker, U.; Valeev, E.; Neese, F.
     Efficient implementation of the analytic second derivatives of Hartree-Fock and hybrid DFT energies: a detailed analysis of different approximations
     Molec. Phys. 2015 113 , 1961-1977
     doi.org/10.1080/00268976.2015.1025114
  4. Caldeweyher, E.; Bannwarth, C.; Grimme, S.
     Extension of the D3 dispersion coefficient model
     J. Chem. Phys. 2017 147 , 034112
     doi.org/10.1063/1.4993215
  5. Caldeweyher, E.; Ehlert, S.; Hansen, A.; Neugebauer, H.; Spicher, S.; Bannwarth, C.; Grimme, S.
     A generally applicable atomic-charge dependent London dispersion correction
     J. Chem. Phys. 2019 150 , 154122
     doi.org/10.1063/1.5090222
  6. Garcia-Rates, M.; Neese, F.
     Efficient implementation of the analytical second derivatives of hartree-fock and hybrid DFT energies within the framework of the conductor-like polarizable continuum model
     J. Comput. Chem. 2019 40 , 1816-1828
     doi.org/10.1002/jcc.25833
  7. Caldeweyher, E.; Mewes, J.; Ehlert, S.; Grimme, S.
     Extension and evaluation of the D4 London-dispersion model for periodic systems
     Phys. Chem. Chem. Phys. 2020 22(16), 8499-8512
     doi.org/10.1039/D0CP00502A
  8. Garcia-Rates, M.; Neese, F.
     Effect of the Solute Cavity on the Solvation Energy and its Derivatives within the Framework of the Gaussian Charge Scheme
     J. Comput. Chem. 2020 41 , 922-939
     doi.org/10.1002/jcc.26139
  9. Helmich-Paris, B.; de Souza, B.; Neese, F.; Izsák, R.
     An improved chain of spheres for exchange algorithm
     J. Chem. Phys. 2021 155(10), 104109
     doi.org/10.1063/5.0058766
 10. Neese, F.
     The SHARK Integral Generation and Digestion System
     J. Comp. Chem. 2022 44(3), 381
     doi.org/10.1002/jcc.26942
 11. Wittmann, L.; Gordiy, I.; Friede, M.; Helmich-Paris, B.; Grimme, S.; Hansen, A.; Bursch, M.
     Extension of the D3 and D4 London Dispersion Corrections to the full Actinides Series
     Phys. Chem. Chem. Phys. 2024 26(32), 21379-21394
     doi.org/10.1039/D4CP01514B

List of suggested additional citations. These are papers that are important in the 'surrounding' of 
of this run, or papers that preceded the highly important papers. If you like your results we are grateful for a citation.

  1. Izsak, R.; Neese, F.
     An overlap fitted chain of spheres exchange method
     J. Chem. Phys. 2011 135 , 144105
     doi.org/10.1063/1.3646921
  2. Izsak, R.; Hansen, A.; Neese, F.
     The resolution of identity and chain of spheres approximations for the LPNO-CCSD singles Fock term
     Molec. Phys. 2012 110 , 2413-2417
     doi.org/10.1080/00268976.2012.687466
  3. Neese, F.
     The ORCA program system
     WIRES Comput. Molec. Sci. 2012 2(1), 73-78
     doi.org/10.1002/wcms.81
  4. Izsak, R.; Neese, F.; Klopper, W.
     Robust fitting techniques in the chain of spheres approximation to the Fock exchange: The role of the complementary space
     J. Chem. Phys. 2013 139 , 
     doi.org/10.1063/1.4819264
  5. Neese, F.
     Software update: the ORCA program system, version 4.0
     WIRES Comput. Molec. Sci. 2018 8(1), 1-6
     doi.org/10.1002/wcms.1327
  6. Neese, F.; Wennmohs, F.; Becker, U.; Riplinger, C.
     The ORCA quantum chemistry program package
     J. Chem. Phys. 2020 152(22), 224108
     doi.org/10.1063/5.0004608
  7. Neese, F.
     Software update: The ORCA program system—Version 5.0
     WIRES Comput. Molec. Sci. 2022 12(1), e1606
     doi.org/10.1002/wcms.1606

List of optional additional citations

  1. Neese, F.
     Approximate second-order SCF convergence for spin unrestricted wavefunctions
     Chem. Phys. Lett. 2000 325(1-3), 93-98
     doi.org/10.1016/s0009-2614(00)00662-x

Timings for individual modules:

Sum of individual times          ...    21187.229 sec (= 353.120 min)
Startup calculation              ...     1850.504 sec (=  30.842 min)   8.7 %
SCF iterations                   ...    12265.444 sec (= 204.424 min)  57.9 %
Property integrals               ...     1546.889 sec (=  25.781 min)   7.3 %
SCF Response                     ...     3395.506 sec (=  56.592 min)  16.0 %
Property calculations            ...      849.309 sec (=  14.155 min)   4.0 %
SCF Gradient evaluation          ...     1263.090 sec (=  21.052 min)   6.0 %
Geometry relaxation              ...       16.487 sec (=   0.275 min)   0.1 %
                             ****ORCA TERMINATED NORMALLY****
TOTAL RUN TIME: 0 days 6 hours 1 minutes 16 seconds 872 msec
