
                                 *****************
                                 * O   R   C   A *
                                 *****************

                                            #,                                       
                                            ###                                      
                                            ####                                     
                                            #####                                    
                                            ######                                   
                                           ########,                                 
                                     ,,################,,,,,                         
                               ,,#################################,,                 
                          ,,##########################################,,             
                       ,#########################################, ''#####,          
                    ,#############################################,,   '####,        
                  ,##################################################,,,,####,       
                ,###########''''           ''''###############################       
              ,#####''   ,,,,##########,,,,          '''####'''          '####       
            ,##' ,,,,###########################,,,                        '##       
           ' ,,###''''                  '''############,,,                           
         ,,##''                                '''############,,,,        ,,,,,,###''
      ,#''                                            '''#######################'''  
     '                                                          ''''####''''         
             ,#######,   #######,   ,#######,      ##                                
            ,#'     '#,  ##    ##  ,#'     '#,    #''#        ,####,    ,#,          
            ##       ##  ##   ,#'  ##            #'  '#       #'       ,# #          
            ##       ##  #######   ##           ,######,      #####,      #          
            '#,     ,#'  ##    ##  '#,     ,#' ,#      #,     #,   #      #          
             '#######'   ##     ##  '#######'  #'      '#     '####' #    #          



                #########################################################
                #                        -***-                          #
                #          Department of theory and spectroscopy        #
                #                                                       #
                #                      Frank Neese                      #
                #                                                       #
                #     Directorship, Architecture, Infrastructure        #
                #                    SHARK, DRIVERS                     #
                #        Core code/Algorithms in most modules           #
                #                                                       #
                #        Max Planck Institute fuer Kohlenforschung      #
                #                Kaiser Wilhelm Platz 1                 #
                #                 D-45470 Muelheim/Ruhr                 #
                #                      Germany                          #
                #                                                       #
                #                  All rights reserved                  #
                #                        -***-                          #
                #########################################################


                         Program Version 6.1.0-f.0  -   RELEASE   -


 With contributions from (in alphabetic order):
[Max-Planck-Institut fuer Kohlenforschung]                               
  Daniel Aravena         : Magnetic Suceptibility                        
  Michael Atanasov       : Ab Initio Ligand Field Theory (pilot matlab implementation)
  Alexander A. Auer      : GIAO ZORA, VPT2 properties, NMR spectrum      
  Ute Becker             : All parallelization in ORCA, NUMFREQ, NUMCALC 
  Giovanni Bistoni       : ED, misc. LED, open-shell LED, HFLD           
  Dmytro Bykov           : pre 5.0 version of the SCF Hessian            
  Marcos Casanova-Páez   : Triplet and SCS-CIS(D). UHF-(DLPNO)-IP/EA/STEOM-CCSD. UHF-CVS-IP/STEOM-CCSD   
  Vijay G. Chilkuri      : MRCI spin determinant printing, contributions to CSF-ICE 
  Pauline Colinet        : FMM embedding                                 
  Dipayan Datta          : RHF DLPNO-CCSD density                        
  Achintya Kumar Dutta   : EOM-CC, STEOM-CC                              
  Nicolas Foglia         : Exact transition moments, OPA infrastructure, MCD improvements    
  Dmitry Ganyushin       : Spin-Orbit,Spin-Spin,Magnetic field MRCI      
  Miquel Garcia-Rates    : C-PCM and meta-GGA Hessian, CCSD/C-PCM, Gaussian charge scheme 
  Tiago L. C. Gouveia    : GS-ROHF, GS-ROCIS                             
  Yang Guo               : DLPNO-NEVPT2, F12-NEVPT2, CIM, IAO-localization        
  Andreas Hansen         : Spin unrestricted coupled pair/coupled cluster methods 
  Ingolf Harden          : AUTO-CI MPn and infrastructure                
  Benjamin Helmich-Paris : MC-RPA, TRAH-(SCF,CASSCF), AVAS, COSX integrals, SCF dyn. polar., MC-PDFT, srDFT 
  Lee Huntington         : MR-EOM, pCC                                   
  Robert Izsak           : Overlap fitted RIJCOSX, COSX-SCS-MP3, EOM     
  Riya Kayal             : Wick's Theorem for AUTO-CI, AUTO-CI UHF-CCSDT 
  Emily Kempfer          : AUTO-CI RHF CISDT and CCSDT, approximate NEVPT4
  Christian Kollmar      : KDIIS, OOCD, Brueckner-CCSD(T), CCSD density, CASPT2, CASPT2-K, improved NEVPT2 
  Axel Koslowski         : Symmetry handling                             
  Simone Kossmann        : meta-GGA functionals, TD-DFT gradient, OOMP2, (MP2 Hessian; deprecated post 5.0) 
  Lucas Lang             : DCDCAS, Hyperfine gauge corrections, ICE-SOC+SSC
  Marvin Lechner         : AUTO-CI (C++ implementation), FIC-MRCC        
  Spencer Leger          : CASSCF response                               
  Dagmar Lenk            : GEPOL surface, SMD, ORCA-2-JSON               
  Dimitrios Liakos       : Extrapolation schemes; Compound Job, Property file
  Dimitrios Manganas     : Further ROCIS development; embedding schemes. LFT, Crystal Embedding 
  Dimitrios Pantazis     : SARC Basis sets                               
  Anastasios Papadopoulos: AUTO-CI, single reference methods and gradients 
  Taras Petrenko         : pre 6.0 DFT Hessian and TD-DFT gradient,  ECA, NRVS 
  Petra Pikulova         : Analytic Raman intensities                    
  Peter Pinski           : DLPNO-MP2, DLPNO-MP2 Gradient                 
  Shashank Vittal Rao    : ES-AILFT, MagRelax                            
  Christoph Reimann      : Effective Core Potentials                     
  Marius Retegan         : Local ZFS, SOC                                
  Christoph Riplinger    : Optimizer, TS searches, QM/MM, DLPNO-CCSD(T), (RO)-DLPNO pert. Triples 
  Michael Roemelt        : Original ROCIS implementation, recursive CI coupling coefficients
  Masaaki Saitow         : Open-shell DLPNO-CCSD energy and density      
  Barbara Sandhoefer     : DKH picture change effects                    
  Yorick L. A. Schmerwitz: GMF and freeze-and-release deltaSCF, NEB S-IDPP initial path                    
  Kantharuban Sivalingam : CASSCF convergence/infrastructure, NEVPT2, NEVPT3, NEVPT4(SD), FIC-MRCI and CEPA variants
  Bernardo de Souza      : ESD, SOC TD-DFT                               
  Georgi L. Stoychev     : AutoAux, RI-MP2 NMR, DLPNO-MP2 response, X2C  
  Van Anh Tran           : RI-MP2 g-tensors                              
  Willem Van den Heuvel  : Paramagnetic NMR                              
  Zikuan Wang            : NOTCH, Electric field optimization            
  Frank Wennmohs         : Technical directorship and infrastructure     
  Hang Xu                : AUTO-CI-Response properties                   
                                                                         
[FACCTs GmbH]                                                            
  Markus Bursch, Nicolas Foglia, Miquel Garcia-Rates, Ingolf Harden, Hagen Neugebauer, Anastasios Papadopoulos, 
  Christoph Riplinger, Bernardo de Souza, Georgi L. Stoychev                                                    
                                                                 
  APM, various basis sets, CI-OPT, improved COSX, DLPNO-Multilevel,           
  DOCKER, DRACO, updates on ESD, Fragmentator, GOAT, IRC, LR-CPCM, L-BFGS, MBIS, meta-GGA TD-DFT gradient, ML-optimized integration grids, 
  MM, NACMEs, nearIR, NEB, NEB-TS, NL-DFT gradient (VV10), 2- and 3-layer-ONIOM, interface openCOSMO-RS, QMMM,   
  Crystal-QMMM, RESP, rigid body optimization, SF, symmetry and pop. for TD-DFT, various functionals, SOLVATOR                                   
                                                                         
[Other institutions]                                                     
  V. Asgeirsson          : NEB                                           
  Christoph Bannwarth    : sTDA-DFT, sTD-DFT, PBEh-3c, B97-3c, D3        
  Giovanni Bistoni       : ETS/NOCV, ADLD/ADEX, COVALED                  
  Martin Brehm           : Molecular dynamics                            
  Ronald Cardenas        : ETS/NOCV                                      
  Martina Colucci        : COVALED                                       
  Sebastian Ehlert       : rSCAN, r2SCAN, r2SCAN-3c, D4, dhf basis sets  
  Marvin Friede          : D4 for Fr, Ra, Ac-Lr                          
  Lars Goerigk           : TD-DFT with DH, B97 family of functionals     
  Stefan Grimme          : VdW corrections, initial TS optimization, DFT functionals, gCP, sTDA/sTD-DF 
  Waldemar Hujo          : DFT-NL                                        
  H. Jonsson             : NEB                                           
  Holger Kruse           : gCP                                           
  Marcel Mueller         : wB97X-3c, vDZP basis set                      
  Hagen Neugebauer       : wr2SCAN, Native XTB                           
  Gianluca Regni         : ADLD/ADEX                                     
  Tobias Risthaus        : pre 6.0 range-separated hybrid DFT and stability analysis
  Lukas Wittmann         : regularized MP2, r2SCAN double-hybrids, wr2SCAN        
                                                                         
We gratefully acknowledge several colleagues who have allowed us to      
interface, adapt or use parts of their codes:                            
  Ed Valeev, F. Pavosevic, A. Kumar             : LibInt (2-el integral package), F12 methods 
  Garnet Chan, S. Sharma, J. Yang, R. Olivares  : DMRG                   
  Ulf Ekstrom                                   : XCFun DFT Library      
  Mihaly Kallay                                 : mrcc  (arbitrary order and MRCC methods)
  Frank Weinhold                                : gennbo (NPA and NBO analysis)           
  Simon Mueller                                 : openCOSMO-RS                            
  Christopher J. Cramer and Donald G. Truhlar   : smd solvation model                     
  S Lehtola, MJT Oliveira, MAL Marques          : LibXC Library                           
  Liviu Ungur et al                             : ANISO software                          


 Your calculation uses the libint2 library for the computation of 2-el integrals
 For citations please refer to: http://libint.valeyev.net

 Your ORCA version has been built with support for libXC version: 7.0.0
 For citations please refer to: https://libxc.gitlab.io

 This ORCA versions uses:
   CBLAS   interface :  Fast vector & matrix operations
   LAPACKE interface :  Fast linear algebra routines
   SCALAPACK package :  Parallel linear algebra routines
   Shared memory     :  Shared parallel matrices
   BLAS/LAPACK       :  OpenBLAS 0.3.29  USE64BITINT DYNAMIC_ARCH NO_AFFINITY Cooperlake SINGLE_THREADED
        Core in use  :  Cooperlake
   Copyright (c) 2011-2014, The OpenBLAS Project


  ***********************************
  * Starting time: Sat Feb 28 01:41:33 2026
  * Host name:     c08b01n06
  * Process ID:    2527857
  * Working dir.:  /lustre1/jiangy/jiangy_liuxy/NMR/B9D7C2-SSRS
  ***********************************

NOTE: MaxCore=6000 MB was set to SCF,MP2,MDCI,CIPSI,MRCI,RASCI and CIS
      => If you want to overwrite this, your respective input block should be placed after the MaxCore statement


***************************************
The coordinates will be read from file: conf-1.xyz
***************************************


Your calculation utilizes the atom-pairwise dispersion correction
based on EEQ partial charges (D4)


Warning: RI is on but no J-basis has been assigned. Assigning Def2/J (nothing to worry about!)
================================================================================

----- Orbital basis set information -----
Your calculation utilizes the basis: def2-TZVP
   F. Weigend and R. Ahlrichs, Phys. Chem. Chem. Phys. 7, 3297 (2005).

----- AuxJ basis set information -----
Your calculation utilizes the auxiliary basis: def2/J
   H-Rn: F. Weigend, Phys. Chem. Chem. Phys. 8, 1057 (2006).
   Fr-Lr: K. Eichkorn, F. Weigend, O. Treutler, R. Ahlrichs; Theor. Chem. Acc. 97, 119 (1997).

================================================================================
                                        WARNINGS
                       Please study these warnings very carefully!
================================================================================


WARNING: Geometry Optimization
  ===> : Switching off AutoStart
         For restart on a previous wavefunction, please use MOREAD

================================================================================
                                       INPUT FILE
================================================================================
NAME = opt-conf-1.inp
|  1> ! B3LYP OPT FREQ DEF2-TZVP D4 CPCM(Methanol) 
|  2> ! TightOpt
|  3> %pal nprocs 64 end
|  4> %maxcore 6000
|  5> 
|  6> %cpcm
|  7> end
|  8> 
|  9> %freq
| 10>    Temp 298.15
| 11> end
| 12> 
| 13> * xyzfile 0 1 conf-1.xyz
| 14> 
| 15> 
| 16>                          ****END OF INPUT****
================================================================================

                       *****************************
                       * Geometry Optimization Run *
                       *****************************

Geometry optimization settings:
Update method            Update   .... BFGS
Choice of coordinates    CoordSys .... (2022) Redundant Internals
Initial Hessian          InHess   .... Almloef's Model
Max. no of cycles        MaxIter  .... 246

Convergence Tolerances:
Energy Change            TolE     ....  1.0000e-06 Eh
Max. Gradient            TolMAXG  ....  1.0000e-04 Eh/bohr
RMS Gradient             TolRMSG  ....  3.0000e-05 Eh/bohr
Max. Displacement        TolMAXD  ....  1.0000e-03 bohr
RMS Displacement         TolRMSD  ....  6.0000e-04 bohr
Strict Convergence                .... False

------------------------------------------------------------------------------
                        ORCA OPTIMIZATION COORDINATE SETUP
------------------------------------------------------------------------------

The optimization will be done in redundant internal coordinates (2022)
Making redundant internal coordinates   ...  (2022 redundants) done
Evaluating the initial hessian          ...  (Almloef) done
Evaluating the coordinates              ...  done
Calculating the B-matrix                .... done
Calculating the G-matrix                .... done
The number of degrees of freedom        ....  406

    -----------------------------------------------------------------
                    Redundant Internal Coordinates


    -----------------------------------------------------------------
         Definition                    Initial Value    Approx d2E/dq
    -----------------------------------------------------------------
      1. B(C   1,C   0)                  1.4041         0.593227   
      2. B(C   2,C   1)                  1.4006         0.600864   
      3. B(C   3,C   2)                  1.3903         0.624093   
      4. B(C   4,C   3)                  1.3859         0.634194   
      5. B(C   5,C   4)                  1.3877         0.630193   
      6. B(C   5,C   0)                  1.3864         0.633133   
      7. B(C   6,C   4)                  1.5041         0.410853   
      8. B(C   7,C   6)                  1.5415         0.358069   
      9. B(C   8,C   7)                  1.5461         0.352056   
     10. B(C   9,C   8)                  1.5536         0.342582   
     11. B(C  10,C   9)                  1.5035         0.411747   
     12. B(C  11,C  10)                  1.3928         0.618427   
     13. B(C  12,C  11)                  1.3797         0.648937   
     14. B(C  13,C  12)                  1.4033         0.595043   
     15. B(C  14,C  13)                  1.3834         0.640032   
     16. B(C  15,C  10)                  1.3851         0.636091   
     17. B(C  15,C  14)                  1.3864         0.633113   
     18. B(C  16,C   7)                  1.5353         0.366375   
     19. B(C  17,C   8)                  1.5481         0.349592   
     20. B(O  18,C   2)                  1.3681         0.606557   
     21. B(O  19,C   0)                  1.3664         0.610336   
     22. B(O  20,C   1)                  1.3727         0.596258   
     23. B(O  21,C  13)                  1.3624         0.619388   
     24. B(O  22,C  12)                  1.3837         0.572687   
     25. B(C  23,O  20)                  1.4179         0.505030   
     26. B(C  24,C  23)                  1.5555         0.340126   
     27. B(C  25,C  24)                  1.5042         0.410656   
     28. B(C  26,C  23)                  1.5367         0.364433   
     29. B(O  27,C  26)                  1.4035         0.532587   
     30. B(C  28,C  25)                  1.3903         0.624079   
     31. B(C  29,C  28)                  1.3820         0.643532   
     32. B(C  30,C  29)                  1.4029         0.595880   
     33. B(C  31,C  30)                  1.3830         0.640996   
     34. B(C  32,C  31)                  1.3835         0.639826   
     35. B(C  32,C  25)                  1.3833         0.640373   
     36. B(C  33,O  19)                  1.4057         0.528242   
     37. B(C  34,O  18)                  1.4085         0.522922   
     38. B(C  35,O  22)                  1.4109         0.518171   
     39. B(O  36,C  24)                  1.4119         0.516404   
     40. B(O  37,C  16)                  1.4128         0.514569   
     41. B(O  38,C  17)                  1.4003         0.538728   
     42. B(O  39,C  29)                  1.3763         0.588448   
     43. B(O  40,C  30)                  1.3683         0.605988   
     44. B(C  41,O  39)                  1.4079         0.523909   
     45. B(H  42,C   3)                  1.0780         0.376354   
     46. B(H  43,C   5)                  1.0783         0.375894   
     47. B(H  44,C   6)                  1.0922         0.357208   
     48. B(H  45,C   6)                  1.0896         0.360566   
     49. B(H  46,C   7)                  1.0943         0.354458   
     50. B(H  47,C   8)                  1.0972         0.350744   
     51. B(H  48,C   9)                  1.0927         0.356579   
     52. B(H  49,C   9)                  1.0917         0.357909   
     53. B(H  50,C  11)                  1.0777         0.376807   
     54. B(H  51,C  14)                  1.0784         0.375713   
     55. B(H  52,C  15)                  1.0804         0.372981   
     56. B(H  53,C  16)                  1.0928         0.356393   
     57. B(H  54,C  16)                  1.0971         0.350783   
     58. B(H  55,C  17)                  1.0947         0.353940   
     59. B(H  56,C  17)                  1.0983         0.349321   
     60. B(H  57,O  21)                  0.9668         0.507095   
     61. B(H  57,O  22)                  2.1280         0.010000   
     62. B(H  58,C  23)                  1.0938         0.355156   
     63. B(H  59,C  24)                  1.0995         0.347789   
     64. B(H  60,C  26)                  1.0987         0.348785   
     65. B(H  61,C  26)                  1.0921         0.357379   
     66. B(H  62,O  20)                  2.3677         0.010000   
     67. B(H  62,O  27)                  0.9664         0.507906   
     68. B(H  63,C  28)                  1.0769         0.377817   
     69. B(H  64,C  31)                  1.0775         0.377018   
     70. B(H  65,C  32)                  1.0788         0.375239   
     71. B(H  66,C  33)                  1.0948         0.353825   
     72. B(H  67,C  33)                  1.0891         0.361314   
     73. B(H  68,H  64)                  4.2055         0.010000   
     74. B(H  68,C  33)                  1.0953         0.353212   
     75. B(H  69,C  34)                  1.0893         0.360969   
     76. B(H  70,H  51)                  2.6164         0.010000   
     77. B(H  70,C  34)                  1.0935         0.355535   
     78. B(H  71,C  34)                  1.0924         0.356890   
     79. B(H  72,C  35)                  1.0932         0.355914   
     80. B(H  73,C  35)                  1.0891         0.361277   
     81. B(H  74,C  35)                  1.0931         0.355981   
     82. B(H  75,O  36)                  0.9631         0.514082   
     83. B(H  76,O  40)                  1.9494         0.013725   
     84. B(H  76,O  37)                  0.9724         0.496778   
     85. B(H  77,O  37)                  1.8058         0.023254   
     86. B(H  77,O  38)                  0.9763         0.489781   
     87. B(H  78,O  39)                  2.1240         0.010000   
     88. B(H  78,O  22)                  2.2975         0.010000   
     89. B(H  78,O  40)                  0.9701         0.501056   
     90. B(H  79,H  71)                  2.6383         0.010000   
     91. B(H  79,C  41)                  1.0935         0.355479   
     92. B(H  80,C  41)                  1.0889         0.361534   
     93. B(H  81,C  41)                  1.0936         0.355314   
     94. A(C   1,C   0,O  19)          114.8655         0.426622   
     95. A(C   5,C   0,O  19)          124.7474         0.431634   
     96. A(C   1,C   0,C   5)          120.3871         0.432260   
     97. A(C   0,C   1,O  20)          114.9579         0.424843   
     98. A(C   0,C   1,C   2)          119.1097         0.428220   
     99. A(C   2,C   1,O  20)          125.6892         0.425817   
    100. A(C   3,C   2,O  18)          123.4690         0.430040   
    101. A(C   1,C   2,C   3)          119.4842         0.432137   
    102. A(C   1,C   2,O  18)          117.0432         0.427125   
    103. A(C   4,C   3,H  42)          118.4879         0.356928   
    104. A(C   2,C   3,H  42)          120.2632         0.355957   
    105. A(C   2,C   3,C   4)          121.2210         0.436355   
    106. A(C   5,C   4,C   6)          120.8249         0.404542   
    107. A(C   3,C   4,C   6)          119.8183         0.404994   
    108. A(C   3,C   4,C   5)          119.3436         0.437121   
    109. A(C   4,C   5,H  43)          119.1418         0.356471   
    110. A(C   0,C   5,H  43)          120.4649         0.356753   
    111. A(C   0,C   5,C   4)          120.3916         0.436989   
    112. A(C   4,C   6,H  44)          109.6957         0.329001   
    113. A(C   7,C   6,H  45)          108.2788         0.322140   
    114. A(C   4,C   6,C   7)          113.5111         0.366645   
    115. A(H  44,C   6,H  45)          108.2217         0.290530   
    116. A(C   4,C   6,H  45)          108.3284         0.329510   
    117. A(C   7,C   6,H  44)          108.6711         0.321647   
    118. A(C   6,C   7,C  16)          109.4895         0.359538   
    119. A(C   8,C   7,C  16)          114.3898         0.358502   
    120. A(C  16,C   7,H  46)          106.6858         0.322449   
    121. A(C   8,C   7,H  46)          108.9976         0.320352   
    122. A(C   6,C   7,H  46)          107.9774         0.321240   
    123. A(C   6,C   7,C   8)          109.1006         0.357107   
    124. A(C   7,C   8,C  17)          114.7633         0.355657   
    125. A(C  17,C   8,H  47)          103.9627         0.319434   
    126. A(C   7,C   8,C   9)          111.7006         0.354438   
    127. A(C   9,C   8,H  47)          106.5530         0.318380   
    128. A(C   7,C   8,H  47)          107.2718         0.319801   
    129. A(C   9,C   8,C  17)          111.8385         0.354016   
    130. A(H  48,C   9,H  49)          107.0257         0.290113   
    131. A(C  10,C   9,H  48)          108.6000         0.329024   
    132. A(C  10,C   9,H  49)          108.3950         0.329226   
    133. A(C   8,C   9,C  10)          115.6309         0.364016   
    134. A(C   8,C   9,H  48)          107.9603         0.319238   
    135. A(C   8,C   9,H  49)          108.9064         0.319432   
    136. A(C   9,C  10,C  11)          119.8451         0.403354   
    137. A(C  11,C  10,C  15)          118.9411         0.435873   
    138. A(C   9,C  10,C  15)          121.2106         0.405364   
    139. A(C  10,C  11,C  12)          120.6902         0.437447   
    140. A(C  10,C  11,H  50)          118.4468         0.355479   
    141. A(C  12,C  11,H  50)          120.8360         0.358399   
    142. A(C  11,C  12,C  13)          120.0001         0.434420   
    143. A(C  13,C  12,O  22)          115.1622         0.422022   
    144. A(C  11,C  12,O  22)          124.8278         0.428621   
    145. A(C  12,C  13,O  21)          120.4873         0.427983   
    146. A(C  12,C  13,C  14)          119.2236         0.433341   
    147. A(C  14,C  13,O  21)          120.2891         0.433622   
    148. A(C  13,C  14,H  51)          118.5066         0.357381   
    149. A(C  13,C  14,C  15)          120.2807         0.438209   
    150. A(C  15,C  14,H  51)          121.2112         0.356722   
    151. A(C  14,C  15,H  52)          119.0847         0.356280   
    152. A(C  10,C  15,H  52)          120.1454         0.356564   
    153. A(C  10,C  15,C  14)          120.7688         0.437721   
    154. A(O  37,C  16,H  54)          109.2818         0.338441   
    155. A(C   7,C  16,H  54)          108.2579         0.321899   
    156. A(O  37,C  16,H  53)          106.1745         0.339338   
    157. A(C   7,C  16,H  53)          111.4244         0.322736   
    158. A(C   7,C  16,O  37)          113.3317         0.380261   
    159. A(H  53,C  16,H  54)          108.2468         0.289176   
    160. A(O  38,C  17,H  56)          109.6519         0.340806   
    161. A(C   8,C  17,O  38)          116.3221         0.380194   
    162. A(H  55,C  17,H  56)          107.3383         0.288675   
    163. A(C   8,C  17,H  56)          108.6230         0.319222   
    164. A(O  38,C  17,H  55)          106.2756         0.341556   
    165. A(C   8,C  17,H  55)          108.2628         0.319908   
    166. A(C   2,O  18,C  34)          118.5496         0.413961   
    167. A(C   0,O  19,C  33)          118.2405         0.415165   
    168. A(C   1,O  20,C  23)          121.7122         0.410164   
    169. A(C  13,O  21,H  57)          107.0865         0.368465   
    170. A(C  12,O  22,C  35)          117.4946         0.409101   
    171. A(C  26,C  23,H  58)          109.4608         0.322272   
    172. A(C  24,C  23,H  58)          109.2225         0.318656   
    173. A(O  20,C  23,H  58)          111.6885         0.338084   
    174. A(C  24,C  23,C  26)          111.1457         0.356086   
    175. A(O  20,C  23,C  26)          104.1067         0.378681   
    176. A(O  20,C  23,C  24)          111.1412         0.374190   
    177. A(C  23,C  24,O  36)          110.6238         0.375632   
    178. A(O  36,C  24,H  59)          110.5396         0.338158   
    179. A(C  25,C  24,H  59)          109.2258         0.327528   
    180. A(C  23,C  24,H  59)          107.7282         0.317569   
    181. A(C  25,C  24,O  36)          109.2103         0.388121   
    182. A(C  23,C  24,C  25)          109.4850         0.363403   
    183. A(C  28,C  25,C  32)          119.8444         0.437117   
    184. A(C  24,C  25,C  32)          120.9709         0.405654   
    185. A(C  24,C  25,C  28)          119.1600         0.403812   
    186. A(O  27,C  26,H  61)          107.1619         0.341454   
    187. A(H  60,C  26,H  61)          108.5749         0.289042   
    188. A(C  23,C  26,H  61)          110.7374         0.322602   
    189. A(O  27,C  26,H  60)          110.6987         0.340067   
    190. A(C  23,C  26,H  60)          107.9080         0.321318   
    191. A(C  23,C  26,O  27)          111.7329         0.382185   
    192. A(C  26,O  27,H  62)          106.5661         0.359173   
    193. A(C  29,C  28,H  63)          121.3506         0.358052   
    194. A(C  25,C  28,H  63)          118.4119         0.356190   
    195. A(C  25,C  28,C  29)          120.2373         0.437505   
    196. A(C  30,C  29,O  39)          114.9996         0.424181   
    197. A(C  28,C  29,O  39)          125.4106         0.430068   
    198. A(C  28,C  29,C  30)          119.5898         0.433876   
    199. A(C  31,C  30,O  40)          120.1458         0.432037   
    200. A(C  29,C  30,O  40)          120.0723         0.426417   
    201. A(C  29,C  30,C  31)          119.7791         0.433568   
    202. A(C  32,C  31,H  64)          120.3795         0.357572   
    203. A(C  30,C  31,H  64)          119.4816         0.357683   
    204. A(C  30,C  31,C  32)          120.1327         0.439163   
    205. A(C  31,C  32,H  65)          119.6678         0.357285   
    206. A(C  25,C  32,H  65)          120.0631         0.357337   
    207. A(C  25,C  32,C  31)          120.2625         0.439086   
    208. A(H  67,C  33,H  68)          109.2253         0.290112   
    209. A(H  66,C  33,H  68)          109.3445         0.289161   
    210. A(O  19,C  33,H  68)          111.6668         0.340318   
    211. A(H  66,C  33,H  67)          109.1719         0.290191   
    212. A(O  19,C  33,H  67)          105.6589         0.341611   
    213. A(O  19,C  33,H  66)          111.6699         0.340417   
    214. A(H  69,C  34,H  71)          109.5496         0.290541   
    215. A(O  18,C  34,H  71)          111.8727         0.340331   
    216. A(H  69,C  34,H  70)          109.1534         0.290367   
    217. A(O  18,C  34,H  70)          111.3161         0.340115   
    218. A(O  18,C  34,H  69)          105.5120         0.340979   
    219. A(H  70,C  34,H  71)          109.3401         0.289850   
    220. A(H  73,C  35,H  74)          109.5810         0.290463   
    221. A(H  72,C  35,H  74)          109.1412         0.289782   
    222. A(O  22,C  35,H  74)          111.0639         0.339668   
    223. A(H  72,C  35,H  73)          109.5309         0.290455   
    224. A(O  22,C  35,H  73)          105.6048         0.340507   
    225. A(O  22,C  35,H  72)          111.8503         0.339657   
    226. A(C  24,O  36,H  75)          108.0261         0.358028   
    227. A(C  16,O  37,H  76)          108.1980         0.355736   
    228. A(C  17,O  38,H  77)          105.8297         0.357656   
    229. A(C  29,O  39,C  41)          117.5647         0.411878   
    230. A(C  30,O  40,H  78)          107.7542         0.366331   
    231. A(H  80,C  41,H  81)          109.4356         0.290410   
    232. A(H  79,C  41,H  81)          109.6224         0.289642   
    233. A(O  39,C  41,H  81)          111.1474         0.340187   
    234. A(H  79,C  41,H  80)          109.2019         0.290431   
    235. A(O  39,C  41,H  80)          105.9527         0.341176   
    236. A(O  39,C  41,H  79)          111.3921         0.340213   
    237. D(O  20,C   1,C   0,O  19)      5.8676         0.024231   
    238. D(C   2,C   1,C   0,O  19)   -179.4757         0.024231   
    239. D(C   2,C   1,C   0,C   5)      0.6190         0.024231   
    240. D(O  20,C   1,C   0,C   5)   -174.0378         0.024231   
    241. D(O  18,C   2,C   1,C   0)   -177.7416         0.024893   
    242. D(C   3,C   2,C   1,C   0)      1.5978         0.024893   
    243. D(C   3,C   2,C   1,O  20)    175.6312         0.024893   
    244. D(O  18,C   2,C   1,O  20)     -3.7082         0.024893   
    245. D(C   4,C   3,C   2,C   1)     -2.8758         0.026974   
    246. D(H  42,C   3,C   2,O  18)     -1.6299         0.026974   
    247. D(C   4,C   3,C   2,O  18)    176.4189         0.026974   
    248. D(H  42,C   3,C   2,C   1)    179.0754         0.026974   
    249. D(C   6,C   4,C   3,H  42)      1.2756         0.027911   
    250. D(C   5,C   4,C   3,H  42)    179.9635         0.027911   
    251. D(C   5,C   4,C   3,C   2)      1.8810         0.027911   
    252. D(C   6,C   4,C   3,C   2)   -176.8070         0.027911   
    253. D(H  43,C   5,C   4,C   6)     -0.4602         0.027537   
    254. D(H  43,C   5,C   4,C   3)   -179.1346         0.027537   
    255. D(C   0,C   5,C   4,C   3)      0.3890         0.027537   
    256. D(C   4,C   5,C   0,O  19)    178.4773         0.027811   
    257. D(H  43,C   5,C   0,C   1)    177.8901         0.027811   
    258. D(H  43,C   5,C   0,O  19)     -2.0054         0.027811   
    259. D(C   0,C   5,C   4,C   6)    179.0634         0.027537   
    260. D(C   4,C   5,C   0,C   1)     -1.6271         0.027811   
    261. D(H  45,C   6,C   4,C   3)     42.1247         0.012500   
    262. D(H  44,C   6,C   4,C   5)    -18.6092         0.012500   
    263. D(H  44,C   6,C   4,C   3)    160.0589         0.012500   
    264. D(C   7,C   6,C   4,C   5)    103.1629         0.012500   
    265. D(C   7,C   6,C   4,C   3)    -78.1689         0.012500   
    266. D(C   8,C   7,C   6,H  44)    -70.3335         0.010294   
    267. D(C   8,C   7,C   6,C   4)    167.3251         0.010294   
    268. D(C  16,C   7,C   6,H  45)    172.8855         0.010294   
    269. D(C  16,C   7,C   6,H  44)     55.5486         0.010294   
    270. D(C   8,C   7,C   6,H  45)     47.0035         0.010294   
    271. D(C  16,C   7,C   6,C   4)    -66.7928         0.010294   
    272. D(C  17,C   8,C   7,H  46)    -83.5229         0.010000   
    273. D(C  17,C   8,C   7,C  16)     35.7860         0.010000   
    274. D(C  17,C   8,C   7,C   6)    158.7888         0.010000   
    275. D(C   9,C   8,C   7,C  16)    164.4304         0.010000   
    276. D(C   9,C   8,C   7,H  46)     45.1215         0.010000   
    277. D(C   9,C   8,C   7,C   6)    -72.5668         0.010000   
    278. D(H  48,C   9,C   8,C  17)    -24.8011         0.010000   
    279. D(H  48,C   9,C   8,C   7)   -154.9787         0.010000   
    280. D(C  10,C   9,C   8,H  47)   -149.9971         0.010000   
    281. D(C  10,C   9,C   8,C  17)     97.0300         0.010000   
    282. D(H  48,C   9,C   8,H  47)     88.1718         0.010000   
    283. D(C  10,C   9,C   8,C   7)    -33.1476         0.010000   
    284. D(C  15,C  10,C   9,H  48)   -117.0577         0.012553   
    285. D(C  15,C  10,C   9,C   8)    121.4539         0.012553   
    286. D(C  11,C  10,C   9,H  49)    179.5462         0.012553   
    287. D(C  11,C  10,C   9,H  48)     63.6023         0.012553   
    288. D(C  11,C  10,C   9,C   8)    -57.8862         0.012553   
    289. D(H  50,C  11,C  10,C  15)    178.7054         0.026456   
    290. D(H  50,C  11,C  10,C   9)     -1.9395         0.026456   
    291. D(C  12,C  11,C  10,C  15)     -3.1709         0.026456   
    292. D(C  12,C  11,C  10,C   9)    176.1842         0.026456   
    293. D(O  22,C  12,C  11,H  50)      1.8947         0.029315   
    294. D(C  13,C  12,C  11,H  50)   -179.3046         0.029315   
    295. D(O  22,C  12,C  11,C  10)   -176.1839         0.029315   
    296. D(C  13,C  12,C  11,C  10)      2.6167         0.029315   
    297. D(O  21,C  13,C  12,C  11)   -179.8690         0.024388   
    298. D(C  14,C  13,C  12,O  22)    179.0164         0.024388   
    299. D(C  14,C  13,C  12,C  11)      0.1041         0.024388   
    300. D(O  21,C  13,C  12,O  22)     -0.9567         0.024388   
    301. D(H  51,C  14,C  13,O  21)     -1.8144         0.028461   
    302. D(H  51,C  14,C  13,C  12)    178.2124         0.028461   
    303. D(C  15,C  14,C  13,O  21)    177.7433         0.028461   
    304. D(C  15,C  14,C  13,C  12)     -2.2299         0.028461   
    305. D(H  52,C  15,C  14,H  51)      0.8396         0.027809   
    306. D(H  52,C  15,C  14,C  13)   -178.7060         0.027809   
    307. D(C  10,C  15,C  14,H  51)   -178.7836         0.027809   
    308. D(C  10,C  15,C  14,C  13)      1.6708         0.027809   
    309. D(H  52,C  15,C  10,C  11)   -178.5921         0.028089   
    310. D(H  52,C  15,C  10,C   9)      2.0620         0.028089   
    311. D(C  14,C  15,C  10,C  11)      1.0271         0.028089   
    312. D(C  14,C  15,C  10,C   9)   -178.3188         0.028089   
    313. D(H  53,C  16,C   7,H  46)    158.2407         0.010744   
    314. D(H  53,C  16,C   7,C   8)     37.6405         0.010744   
    315. D(H  53,C  16,C   7,C   6)    -85.1518         0.010744   
    316. D(O  37,C  16,C   7,H  46)     38.5619         0.010744   
    317. D(O  37,C  16,C   7,C   8)    -82.0383         0.010744   
    318. D(O  37,C  16,C   7,C   6)    155.1694         0.010744   
    319. D(H  55,C  17,C   8,H  47)    -70.5083         0.010000   
    320. D(H  55,C  17,C   8,C   9)     44.0686         0.010000   
    321. D(H  55,C  17,C   8,C   7)    172.6441         0.010000   
    322. D(O  38,C  17,C   8,H  47)    169.9855         0.010000   
    323. D(O  38,C  17,C   8,C   9)    -75.4375         0.010000   
    324. D(O  38,C  17,C   8,C   7)     53.1380         0.010000   
    325. D(C  34,O  18,C   2,C   3)     -1.7861         0.026910   
    326. D(C  34,O  18,C   2,C   1)    177.5246         0.026910   
    327. D(C  33,O  19,C   0,C   5)      0.2686         0.027269   
    328. D(C  33,O  19,C   0,C   1)   -179.6321         0.027269   
    329. D(C  23,O  20,C   1,C   2)     45.1651         0.028622   
    330. D(C  23,O  20,C   1,C   0)   -140.5840         0.028622   
    331. D(H  57,O  21,C  13,C  14)    179.2437         0.028143   
    332. D(H  57,O  21,C  13,C  12)     -0.7834         0.028143   
    333. D(C  35,O  22,C  12,C  13)    167.2545         0.028537   
    334. D(C  35,O  22,C  12,C  11)    -13.8931         0.028537   
    335. D(H  58,C  23,O  20,C   1)    -51.6393         0.021893   
    336. D(C  26,C  23,O  20,C   1)   -169.6503         0.021893   
    337. D(C  24,C  23,O  20,C   1)     70.6154         0.021893   
    338. D(O  36,C  24,C  23,H  58)    -64.0581         0.010000   
    339. D(O  36,C  24,C  23,C  26)     56.8170         0.010000   
    340. D(O  36,C  24,C  23,O  20)    172.2687         0.010000   
    341. D(C  25,C  24,C  23,H  58)     56.3454         0.010000   
    342. D(C  25,C  24,C  23,C  26)    177.2205         0.010000   
    343. D(C  25,C  24,C  23,O  20)    -67.3278         0.010000   
    344. D(C  32,C  25,C  24,O  36)   -133.7810         0.012489   
    345. D(C  32,C  25,C  24,C  23)    104.9574         0.012489   
    346. D(C  28,C  25,C  24,H  59)    169.0289         0.012489   
    347. D(C  28,C  25,C  24,O  36)     48.0312         0.012489   
    348. D(C  28,C  25,C  24,C  23)    -73.2304         0.012489   
    349. D(H  60,C  26,C  23,H  58)    -62.8586         0.010637   
    350. D(H  60,C  26,C  23,C  24)    176.4066         0.010637   
    351. D(H  60,C  26,C  23,O  20)     56.6754         0.010637   
    352. D(O  27,C  26,C  23,H  58)    175.2249         0.010637   
    353. D(O  27,C  26,C  23,C  24)     54.4901         0.010637   
    354. D(O  27,C  26,C  23,O  20)    -65.2411         0.010637   
    355. D(H  62,O  27,C  26,H  61)    173.9144         0.022535   
    356. D(H  62,O  27,C  26,H  60)    -67.8513         0.022535   
    357. D(H  62,O  27,C  26,C  23)     52.4450         0.022535   
    358. D(H  63,C  28,C  25,C  32)    177.3096         0.026972   
    359. D(H  63,C  28,C  25,C  24)     -4.4818         0.026972   
    360. D(C  29,C  28,C  25,C  32)     -2.5251         0.026972   
    361. D(C  29,C  28,C  25,C  24)    175.6835         0.026972   
    362. D(C  30,C  29,C  28,H  63)    179.2348         0.028795   
    363. D(C  30,C  29,C  28,C  25)     -0.9354         0.028795   
    364. D(O  39,C  29,C  28,H  63)     -0.7711         0.028795   
    365. D(O  39,C  29,C  28,C  25)    179.0586         0.028795   
    366. D(O  40,C  30,C  29,O  39)      3.1128         0.024460   
    367. D(O  40,C  30,C  29,C  28)   -176.8925         0.024460   
    368. D(C  31,C  30,C  29,O  39)   -176.2836         0.024460   
    369. D(C  31,C  30,C  29,C  28)      3.7110         0.024460   
    370. D(H  64,C  31,C  30,O  40)     -3.3351         0.028553   
    371. D(H  64,C  31,C  30,C  29)    176.0610         0.028553   
    372. D(C  32,C  31,C  30,O  40)    177.5751         0.028553   
    373. D(C  32,C  31,C  30,C  29)     -3.0289         0.028553   
    374. D(H  65,C  32,C  31,H  64)      1.4114         0.028442   
    375. D(H  65,C  32,C  31,C  30)   -179.5069         0.028442   
    376. D(C  25,C  32,C  31,H  64)   -179.5247         0.028442   
    377. D(C  25,C  32,C  31,C  30)     -0.4430         0.028442   
    378. D(H  65,C  32,C  25,C  28)   -177.7079         0.028494   
    379. D(H  65,C  32,C  25,C  24)      4.1166         0.028494   
    380. D(C  31,C  32,C  25,C  28)      3.2319         0.028494   
    381. D(C  31,C  32,C  25,C  24)   -174.9436         0.028494   
    382. D(H  68,C  33,O  19,C   0)    -60.7728         0.022153   
    383. D(H  67,C  33,O  19,C   0)   -179.4149         0.022153   
    384. D(H  66,C  33,O  19,C   0)     62.0056         0.022153   
    385. D(H  71,C  34,O  18,C   2)     62.8484         0.021690   
    386. D(H  70,C  34,O  18,C   2)    -59.8159         0.021690   
    387. D(H  69,C  34,O  18,C   2)   -178.0977         0.021690   
    388. D(H  74,C  35,O  22,C  12)    -56.0178         0.024806   
    389. D(H  73,C  35,O  22,C  12)   -174.7325         0.024806   
    390. D(H  72,C  35,O  22,C  12)     66.1915         0.024806   
    391. D(H  75,O  36,C  24,H  59)     46.3973         0.021131   
    392. D(H  75,O  36,C  24,C  25)    166.5914         0.021131   
    393. D(H  75,O  36,C  24,C  23)    -72.8413         0.021131   
    394. D(H  76,O  37,C  16,H  54)     61.7740         0.022764   
    395. D(H  76,O  37,C  16,H  53)    178.3163         0.022764   
    396. D(H  76,O  37,C  16,C   7)    -59.0475         0.022764   
    397. D(H  77,O  38,C  17,H  56)     50.8838         0.023083   
    398. D(H  77,O  38,C  17,H  55)    166.6001         0.023083   
    399. D(H  77,O  38,C  17,C   8)    -72.8255         0.023083   
    400. D(C  41,O  39,C  29,C  30)    170.1752         0.027826   
    401. D(C  41,O  39,C  29,C  28)     -9.8192         0.027826   
    402. D(H  78,O  40,C  30,C  31)    178.3618         0.029633   
    403. D(H  78,O  40,C  30,C  29)     -1.0325         0.029633   
    404. D(H  81,C  41,O  39,C  29)    -51.5862         0.023637   
    405. D(H  80,C  41,O  39,C  29)   -170.3785         0.023637   
    406. D(H  79,C  41,O  39,C  29)     70.9778         0.023637   
    -----------------------------------------------------------------

Number of atoms                         .... 82
Number of degrees of freedom            .... 406


         *************************************************************
         *                GEOMETRY OPTIMIZATION CYCLE   1            *
         *************************************************************
---------------------------------
CARTESIAN COORDINATES (ANGSTROEM)
---------------------------------
  C     14.502099  -19.475751    3.314349
  C     15.378187  -20.178156    2.471358
  C     14.909104  -20.642873    1.236138
  C     13.599714  -20.371713    0.855449
  C     12.730267  -19.700357    1.700531
  C     13.187077  -19.257078    2.933586
  C     11.300194  -19.486870    1.286216
  C     11.117922  -18.337771    0.274934
  C      9.692697  -18.408916   -0.320255
  C      9.541445  -19.598358   -1.308155
  C     10.771935  -19.948187   -2.098140
  C     11.372090  -18.987125   -2.908100
  C     12.545152  -19.264738   -3.579200
  C     13.116832  -20.543421   -3.493443
  C     12.489462  -21.514161   -2.733192
  C     11.334928  -21.211771   -2.027701
  C     11.456580  -17.001706    0.951230
  C      9.178620  -17.083121   -0.932208
  O     15.784042  -21.362731    0.469398
  O     15.052632  -19.053110    4.491323
  O     16.612984  -20.442160    3.009833
  O     14.276303  -20.827608   -4.149878
  O     13.252818  -18.353963   -4.343620
  C     17.797943  -20.353298    2.236207
  C     18.135536  -18.873677    1.894978
  C     17.091735  -18.323149    0.962170
  C     18.878863  -20.975714    3.133868
  O     19.095494  -20.212707    4.291715
  C     17.083364  -18.736958   -0.365106
  C     16.082197  -18.315200   -1.219266
  C     15.062805  -17.482434   -0.734018
  C     15.109601  -17.028810    0.571667
  C     16.124026  -17.444777    1.415507
  C     14.235632  -18.348946    5.392792
  C     15.329547  -21.890463   -0.754803
  C     12.601920  -17.151898   -4.693068
  O     19.403072  -18.781909    1.279918
  O     11.860094  -15.999914    0.040355
  O     10.006145  -16.477331   -1.885722
  O     15.980392  -18.643055   -2.552080
  O     14.032519  -17.110659   -1.554137
  C     17.076342  -19.295771   -3.148021
  H     13.230161  -20.710499   -0.098857
  H     12.504094  -18.747509    3.594372
  H     10.689093  -19.277751    2.166963
  H     10.935166  -20.405949    0.828635
  H     11.847090  -18.476644   -0.529129
  H      9.002198  -18.602499    0.510112
  H      8.736303  -19.356374   -2.006101
  H      9.226599  -20.482902   -0.751218
  H     10.915469  -18.013186   -2.973525
  H     12.923020  -22.501024   -2.698900
  H     10.872635  -21.978836   -1.423357
  H     10.595189  -16.596241    1.487750
  H     12.261119  -17.177589    1.676137
  H      8.227016  -17.283546   -1.434842
  H      8.975499  -16.375986   -0.116791
  H     14.537604  -20.026888   -4.624541
  H     17.719235  -20.927800    1.308807
  H     18.119997  -18.301655    2.833797
  H     18.557034  -21.993480    3.394060
  H     19.832455  -21.036882    2.605166
  H     18.230078  -20.081838    4.701379
  H     17.872730  -19.386225   -0.704406
  H     14.359198  -16.338726    0.920510
  H     16.148779  -17.092527    2.434867
  H     13.395440  -18.959646    5.738739
  H     14.874546  -18.106427    6.240775
  H     13.853223  -17.421822    4.952575
  H     16.173724  -22.443410   -1.165028
  H     14.490504  -22.575545   -0.605292
  H     15.034175  -21.103543   -1.452608
  H     12.401678  -16.528317   -3.817797
  H     13.286378  -16.631795   -5.361779
  H     11.661698  -17.351250   -5.213816
  H     20.073372  -18.934789    1.954361
  H     12.644766  -16.320803   -0.435995
  H     10.759978  -16.107513   -1.387643
  H     14.191318  -17.505190   -2.426021
  H     17.171355  -20.324317   -2.789074
  H     16.872454  -19.307115   -4.217620
  H     18.007702  -18.753942   -2.960824

----------------------------
CARTESIAN COORDINATES (A.U.)
----------------------------
  NO LB      ZA    FRAG     MASS         X           Y           Z
   0 C     6.0000    0    12.011   27.404996  -36.803835    6.263211
   1 C     6.0000    0    12.011   29.060561  -38.131189    4.670190
   2 C     6.0000    0    12.011   28.174123  -39.009377    2.335962
   3 C     6.0000    0    12.011   25.699735  -38.496959    1.616565
   4 C     6.0000    0    12.011   24.056718  -37.228280    3.213537
   5 C     6.0000    0    12.011   24.919964  -36.390604    5.543674
   6 C     6.0000    0    12.011   21.354272  -36.824848    2.430596
   7 C     6.0000    0    12.011   21.009828  -34.653365    0.519550
   8 C     6.0000    0    12.011   18.316543  -34.787809   -0.605195
   9 C     6.0000    0    12.011   18.030718  -37.035530   -2.472055
  10 C     6.0000    0    12.011   20.356007  -37.696611   -3.964910
  11 C     6.0000    0    12.011   21.490135  -35.880466   -5.495513
  12 C     6.0000    0    12.011   23.706902  -36.405080   -6.763707
  13 C     6.0000    0    12.011   24.787220  -38.821439   -6.601651
  14 C     6.0000    0    12.011   23.601662  -40.655872   -5.164985
  15 C     6.0000    0    12.011   21.419909  -40.084437   -3.831799
  16 C     6.0000    0    12.011   21.649799  -32.128567    1.797565
  17 C     6.0000    0    12.011   17.345078  -32.282420   -1.761619
  18 O     8.0000    0    15.999   29.827516  -40.369711    0.887034
  19 O     8.0000    0    15.999   28.445351  -36.005160    8.487370
  20 O     8.0000    0    15.999   31.393990  -38.630084    5.687761
  21 O     8.0000    0    15.999   26.978303  -39.358476   -7.842132
  22 O     8.0000    0    15.999   25.044196  -34.683963   -8.208253
  23 C     6.0000    0    12.011   33.633238  -38.462159    4.225819
  24 C     6.0000    0    12.011   34.271197  -35.666081    3.580989
  25 C     6.0000    0    12.011   32.298698  -34.625733    1.818238
  26 C     6.0000    0    12.011   35.675880  -39.638354    5.922152
  27 O     8.0000    0    15.999   36.085254  -38.196481    8.110167
  28 C     6.0000    0    12.011   32.282879  -35.407720   -0.689950
  29 C     6.0000    0    12.011   30.390947  -34.610713   -2.304080
  30 C     6.0000    0    12.011   28.464576  -33.037013   -1.387093
  31 C     6.0000    0    12.011   28.553008  -32.179786    1.080293
  32 C     6.0000    0    12.011   30.469994  -32.965852    2.674920
  33 C     6.0000    0    12.011   26.901445  -34.674484   10.190899
  34 C     6.0000    0    12.011   28.968645  -41.366980   -1.426372
  35 C     6.0000    0    12.011   23.814177  -32.412390   -8.868614
  36 O     8.0000    0    15.999   36.666492  -35.492664    2.418695
  37 O     8.0000    0    15.999   22.412330  -30.235456    0.076260
  38 O     8.0000    0    15.999   18.908874  -31.137642   -3.563498
  39 O     8.0000    0    15.999   30.198565  -35.230267   -4.822732
  40 O     8.0000    0    15.999   26.517618  -32.334459   -2.936893
  41 C     6.0000    0    12.011   32.269610  -36.463723   -5.948897
  42 H     1.0000    0     1.008   25.001381  -39.137172   -0.186812
  43 H     1.0000    0     1.008   23.629314  -35.427657    6.792378
  44 H     1.0000    0     1.008   20.199459  -36.429670    4.094966
  45 H     1.0000    0     1.008   20.664469  -38.561655    1.565893
  46 H     1.0000    0     1.008   22.387756  -34.915797   -0.999910
  47 H     1.0000    0     1.008   17.011689  -35.153628    0.963972
  48 H     1.0000    0     1.008   16.509220  -36.578247   -3.790982
  49 H     1.0000    0     1.008   17.435746  -38.707075   -1.419596
  50 H     1.0000    0     1.008   20.627247  -34.039988   -5.619148
  51 H     1.0000    0     1.008   24.420968  -42.520773   -5.100183
  52 H     1.0000    0     1.008   20.546302  -41.533981   -2.689755
  53 H     1.0000    0     1.008   20.022006  -31.362350    2.811439
  54 H     1.0000    0     1.008   23.170157  -32.460939    3.167441
  55 H     1.0000    0     1.008   15.546808  -32.661168   -2.711459
  56 H     1.0000    0     1.008   16.961234  -30.946128   -0.220704
  57 H     1.0000    0     1.008   27.472091  -37.845334   -8.739116
  58 H     1.0000    0     1.008   33.484501  -39.547810    2.473287
  59 H     1.0000    0     1.008   34.241831  -34.585115    5.355100
  60 H     1.0000    0     1.008   35.067713  -41.561653    6.413844
  61 H     1.0000    0     1.008   37.477908  -39.753946    4.923051
  62 H     1.0000    0     1.008   34.449855  -37.949175    8.884318
  63 H     1.0000    0     1.008   33.774565  -36.634655   -1.331134
  64 H     1.0000    0     1.008   27.134952  -30.875718    1.739512
  65 H     1.0000    0     1.008   30.516769  -32.300195    4.601231
  66 H     1.0000    0     1.008   25.313713  -35.828538   10.844646
  67 H     1.0000    0     1.008   28.108819  -34.216188   11.793356
  68 H     1.0000    0     1.008   26.178797  -32.922472    9.359010
  69 H     1.0000    0     1.008   30.563909  -42.411899   -2.201585
  70 H     1.0000    0     1.008   27.383084  -42.661597   -1.143836
  71 H     1.0000    0     1.008   28.410473  -39.879917   -2.745032
  72 H     1.0000    0     1.008   23.435775  -31.233993   -7.214591
  73 H     1.0000    0     1.008   25.107616  -31.429539  -10.132294
  74 H     1.0000    0     1.008   22.037415  -32.789110   -9.852684
  75 H     1.0000    0     1.008   37.933175  -35.781566    3.693207
  76 H     1.0000    0     1.008   23.895145  -30.841848   -0.823910
  77 H     1.0000    0     1.008   20.333412  -30.438788   -2.622266
  78 H     1.0000    0     1.008   26.817704  -33.080015   -4.584514
  79 H     1.0000    0     1.008   32.449159  -38.407393   -5.270586
  80 H     1.0000    0     1.008   31.884318  -36.485159   -7.970147
  81 H     1.0000    0     1.008   34.029625  -35.439815   -5.595147

--------------------------------
INTERNAL COORDINATES (ANGSTROEM)
--------------------------------
 C      0   0   0     0.000000000000     0.00000000     0.00000000
 C      1   0   0     1.404113666796     0.00000000     0.00000000
 C      2   1   0     1.400631907271   119.10970600     0.00000000
 C      3   2   1     1.390306529865   119.48424402     1.59780948
 C      4   3   2     1.385936247954   121.22095961   357.12419397
 C      1   2   3     1.386391843254   120.38705126     0.61895425
 C      5   4   3     1.504108269405   119.81831101   183.19298939
 C      7   5   4     1.541539280341   113.51113349   281.83108423
 C      8   7   5     1.546149394831   109.10059766   167.32510780
 C      9   8   7     1.553575472876   111.70062695   287.43315392
 C     10   9   8     1.503516508877   115.63088946   326.85244355
 C     11  10   9     1.392789409273   119.84509187   302.11383852
 C     12  11  10     1.379680426431   120.69022226   176.18416309
 C     13  12  11     1.403281889060   120.00012983     2.61673328
 C     14  13  12     1.383441989056   119.22363781     0.10411059
 C     11  10   9     1.385123027977   121.21059456   121.45390160
 C      8   7   5     1.535297116209   109.48945300   293.20718994
 C      9   8   7     1.548061276425   114.76329098   158.78875506
 O      3   2   1     1.368064950206   117.04321519   182.25835976
 O      1   2   3     1.366374305809   114.86552129   180.52432528
 O      2   1   3     1.372726451082   114.95791986   185.34325068
 O     14  13  12     1.362366525274   120.48729962   180.13097111
 O     13  12  11     1.383705872765   124.82782887   183.81607467
 C     21   2   1     1.417928780793   121.71222328   219.41598904
 C     24  21   2     1.555533767219   111.14116377    70.61539059
 C     25  24  21     1.504238457456   109.48499813   292.67218467
 C     24  21   2     1.536743935846   104.10671099   190.34967724
 O     27  24  21     1.403466704725   111.73287516   294.75890349
 C     26  25  24     1.390312832732   119.16000371   286.76961855
 C     29  26  25     1.381957356233   120.23730209   175.68347661
 C     30  29  26     1.402898982522   119.58978817   359.06456052
 C     31  30  29     1.383032081387   119.77907167     3.71102953
 C     26  25  24     1.383296758187   120.97085390   104.95741673
 C     20   1   2     1.405696253150   118.24053287   180.36789712
 C     19   3   2     1.408451864081   118.54961532   177.52459444
 C     23  13  12     1.410936452159   117.49460496   346.10691404
 O     25  24  21     1.411865973890   110.62379654   172.26867345
 O     17   8   7     1.412835272283   113.33174462   155.16943016
 O     18   9   8     1.400345459952   116.32206649    53.13795279
 O     30  29  26     1.376315494908   125.41059801   179.05864277
 O     31  30  29     1.368320208321   120.07233827   183.10749759
 C     40  30  29     1.407938392956   117.56466968   350.18083518
 H      4   3   2     1.077982040966   120.26318518   179.07536276
 H      6   1   2     1.078315445303   120.46488292   177.89014123
 H      7   5   4     1.092194968194   109.69569488   160.05892482
 H      7   5   4     1.089647729887   108.32838116    42.12466718
 H      8   7   5     1.094298705391   107.97740365    48.99546462
 H      9   8   7     1.097166252618   107.27175261    43.84685981
 H     10   9   8     1.092675057766   107.96033087   205.02133197
 H     10   9   8     1.091661311617   108.90641618    89.14840016
 H     12  11  10     1.077655067669   118.44676310   358.06046498
 H     15  14  13     1.078446525797   118.50659277   178.21241493
 H     16  11  10     1.080432812499   120.14541493     2.06198995
 H     17   8   7     1.092817117672   111.42444128   274.84823667
 H     17   8   7     1.097136058691   108.25792369    33.77128520
 H     18   9   8     1.094696481025   108.26275170   172.64406513
 H     18   9   8     1.098272756865   108.62298780   288.89879329
 H     22  14  13     0.966817683556   107.08650797   359.21657836
 H     24  21   2     1.093763237460   111.68852070   308.36070115
 H     25  24  21     1.099469298359   107.72817172    51.34592196
 H     27  24  21     1.098690720057   107.90799554    56.67539683
 H     27  24  21     1.092064475129   110.73739756   175.38041085
 H     28  27  24     0.966382690043   106.56607310    52.44502507
 H     29  26  25     1.076926139272   118.41192583   355.51820364
 H     32  31  30     1.077502276644   119.48156789   176.06096871
 H     33  26  25     1.078789934195   120.06313837     4.11663354
 H     34  20   1     1.094785519414   111.66990759    62.00555915
 H     34  20   1     1.089084044033   105.65891553   180.58511039
 H     34  20   1     1.095256997920   111.66683441   299.22716850
 H     35  19   3     1.089344236441   105.51203948   181.90226695
 H     35  19   3     1.093473239844   111.31611175   300.18407157
 H     35  19   3     1.092437088487   111.87271844    62.84841518
 H     36  23  13     1.093183114971   111.85031736    66.19146187
 H     36  23  13     1.089111714690   105.60478349   185.26751518
 H     36  23  13     1.093131425114   111.06385352   303.98222872
 H     37  25  24     0.963092632380   108.02607063   287.15874602
 H     38  17   8     0.972413357672   108.19796363   300.95247363
 H     39  18   9     0.976274635029   105.82974582   287.17447947
 H     41  31  30     0.970079022734   107.75420193   358.96751956
 H     42  40  30     1.093515704180   111.39211939    70.97783446
 H     42  40  30     1.088918053777   105.95270591   189.62146088
 H     42  40  30     1.093642129420   111.14743189   308.41384301

---------------------------
INTERNAL COORDINATES (A.U.)
---------------------------
 C      0   0   0     0.000000000000     0.00000000     0.00000000
 C      1   0   0     2.653390291141     0.00000000     0.00000000
 C      2   1   0     2.646810719174   119.10970600     0.00000000
 C      3   2   1     2.627298583647   119.48424402     1.59780948
 C      4   3   2     2.619039947707   121.22095961   357.12419397
 C      1   2   3     2.619900898053   120.38705126     0.61895425
 C      5   4   3     2.842352704942   119.81831101   183.19298939
 C      7   5   4     2.913087064526   113.51113349   281.83108423
 C      8   7   5     2.921798918358   109.10059766   167.32510780
 C      9   8   7     2.935832172113   111.70062695   287.43315392
 C     10   9   8     2.841234439607   115.63088946   326.85244355
 C     11  10   9     2.631990545752   119.84509187   302.11383852
 C     12  11  10     2.607218158287   120.69022226   176.18416309
 C     13  12  11     2.651818459014   120.00012983     2.61673328
 C     14  13  12     2.614326481483   119.22363781     0.10411059
 C     11  10   9     2.617503184664   121.21059456   121.45390160
 C      8   7   5     2.901291083833   109.48945300   293.20718994
 C      9   8   7     2.925411850973   114.76329098   158.78875506
 O      3   2   1     2.585268089306   117.04321519   182.25835976
 O      1   2   3     2.582073234405   114.86552129   180.52432528
 O      2   1   3     2.594077049334   114.95791986   185.34325068
 O     14  13  12     2.574499626789   120.48729962   180.13097111
 O     13  12  11     2.614825149424   124.82782887   183.81607467
 C     21   2   1     2.679497073104   121.71222328   219.41598904
 C     24  21   2     2.939532812111   111.14116377    70.61539059
 C     25  24  21     2.842598724705   109.48499813   292.67218467
 C     24  21   2     2.904025176713   104.10671099   190.34967724
 O     27  24  21     2.652167710008   111.73287516   294.75890349
 C     26  25  24     2.627310494340   119.16000371   286.76961855
 C     29  26  25     2.611520932039   120.23730209   175.68347661
 C     30  29  26     2.651094870523   119.58978817   359.06456052
 C     31  30  29     2.613551868249   119.77907167     3.71102953
 C     26  25  24     2.614052034914   120.97085390   104.95741673
 C     20   1   2     2.656380945932   118.24053287   180.36789712
 C     19   3   2     2.661588295924   118.54961532   177.52459444
 C     23  13  12     2.666283486946   117.49460496   346.10691404
 O     25  24  21     2.668040028454   110.62379654   172.26867345
 O     17   8   7     2.669871736959   113.33174462   155.16943016
 O     18   9   8     2.646269412189   116.32206649    53.13795279
 O     30  29  26     2.600859359248   125.41059801   179.05864277
 O     31  30  29     2.585750457237   120.07233827   183.10749759
 C     40  30  29     2.660617976120   117.56466968   350.18083518
 H      4   3   2     2.037090834711   120.26318518   179.07536276
 H      6   1   2     2.037720877599   120.46488292   177.89014123
 H      7   5   4     2.063949374734   109.69569488   160.05892482
 H      7   5   4     2.059135791935   108.32838116    42.12466718
 H      8   7   5     2.067924861894   107.97740365    48.99546462
 H      9   8   7     2.073343740829   107.27175261    43.84685981
 H     10   9   8     2.064856612545   107.96033087   205.02133197
 H     10   9   8     2.062940909954   108.90641618    89.14840016
 H     12  11  10     2.036472944727   118.44676310   358.06046498
 H     15  14  13     2.037968583835   118.50659277   178.21241493
 H     16  11  10     2.041722121725   120.14541493     2.06198995
 H     17   8   7     2.065125066862   111.42444128   274.84823667
 H     17   8   7     2.073286682576   108.25792369    33.77128520
 H     18   9   8     2.068676548904   108.26275170   172.64406513
 H     18   9   8     2.075434730821   108.62298780   288.89879329
 H     22  14  13     1.827020643352   107.08650797   359.21657836
 H     24  21   2     2.066912974151   111.68852070   308.36070115
 H     25  24  21     2.077695866553   107.72817172    51.34592196
 H     27  24  21     2.076224566789   107.90799554    56.67539683
 H     27  24  21     2.063702778579   110.73739756   175.38041085
 H     28  27  24     1.826198624744   106.56607310    52.44502507
 H     29  26  25     2.035095469686   118.41192583   355.51820364
 H     32  31  30     2.036184211534   119.48156789   176.06096871
 H     33  26  25     2.038617531659   120.06313837     4.11663354
 H     34  20   1     2.068844807074   111.66990759    62.00555915
 H     34  20   1     2.058070580046   105.65891553   180.58511039
 H     34  20   1     2.069735772329   111.66683441   299.22716850
 H     35  19   3     2.058562272439   105.51203948   181.90226695
 H     35  19   3     2.066364958076   111.31611175   300.18407157
 H     35  19   3     2.064406915778   111.87271844    62.84841518
 H     36  23  13     2.065816701522   111.85031736    66.19146187
 H     36  23  13     2.058122870009   105.60478349   185.26751518
 H     36  23  13     2.065719021849   111.06385352   303.98222872
 H     37  25  24     1.819981316796   108.02607063   287.15874602
 H     38  17   8     1.837594934966   108.19796363   300.95247363
 H     39  18   9     1.844891691698   105.82974582   287.17447947
 H     41  31  30     1.833183681229   107.75420193   358.96751956
 H     42  40  30     2.066445204043   111.39211939    70.97783446
 H     42  40  30     2.057756903920   105.95270591   189.62146088
 H     42  40  30     2.066684113122   111.14743189   308.41384301

---------------------
BASIS SET INFORMATION
---------------------
There are 3 groups of distinct atoms

 Group   1 Type C   : 11s6p2d1f contracted to 5s3p2d1f pattern {62111/411/11/1}
 Group   2 Type O   : 11s6p2d1f contracted to 5s3p2d1f pattern {62111/411/11/1}
 Group   3 Type H   : 5s1p contracted to 3s1p pattern {311/1}

Atom   0C    basis set group =>   1
Atom   1C    basis set group =>   1
Atom   2C    basis set group =>   1
Atom   3C    basis set group =>   1
Atom   4C    basis set group =>   1
Atom   5C    basis set group =>   1
Atom   6C    basis set group =>   1
Atom   7C    basis set group =>   1
Atom   8C    basis set group =>   1
Atom   9C    basis set group =>   1
Atom  10C    basis set group =>   1
Atom  11C    basis set group =>   1
Atom  12C    basis set group =>   1
Atom  13C    basis set group =>   1
Atom  14C    basis set group =>   1
Atom  15C    basis set group =>   1
Atom  16C    basis set group =>   1
Atom  17C    basis set group =>   1
Atom  18O    basis set group =>   2
Atom  19O    basis set group =>   2
Atom  20O    basis set group =>   2
Atom  21O    basis set group =>   2
Atom  22O    basis set group =>   2
Atom  23C    basis set group =>   1
Atom  24C    basis set group =>   1
Atom  25C    basis set group =>   1
Atom  26C    basis set group =>   1
Atom  27O    basis set group =>   2
Atom  28C    basis set group =>   1
Atom  29C    basis set group =>   1
Atom  30C    basis set group =>   1
Atom  31C    basis set group =>   1
Atom  32C    basis set group =>   1
Atom  33C    basis set group =>   1
Atom  34C    basis set group =>   1
Atom  35C    basis set group =>   1
Atom  36O    basis set group =>   2
Atom  37O    basis set group =>   2
Atom  38O    basis set group =>   2
Atom  39O    basis set group =>   2
Atom  40O    basis set group =>   2
Atom  41C    basis set group =>   1
Atom  42H    basis set group =>   3
Atom  43H    basis set group =>   3
Atom  44H    basis set group =>   3
Atom  45H    basis set group =>   3
Atom  46H    basis set group =>   3
Atom  47H    basis set group =>   3
Atom  48H    basis set group =>   3
Atom  49H    basis set group =>   3
Atom  50H    basis set group =>   3
Atom  51H    basis set group =>   3
Atom  52H    basis set group =>   3
Atom  53H    basis set group =>   3
Atom  54H    basis set group =>   3
Atom  55H    basis set group =>   3
Atom  56H    basis set group =>   3
Atom  57H    basis set group =>   3
Atom  58H    basis set group =>   3
Atom  59H    basis set group =>   3
Atom  60H    basis set group =>   3
Atom  61H    basis set group =>   3
Atom  62H    basis set group =>   3
Atom  63H    basis set group =>   3
Atom  64H    basis set group =>   3
Atom  65H    basis set group =>   3
Atom  66H    basis set group =>   3
Atom  67H    basis set group =>   3
Atom  68H    basis set group =>   3
Atom  69H    basis set group =>   3
Atom  70H    basis set group =>   3
Atom  71H    basis set group =>   3
Atom  72H    basis set group =>   3
Atom  73H    basis set group =>   3
Atom  74H    basis set group =>   3
Atom  75H    basis set group =>   3
Atom  76H    basis set group =>   3
Atom  77H    basis set group =>   3
Atom  78H    basis set group =>   3
Atom  79H    basis set group =>   3
Atom  80H    basis set group =>   3
Atom  81H    basis set group =>   3
---------------------------------
AUXILIARY/J BASIS SET INFORMATION
---------------------------------
There are 3 groups of distinct atoms

 Group   1 Type C   : 12s5p4d2f1g contracted to 6s4p3d1f1g pattern {711111/2111/211/2/1}
 Group   2 Type O   : 12s5p4d2f1g contracted to 6s4p3d1f1g pattern {711111/2111/211/2/1}
 Group   3 Type H   : 5s2p1d contracted to 3s1p1d pattern {311/2/1}

Atom   0C    basis set group =>   1
Atom   1C    basis set group =>   1
Atom   2C    basis set group =>   1
Atom   3C    basis set group =>   1
Atom   4C    basis set group =>   1
Atom   5C    basis set group =>   1
Atom   6C    basis set group =>   1
Atom   7C    basis set group =>   1
Atom   8C    basis set group =>   1
Atom   9C    basis set group =>   1
Atom  10C    basis set group =>   1
Atom  11C    basis set group =>   1
Atom  12C    basis set group =>   1
Atom  13C    basis set group =>   1
Atom  14C    basis set group =>   1
Atom  15C    basis set group =>   1
Atom  16C    basis set group =>   1
Atom  17C    basis set group =>   1
Atom  18O    basis set group =>   2
Atom  19O    basis set group =>   2
Atom  20O    basis set group =>   2
Atom  21O    basis set group =>   2
Atom  22O    basis set group =>   2
Atom  23C    basis set group =>   1
Atom  24C    basis set group =>   1
Atom  25C    basis set group =>   1
Atom  26C    basis set group =>   1
Atom  27O    basis set group =>   2
Atom  28C    basis set group =>   1
Atom  29C    basis set group =>   1
Atom  30C    basis set group =>   1
Atom  31C    basis set group =>   1
Atom  32C    basis set group =>   1
Atom  33C    basis set group =>   1
Atom  34C    basis set group =>   1
Atom  35C    basis set group =>   1
Atom  36O    basis set group =>   2
Atom  37O    basis set group =>   2
Atom  38O    basis set group =>   2
Atom  39O    basis set group =>   2
Atom  40O    basis set group =>   2
Atom  41C    basis set group =>   1
Atom  42H    basis set group =>   3
Atom  43H    basis set group =>   3
Atom  44H    basis set group =>   3
Atom  45H    basis set group =>   3
Atom  46H    basis set group =>   3
Atom  47H    basis set group =>   3
Atom  48H    basis set group =>   3
Atom  49H    basis set group =>   3
Atom  50H    basis set group =>   3
Atom  51H    basis set group =>   3
Atom  52H    basis set group =>   3
Atom  53H    basis set group =>   3
Atom  54H    basis set group =>   3
Atom  55H    basis set group =>   3
Atom  56H    basis set group =>   3
Atom  57H    basis set group =>   3
Atom  58H    basis set group =>   3
Atom  59H    basis set group =>   3
Atom  60H    basis set group =>   3
Atom  61H    basis set group =>   3
Atom  62H    basis set group =>   3
Atom  63H    basis set group =>   3
Atom  64H    basis set group =>   3
Atom  65H    basis set group =>   3
Atom  66H    basis set group =>   3
Atom  67H    basis set group =>   3
Atom  68H    basis set group =>   3
Atom  69H    basis set group =>   3
Atom  70H    basis set group =>   3
Atom  71H    basis set group =>   3
Atom  72H    basis set group =>   3
Atom  73H    basis set group =>   3
Atom  74H    basis set group =>   3
Atom  75H    basis set group =>   3
Atom  76H    basis set group =>   3
Atom  77H    basis set group =>   3
Atom  78H    basis set group =>   3
Atom  79H    basis set group =>   3
Atom  80H    basis set group =>   3
Atom  81H    basis set group =>   3
--------------------------------------------------------------------------
WARNING: There was an error initializing an OpenFabrics device.

  Local host:   c08b01n06
  Local device: mlx5_0
--------------------------------------------------------------------------
--------------------------------------------------------------------------
WARNING: There is at least one non-excluded one OpenFabrics device found,
but there are no active ports detected (or Open MPI was unable to use
them).  This is most certainly not what you wanted.  Check your
cables, subnet manager configuration, etc.  The openib BTL will be
ignored for this job.

  Local host: c08b01n06
--------------------------------------------------------------------------
[c08b01n06:2527860] 59 more processes have sent help message help-mpi-btl-openib.txt / error in device init
[c08b01n06:2527860] Set MCA parameter "orte_base_help_aggregate" to 0 to see all help / error messages
[c08b01n06:2527860] 3 more processes have sent help message help-mpi-btl-openib.txt / no active ports found


           ************************************************************
           *        Program running with 64 parallel MPI-processes    *
           *              working on a common directory               *
           ************************************************************
------------------------------------------------------------------------------
                             ORCA STARTUP CALCULATIONS
                           -- RI-GTO INTEGRALS CHOSEN --
------------------------------------------------------------------------------
------------------------------------------------------------------------------
                   ___                                                        
                  /   \      - P O W E R E D   B Y -                         
                 /     \                                                     
                 |  |  |   _    _      __       _____    __    __             
                 |  |  |  | |  | |    /  \     |  _  \  |  |  /  |          
                  \  \/   | |  | |   /    \    | | | |  |  | /  /          
                 / \  \   | |__| |  /  /\  \   | |_| |  |  |/  /          
                |  |  |   |  __  | /  /__\  \  |    /   |      \           
                |  |  |   | |  | | |   __   |  |    \   |  |\   \          
                \     /   | |  | | |  |  |  |  | |\  \  |  | \   \       
                 \___/    |_|  |_| |__|  |__|  |_| \__\ |__|  \__/        
                                                                              
                      - O R C A' S   B I G   F R I E N D -                    
                                      &                                       
                       - I N T E G R A L  F E E D E R -                       
                                                                              
 v1 FN, 2020, v2 2021, v3 2022-2024                                           
------------------------------------------------------------------------------


----------------------
SHARK INTEGRAL PACKAGE
----------------------

Number of atoms                             ...     82
Number of basis functions                   ...   1542
Number of shells                            ...    622
Maximum angular momentum                    ...      3
Integral batch strategy                     ... SHARK/LIBINT Hybrid
RI-J (if used) integral strategy            ... SPLIT-RIJ (Revised 2003 algorithm where possible)
Printlevel                                  ...      1
Contraction scheme used                     ... SEGMENTED contraction
Prescreening option                         ... SCHWARTZ
   Thresh                                   ... 2.500e-11
   Tcut                                     ... 2.500e-12
   Tpresel                                  ... 2.500e-12 
Coulomb Range Separation                    ... NOT USED
Exchange Range Separation                   ... NOT USED
Multipole approximations                    ... NOT USED
Finite Nucleus Model                        ... NOT USED
CABS basis                                  ... NOT available
Auxiliary Coulomb fitting basis             ... AVAILABLE
   # of basis functions in Aux-J            ...   2498
   # of shells in Aux-J                     ...    830
   Maximum angular momentum in Aux-J        ...      4
Auxiliary J/K fitting basis                 ... NOT available
Auxiliary Correlation fitting basis         ... NOT available
Auxiliary 'external' fitting basis          ... NOT available

Checking pre-screening integrals            ... done (  0.3 sec) Dimension = 622
   => SHARK Basis and OBASIS are compatible. Storing Pre-screening
Shell pair information
Shell pair cut-off parameter TPreSel        ...   2.5e-12
Total number of shell pairs                 ...    193753
Shell pairs after pre-screening             ...    118499
Total number of primitive shell pairs       ...    584784
Primitive shell pairs kept                  ...    223476
          la=0 lb=0:  32860 shell pairs
          la=1 lb=0:  35269 shell pairs
          la=1 lb=1:   9588 shell pairs
          la=2 lb=0:  16081 shell pairs
          la=2 lb=1:   8890 shell pairs
          la=2 lb=2:   2044 shell pairs
          la=3 lb=0:   7374 shell pairs
          la=3 lb=1:   4138 shell pairs
          la=3 lb=2:   1820 shell pairs
          la=3 lb=3:    435 shell pairs

Checking whether 4 symmetric matrices of dimension 1542 fit in memory
:Max Core in MB      =   6000.00
 MB in use           =    141.91
 MB left             =   5858.09
 MB needed           =     36.31
 Data fit in memory  = YES
Calculating RI/J V-Matrix + Cholesky decomp.... done (  4.6 sec)
Calculating Nuclear repulsion               ... done (  0.0 sec) ENN=   5847.099040261921 Eh

Diagonalization of the overlap matrix:
Smallest eigenvalue                        ... 2.780e-06
Time for diagonalization                   ...   17.130 sec
Threshold for overlap eigenvalues          ... 1.000e-07
Number of eigenvalues below threshold      ... 0
Time for construction of square roots      ...    1.684 sec
Total time needed                          ...   19.086 sec

-------------------
DFT GRID GENERATION
-------------------

General Integration Accuracy     IntAcc      ... 4.388
Radial Grid Type                 RadialGrid  ... OptM3 with GC (2021)
Angular Grid (max. ang.)         AngularGrid ... 4 (Lebedev-302)
Angular grid pruning method      GridPruning ... 4 (adaptive)
Weight generation scheme         WeightScheme... mBecke (2022)
Basis function cutoff            BFCut       ... 1.0000e-11
Integration weight cutoff        WCut        ... 1.0000e-14
Partially contracted basis set               ... off
Rotationally invariant grid construction     ... off
Angular grids for H and He will be reduced by one unit

Total number of grid points                  ...   373367
Total number of batches                      ...     5877
Average number of points per batch           ...       63
Average number of grid points per atom       ...     4553

--------------------
COSX GRID GENERATION
--------------------

GRIDX 1
-------
General Integration Accuracy     IntAcc      ... 3.816
Radial Grid Type                 RadialGrid  ... OptM3 with GC (2021)
Angular Grid (max. ang.)         AngularGrid ... 1 (Lebedev-50)
Angular grid pruning method      GridPruning ... 4 (adaptive)
Weight generation scheme         WeightScheme... mBecke (2022)
Basis function cutoff            BFCut       ... 1.0000e-11
Integration weight cutoff        WCut        ... 1.0000e-14
Partially contracted basis set               ... on
Rotationally invariant grid construction     ... off
Angular grids for H and He will be reduced by one unit

Total number of grid points                  ...    47237
Total number of batches                      ...      416
Average number of points per batch           ...      113
Average number of grid points per atom       ...      576
UseSFitting                                  ... on

GRIDX 2
-------
General Integration Accuracy     IntAcc      ... 4.020
Radial Grid Type                 RadialGrid  ... OptM3 with GC (2021)
Angular Grid (max. ang.)         AngularGrid ... 2 (Lebedev-110)
Angular grid pruning method      GridPruning ... 4 (adaptive)
Weight generation scheme         WeightScheme... mBecke (2022)
Basis function cutoff            BFCut       ... 1.0000e-11
Integration weight cutoff        WCut        ... 1.0000e-14
[...]
freq.     659.15  E(vib)   ...       0.08 
freq.     667.30  E(vib)   ...       0.08 
freq.     679.16  E(vib)   ...       0.08 
freq.     689.48  E(vib)   ...       0.07 
freq.     727.79  E(vib)   ...       0.06 
freq.     731.13  E(vib)   ...       0.06 
freq.     746.08  E(vib)   ...       0.06 
freq.     754.54  E(vib)   ...       0.06 
freq.     757.24  E(vib)   ...       0.06 
freq.     770.38  E(vib)   ...       0.05 
freq.     793.22  E(vib)   ...       0.05 
freq.     811.17  E(vib)   ...       0.05 
freq.     814.53  E(vib)   ...       0.05 
freq.     829.77  E(vib)   ...       0.04 
freq.     838.17  E(vib)   ...       0.04 
freq.     841.38  E(vib)   ...       0.04 
freq.     847.45  E(vib)   ...       0.04 
freq.     852.24  E(vib)   ...       0.04 
freq.     871.68  E(vib)   ...       0.04 
freq.     882.51  E(vib)   ...       0.04 
freq.     899.83  E(vib)   ...       0.03 
freq.     906.42  E(vib)   ...       0.03 
freq.     912.91  E(vib)   ...       0.03 
freq.     931.98  E(vib)   ...       0.03 
freq.     934.06  E(vib)   ...       0.03 
freq.     937.54  E(vib)   ...       0.03 
freq.     946.48  E(vib)   ...       0.03 
freq.     956.44  E(vib)   ...       0.03 
freq.     957.17  E(vib)   ...       0.03 
freq.     963.62  E(vib)   ...       0.03 
freq.     964.98  E(vib)   ...       0.03 
freq.     992.04  E(vib)   ...       0.02 
freq.    1006.81  E(vib)   ...       0.02 
freq.    1019.24  E(vib)   ...       0.02 
freq.    1026.43  E(vib)   ...       0.02 
freq.    1035.90  E(vib)   ...       0.02 
freq.    1049.26  E(vib)   ...       0.02 
freq.    1051.17  E(vib)   ...       0.02 
freq.    1054.87  E(vib)   ...       0.02 
freq.    1061.38  E(vib)   ...       0.02 
freq.    1070.38  E(vib)   ...       0.02 
freq.    1079.88  E(vib)   ...       0.02 
freq.    1109.12  E(vib)   ...       0.02 
freq.    1116.02  E(vib)   ...       0.01 
freq.    1128.65  E(vib)   ...       0.01 
freq.    1143.27  E(vib)   ...       0.01 
freq.    1145.84  E(vib)   ...       0.01 
freq.    1148.30  E(vib)   ...       0.01 
freq.    1166.04  E(vib)   ...       0.01 
freq.    1168.13  E(vib)   ...       0.01 
freq.    1169.97  E(vib)   ...       0.01 
freq.    1171.37  E(vib)   ...       0.01 
freq.    1172.20  E(vib)   ...       0.01 
freq.    1173.42  E(vib)   ...       0.01 
freq.    1181.24  E(vib)   ...       0.01 
freq.    1194.86  E(vib)   ...       0.01 
freq.    1199.90  E(vib)   ...       0.01 
freq.    1202.31  E(vib)   ...       0.01 
freq.    1206.87  E(vib)   ...       0.01 
freq.    1213.19  E(vib)   ...       0.01 
freq.    1216.58  E(vib)   ...       0.01 
freq.    1218.38  E(vib)   ...       0.01 
freq.    1219.66  E(vib)   ...       0.01 
freq.    1222.98  E(vib)   ...       0.01 
freq.    1227.86  E(vib)   ...       0.01 
freq.    1237.18  E(vib)   ...       0.01 
freq.    1242.31  E(vib)   ...       0.01 
freq.    1247.76  E(vib)   ...       0.01 
freq.    1253.74  E(vib)   ...       0.01 
freq.    1259.32  E(vib)   ...       0.01 
freq.    1274.25  E(vib)   ...       0.01 
freq.    1284.80  E(vib)   ...       0.01 
freq.    1292.37  E(vib)   ...       0.01 
freq.    1298.07  E(vib)   ...       0.01 
freq.    1298.47  E(vib)   ...       0.01 
freq.    1311.48  E(vib)   ...       0.01 
freq.    1325.43  E(vib)   ...       0.01 
freq.    1327.38  E(vib)   ...       0.01 
freq.    1331.61  E(vib)   ...       0.01 
freq.    1342.18  E(vib)   ...       0.01 
freq.    1348.10  E(vib)   ...       0.01 
freq.    1359.39  E(vib)   ...       0.01 
freq.    1361.79  E(vib)   ...       0.01 
freq.    1363.42  E(vib)   ...       0.01 
freq.    1369.99  E(vib)   ...       0.01 
freq.    1389.73  E(vib)   ...       0.00 
freq.    1394.59  E(vib)   ...       0.00 
freq.    1399.21  E(vib)   ...       0.00 
freq.    1403.06  E(vib)   ...       0.00 
freq.    1410.57  E(vib)   ...       0.00 
freq.    1411.42  E(vib)   ...       0.00 
freq.    1412.41  E(vib)   ...       0.00 
freq.    1421.71  E(vib)   ...       0.00 
freq.    1428.24  E(vib)   ...       0.00 
freq.    1451.84  E(vib)   ...       0.00 
freq.    1456.71  E(vib)   ...       0.00 
freq.    1460.76  E(vib)   ...       0.00 
freq.    1467.87  E(vib)   ...       0.00 
freq.    1473.20  E(vib)   ...       0.00 
freq.    1477.93  E(vib)   ...       0.00 
freq.    1479.21  E(vib)   ...       0.00 
freq.    1479.87  E(vib)   ...       0.00 
freq.    1481.32  E(vib)   ...       0.00 
freq.    1481.91  E(vib)   ...       0.00 
freq.    1482.89  E(vib)   ...       0.00 
freq.    1485.22  E(vib)   ...       0.00 
freq.    1485.93  E(vib)   ...       0.00 
freq.    1489.59  E(vib)   ...       0.00 
freq.    1491.54  E(vib)   ...       0.00 
freq.    1493.49  E(vib)   ...       0.00 
freq.    1493.82  E(vib)   ...       0.00 
freq.    1495.41  E(vib)   ...       0.00 
freq.    1495.46  E(vib)   ...       0.00 
freq.    1498.78  E(vib)   ...       0.00 
freq.    1509.96  E(vib)   ...       0.00 
freq.    1534.50  E(vib)   ...       0.00 
freq.    1543.30  E(vib)   ...       0.00 
freq.    1548.69  E(vib)   ...       0.00 
freq.    1625.91  E(vib)   ...       0.00 
freq.    1632.06  E(vib)   ...       0.00 
freq.    1641.79  E(vib)   ...       0.00 
freq.    1649.33  E(vib)   ...       0.00 
freq.    1650.37  E(vib)   ...       0.00 
freq.    1652.58  E(vib)   ...       0.00 
freq.    2986.36  E(vib)   ...       0.00 
freq.    3004.55  E(vib)   ...       0.00 
freq.    3017.26  E(vib)   ...       0.00 
freq.    3020.89  E(vib)   ...       0.00 
freq.    3023.18  E(vib)   ...       0.00 
freq.    3025.97  E(vib)   ...       0.00 
freq.    3026.81  E(vib)   ...       0.00 
freq.    3027.51  E(vib)   ...       0.00 
freq.    3030.53  E(vib)   ...       0.00 
freq.    3043.26  E(vib)   ...       0.00 
freq.    3054.44  E(vib)   ...       0.00 
freq.    3059.28  E(vib)   ...       0.00 
freq.    3060.70  E(vib)   ...       0.00 
freq.    3067.87  E(vib)   ...       0.00 
freq.    3071.21  E(vib)   ...       0.00 
freq.    3077.77  E(vib)   ...       0.00 
freq.    3078.18  E(vib)   ...       0.00 
freq.    3089.11  E(vib)   ...       0.00 
freq.    3090.90  E(vib)   ...       0.00 
freq.    3095.23  E(vib)   ...       0.00 
freq.    3097.17  E(vib)   ...       0.00 
freq.    3110.22  E(vib)   ...       0.00 
freq.    3134.84  E(vib)   ...       0.00 
freq.    3139.18  E(vib)   ...       0.00 
freq.    3143.21  E(vib)   ...       0.00 
freq.    3151.20  E(vib)   ...       0.00 
freq.    3168.05  E(vib)   ...       0.00 
freq.    3182.59  E(vib)   ...       0.00 
freq.    3187.83  E(vib)   ...       0.00 
freq.    3198.07  E(vib)   ...       0.00 
freq.    3206.31  E(vib)   ...       0.00 
freq.    3210.35  E(vib)   ...       0.00 
freq.    3211.39  E(vib)   ...       0.00 
freq.    3214.59  E(vib)   ...       0.00 
freq.    3533.82  E(vib)   ...       0.00 
freq.    3613.89  E(vib)   ...       0.00 
freq.    3634.89  E(vib)   ...       0.00 
freq.    3725.57  E(vib)   ...       0.00 
freq.    3762.58  E(vib)   ...       0.00 
freq.    3766.24  E(vib)   ...       0.00 

------------
INNER ENERGY
------------

The inner energy is: U= E(el) + E(ZPE) + E(vib) + E(rot) + E(trans)
    E(el)   - is the total energy from the electronic structure calculation
              = E(kin-el) + E(nuc-el) + E(el-el) + E(nuc-nuc)
    E(ZPE)  - the the zero temperature vibrational energy from the frequency calculation
    E(vib)  - the the finite temperature correction to E(ZPE) due to population
              of excited vibrational states
    E(rot)  - is the rotational thermal energy
    E(trans)- is the translational thermal energy

Summary of contributions to the inner energy U:
Electronic energy                ...  -2032.63224949 Eh
Zero point energy                ...      0.68044447 Eh     426.98 kcal/mol
Thermal vibrational correction   ...      0.03951907 Eh      24.80 kcal/mol
Thermal rotational correction    ...      0.00141627 Eh       0.89 kcal/mol
Thermal translational correction ...      0.00141627 Eh       0.89 kcal/mol
-----------------------------------------------------------------------
Total thermal energy                  -2031.90945341 Eh


Summary of corrections to the electronic energy:
(perhaps to be used in another calculation)
Total thermal correction                  0.04235161 Eh      26.58 kcal/mol
Non-thermal (ZPE) correction              0.68044447 Eh     426.98 kcal/mol
-----------------------------------------------------------------------
Total correction                          0.72279608 Eh     453.56 kcal/mol


--------
ENTHALPY
--------

The enthalpy is H = U + kB*T
                kB is Boltzmann's constant
Total thermal energy              ...  -2031.90945341 Eh 
Thermal Enthalpy correction       ...      0.00094421 Eh       0.59 kcal/mol
-----------------------------------------------------------------------
Total Enthalpy                    ...  -2031.90850920 Eh


Note: Only C1 symmetry has been detected, increase convergence thresholds 
      if your molecule has a higher symmetry. Symmetry factor of 1.0 is   
      used for the rotational entropy correction. 
 

Note: Rotational entropy computed according to Herzberg 
Infrared and Raman Spectra, Chapter V,1, Van Nostrand Reinhold, 1945 
Point Group:  C1, Symmetry Number:   1  
Rotational constants in cm-1:     0.004355     0.002262     0.001934 

Vibrational entropy computed according to the QRRHO of S. Grimme
Chem.Eur.J. 2012 18 9955 using a reference frequency of 100.0 cm-1


-------
ENTROPY
-------

The entropy contributions are T*S = T*(S(el)+S(vib)+S(rot)+S(trans))
     S(el)   - electronic entropy
     S(vib)  - vibrational entropy
     S(rot)  - rotational entropy
     S(trans)- translational entropy
The entropies will be listed as multiplied by the temperature to get
units of energy

Electronic entropy                ...      0.00000000 Eh      0.00 kcal/mol
Vibrational entropy               ...      0.07012717 Eh     44.01 kcal/mol
Rotational entropy                ...      0.01790280 Eh     11.23 kcal/mol
Translational entropy             ...      0.02138181 Eh     13.42 kcal/mol
-----------------------------------------------------------------------
Final entropy term                ...      0.10941178 Eh     68.66 kcal/mol

In case the symmetry of your molecule has not been determined correctly
or in case you have a reason to use a different symmetry number we print 
out the resulting rotational entropy values for sn=1,12:

 non-linear molecules -----------------------------------
|  sn= 1 | S(rot)=       0.01790280 Eh     11.23 kcal/mol|
|  sn= 2 | S(rot)=       0.01724834 Eh     10.82 kcal/mol|
|  sn= 3 | S(rot)=       0.01686551 Eh     10.58 kcal/mol|
|  sn= 4 | S(rot)=       0.01659388 Eh     10.41 kcal/mol|
|  sn= 5 | S(rot)=       0.01638320 Eh     10.28 kcal/mol|
|  sn= 6 | S(rot)=       0.01621105 Eh     10.17 kcal/mol|
|  sn= 7 | S(rot)=       0.01606551 Eh     10.08 kcal/mol|
|  sn= 8 | S(rot)=       0.01593943 Eh     10.00 kcal/mol|
|  sn= 9 | S(rot)=       0.01582822 Eh      9.93 kcal/mol|
|  sn=10 | S(rot)=       0.01572874 Eh      9.87 kcal/mol|
|  sn=11 | S(rot)=       0.01563875 Eh      9.81 kcal/mol|
|  sn=12 | S(rot)=       0.01555660 Eh      9.76 kcal/mol|
 linear molecules ---------------------------------------
|  Dinfh | S(rot)=       0.01122544 Eh      7.04 kcal/mol|
|  Cinfv | S(rot)=       0.01187990 Eh      7.45 kcal/mol|
 --------------------------------------------------------


-------------------
GIBBS FREE ENERGY
-------------------

The Gibbs free energy is G = H - T*S

Total enthalpy                    ...  -2031.90850920 Eh 
Total entropy correction          ...     -0.10941178 Eh    -68.66 kcal/mol
-----------------------------------------------------------------------
Final Gibbs free energy         ...  -2032.01792098 Eh

For completeness - the Gibbs free energy minus the electronic energy
G-E(el)                           ...      0.61432851 Eh    385.50 kcal/mol


Maximum memory used throughout the entire PROP-calculation: 1825.6 MB
--------------------------------------------------------------------------
WARNING: There was an error initializing an OpenFabrics device.

  Local host:   c08b01n06
  Local device: mlx5_0
--------------------------------------------------------------------------
--------------------------------------------------------------------------
WARNING: There is at least one non-excluded one OpenFabrics device found,
but there are no active ports detected (or Open MPI was unable to use
them).  This is most certainly not what you wanted.  Check your
cables, subnet manager configuration, etc.  The openib BTL will be
ignored for this job.

  Local host: c08b01n06
--------------------------------------------------------------------------
[c08b01n06:2626846] 57 more processes have sent help message help-mpi-btl-openib.txt / error in device init
[c08b01n06:2626846] Set MCA parameter "orte_base_help_aggregate" to 0 to see all help / error messages
[c08b01n06:2626846] 5 more processes have sent help message help-mpi-btl-openib.txt / no active ports found

--------------------------------
SUGGESTED CITATIONS FOR THIS RUN
--------------------------------

Below you find a list of papers that are relevant to this ORCA run
We neither can nor want to force you to cite these papers, but we appreciate if you do
You receive ORCA, which is the product of decades of hard work by many enthusiastic individuals, for free
The only thing we kindly ask in return is that you cite our papers,
We deeply appreciate it, if you show your appreciation for ORCA by not just citing the generic ORCA reference.

Please note that relegating all ORCA citations to the supporting information does *not* help us.
SI sections are not indexed - citations you put there will not count into any citation statistics
But we need these citations in order to attract the funding resources that allow us to do what we are doing

Therefore, if you are a happy ORCA user, please consider citing a few of the papers listed below in the main body of your paper

In addition to the list printed below, the program has created the file opt-conf-1.bibtex that contains the list in bibtex format
You can import this file easily into all common literature databanks and citation aid programs


List of essential papers. We consider these as the minimum necessary citations

  1. Neese, F.
     Software update: the ORCA program system, version 6.0
     WIRES Comput. Molec. Sci. 2025 15(1), e70019
     doi.org/10.1002/wcms.7019

List of papers to cite with high priority. The work reported in these papers was absolutely
necessary for this run to complete.
Our perspective: the developers of density functionals and basis sets usually get cited in chemistry papers
Good! But without the algorithms to do something with them, the functionals or basis sets would not do anything.
Hence, in our opinion, the algorithm design and method developments papers are equally worthy of getting cited

  1. Neese, F.
     An improvement of the resolution of the identity approximation for the formation of the Coulomb matrix
     J. Comp. Chem. 2003 24(14), 1740-1747
     doi.org/10.1002/jcc.10318
  2. Neese, F.; Wennmohs, F.; Hansen, A.; Becker, U.
     Efficient, approximate and parallel Hartree-Fock and hybrid DFT calculations. A 'chain-of-spheres' algorithm for the Hartree-Fock exchange
     Chem. Phys. 2009 356(1-3), 98-109
     doi.org/10.1016/j.chemphys.2008.10.036
  3. Bykov, D.; Petrenko, T.; Izsak, R.; Kossmann, S.; Becker, U.; Valeev, E.; Neese, F.
     Efficient implementation of the analytic second derivatives of Hartree-Fock and hybrid DFT energies: a detailed analysis of different approximations
     Molec. Phys. 2015 113 , 1961-1977
     doi.org/10.1080/00268976.2015.1025114
  4. Caldeweyher, E.; Bannwarth, C.; Grimme, S.
     Extension of the D3 dispersion coefficient model
     J. Chem. Phys. 2017 147 , 034112
     doi.org/10.1063/1.4993215
  5. Caldeweyher, E.; Ehlert, S.; Hansen, A.; Neugebauer, H.; Spicher, S.; Bannwarth, C.; Grimme, S.
     A generally applicable atomic-charge dependent London dispersion correction
     J. Chem. Phys. 2019 150 , 154122
     doi.org/10.1063/1.5090222
  6. Garcia-Rates, M.; Neese, F.
     Efficient implementation of the analytical second derivatives of hartree-fock and hybrid DFT energies within the framework of the conductor-like polarizable continuum model
     J. Comput. Chem. 2019 40 , 1816-1828
     doi.org/10.1002/jcc.25833
  7. Caldeweyher, E.; Mewes, J.; Ehlert, S.; Grimme, S.
     Extension and evaluation of the D4 London-dispersion model for periodic systems
     Phys. Chem. Chem. Phys. 2020 22(16), 8499-8512
     doi.org/10.1039/D0CP00502A
  8. Garcia-Rates, M.; Neese, F.
     Effect of the Solute Cavity on the Solvation Energy and its Derivatives within the Framework of the Gaussian Charge Scheme
     J. Comput. Chem. 2020 41 , 922-939
     doi.org/10.1002/jcc.26139
  9. Helmich-Paris, B.; de Souza, B.; Neese, F.; Izsák, R.
     An improved chain of spheres for exchange algorithm
     J. Chem. Phys. 2021 155(10), 104109
     doi.org/10.1063/5.0058766
 10. Neese, F.
     The SHARK Integral Generation and Digestion System
     J. Comp. Chem. 2022 44(3), 381
     doi.org/10.1002/jcc.26942
 11. Wittmann, L.; Gordiy, I.; Friede, M.; Helmich-Paris, B.; Grimme, S.; Hansen, A.; Bursch, M.
     Extension of the D3 and D4 London Dispersion Corrections to the full Actinides Series
     Phys. Chem. Chem. Phys. 2024 26(32), 21379-21394
     doi.org/10.1039/D4CP01514B

List of suggested additional citations. These are papers that are important in the 'surrounding' of 
of this run, or papers that preceded the highly important papers. If you like your results we are grateful for a citation.

  1. Izsak, R.; Neese, F.
     An overlap fitted chain of spheres exchange method
     J. Chem. Phys. 2011 135 , 144105
     doi.org/10.1063/1.3646921
  2. Izsak, R.; Hansen, A.; Neese, F.
     The resolution of identity and chain of spheres approximations for the LPNO-CCSD singles Fock term
     Molec. Phys. 2012 110 , 2413-2417
     doi.org/10.1080/00268976.2012.687466
  3. Neese, F.
     The ORCA program system
     WIRES Comput. Molec. Sci. 2012 2(1), 73-78
     doi.org/10.1002/wcms.81
  4. Izsak, R.; Neese, F.; Klopper, W.
     Robust fitting techniques in the chain of spheres approximation to the Fock exchange: The role of the complementary space
     J. Chem. Phys. 2013 139 , 
     doi.org/10.1063/1.4819264
  5. Neese, F.
     Software update: the ORCA program system, version 4.0
     WIRES Comput. Molec. Sci. 2018 8(1), 1-6
     doi.org/10.1002/wcms.1327
  6. Neese, F.; Wennmohs, F.; Becker, U.; Riplinger, C.
     The ORCA quantum chemistry program package
     J. Chem. Phys. 2020 152(22), 224108
     doi.org/10.1063/5.0004608
  7. Neese, F.
     Software update: The ORCA program system—Version 5.0
     WIRES Comput. Molec. Sci. 2022 12(1), e1606
     doi.org/10.1002/wcms.1606

List of optional additional citations

  1. Neese, F.
     Approximate second-order SCF convergence for spin unrestricted wavefunctions
     Chem. Phys. Lett. 2000 325(1-3), 93-98
     doi.org/10.1016/s0009-2614(00)00662-x

Timings for individual modules:

Sum of individual times          ...    21877.653 sec (= 364.628 min)
Startup calculation              ...     2051.203 sec (=  34.187 min)   9.4 %
SCF iterations                   ...    12596.577 sec (= 209.943 min)  57.6 %
Property integrals               ...     1680.487 sec (=  28.008 min)   7.7 %
SCF Response                     ...     3459.762 sec (=  57.663 min)  15.8 %
Property calculations            ...      718.207 sec (=  11.970 min)   3.3 %
SCF Gradient evaluation          ...     1351.723 sec (=  22.529 min)   6.2 %
Geometry relaxation              ...       19.694 sec (=   0.328 min)   0.1 %
                             ****ORCA TERMINATED NORMALLY****
TOTAL RUN TIME: 0 days 6 hours 12 minutes 37 seconds 450 msec
