
                                 *****************
                                 * O   R   C   A *
                                 *****************

                                            #,                                       
                                            ###                                      
                                            ####                                     
                                            #####                                    
                                            ######                                   
                                           ########,                                 
                                     ,,################,,,,,                         
                               ,,#################################,,                 
                          ,,##########################################,,             
                       ,#########################################, ''#####,          
                    ,#############################################,,   '####,        
                  ,##################################################,,,,####,       
                ,###########''''           ''''###############################       
              ,#####''   ,,,,##########,,,,          '''####'''          '####       
            ,##' ,,,,###########################,,,                        '##       
           ' ,,###''''                  '''############,,,                           
         ,,##''                                '''############,,,,        ,,,,,,###''
      ,#''                                            '''#######################'''  
     '                                                          ''''####''''         
             ,#######,   #######,   ,#######,      ##                                
            ,#'     '#,  ##    ##  ,#'     '#,    #''#        ,####,    ,#,          
            ##       ##  ##   ,#'  ##            #'  '#       #'       ,# #          
            ##       ##  #######   ##           ,######,      #####,      #          
            '#,     ,#'  ##    ##  '#,     ,#' ,#      #,     #,   #      #          
             '#######'   ##     ##  '#######'  #'      '#     '####' #    #          



                #########################################################
                #                        -***-                          #
                #          Department of theory and spectroscopy        #
                #                                                       #
                #                      Frank Neese                      #
                #                                                       #
                #     Directorship, Architecture, Infrastructure        #
                #                    SHARK, DRIVERS                     #
                #        Core code/Algorithms in most modules           #
                #                                                       #
                #        Max Planck Institute fuer Kohlenforschung      #
                #                Kaiser Wilhelm Platz 1                 #
                #                 D-45470 Muelheim/Ruhr                 #
                #                      Germany                          #
                #                                                       #
                #                  All rights reserved                  #
                #                        -***-                          #
                #########################################################


                         Program Version 6.1.0-f.0  -   RELEASE   -


 With contributions from (in alphabetic order):
[Max-Planck-Institut fuer Kohlenforschung]                               
  Daniel Aravena         : Magnetic Suceptibility                        
  Michael Atanasov       : Ab Initio Ligand Field Theory (pilot matlab implementation)
  Alexander A. Auer      : GIAO ZORA, VPT2 properties, NMR spectrum      
  Ute Becker             : All parallelization in ORCA, NUMFREQ, NUMCALC 
  Giovanni Bistoni       : ED, misc. LED, open-shell LED, HFLD           
  Dmytro Bykov           : pre 5.0 version of the SCF Hessian            
  Marcos Casanova-Páez   : Triplet and SCS-CIS(D). UHF-(DLPNO)-IP/EA/STEOM-CCSD. UHF-CVS-IP/STEOM-CCSD   
  Vijay G. Chilkuri      : MRCI spin determinant printing, contributions to CSF-ICE 
  Pauline Colinet        : FMM embedding                                 
  Dipayan Datta          : RHF DLPNO-CCSD density                        
  Achintya Kumar Dutta   : EOM-CC, STEOM-CC                              
  Nicolas Foglia         : Exact transition moments, OPA infrastructure, MCD improvements    
  Dmitry Ganyushin       : Spin-Orbit,Spin-Spin,Magnetic field MRCI      
  Miquel Garcia-Rates    : C-PCM and meta-GGA Hessian, CCSD/C-PCM, Gaussian charge scheme 
  Tiago L. C. Gouveia    : GS-ROHF, GS-ROCIS                             
  Yang Guo               : DLPNO-NEVPT2, F12-NEVPT2, CIM, IAO-localization        
  Andreas Hansen         : Spin unrestricted coupled pair/coupled cluster methods 
  Ingolf Harden          : AUTO-CI MPn and infrastructure                
  Benjamin Helmich-Paris : MC-RPA, TRAH-(SCF,CASSCF), AVAS, COSX integrals, SCF dyn. polar., MC-PDFT, srDFT 
  Lee Huntington         : MR-EOM, pCC                                   
  Robert Izsak           : Overlap fitted RIJCOSX, COSX-SCS-MP3, EOM     
  Riya Kayal             : Wick's Theorem for AUTO-CI, AUTO-CI UHF-CCSDT 
  Emily Kempfer          : AUTO-CI RHF CISDT and CCSDT, approximate NEVPT4
  Christian Kollmar      : KDIIS, OOCD, Brueckner-CCSD(T), CCSD density, CASPT2, CASPT2-K, improved NEVPT2 
  Axel Koslowski         : Symmetry handling                             
  Simone Kossmann        : meta-GGA functionals, TD-DFT gradient, OOMP2, (MP2 Hessian; deprecated post 5.0) 
  Lucas Lang             : DCDCAS, Hyperfine gauge corrections, ICE-SOC+SSC
  Marvin Lechner         : AUTO-CI (C++ implementation), FIC-MRCC        
  Spencer Leger          : CASSCF response                               
  Dagmar Lenk            : GEPOL surface, SMD, ORCA-2-JSON               
  Dimitrios Liakos       : Extrapolation schemes; Compound Job, Property file
  Dimitrios Manganas     : Further ROCIS development; embedding schemes. LFT, Crystal Embedding 
  Dimitrios Pantazis     : SARC Basis sets                               
  Anastasios Papadopoulos: AUTO-CI, single reference methods and gradients 
  Taras Petrenko         : pre 6.0 DFT Hessian and TD-DFT gradient,  ECA, NRVS 
  Petra Pikulova         : Analytic Raman intensities                    
  Peter Pinski           : DLPNO-MP2, DLPNO-MP2 Gradient                 
  Shashank Vittal Rao    : ES-AILFT, MagRelax                            
  Christoph Reimann      : Effective Core Potentials                     
  Marius Retegan         : Local ZFS, SOC                                
  Christoph Riplinger    : Optimizer, TS searches, QM/MM, DLPNO-CCSD(T), (RO)-DLPNO pert. Triples 
  Michael Roemelt        : Original ROCIS implementation, recursive CI coupling coefficients
  Masaaki Saitow         : Open-shell DLPNO-CCSD energy and density      
  Barbara Sandhoefer     : DKH picture change effects                    
  Yorick L. A. Schmerwitz: GMF and freeze-and-release deltaSCF, NEB S-IDPP initial path                    
  Kantharuban Sivalingam : CASSCF convergence/infrastructure, NEVPT2, NEVPT3, NEVPT4(SD), FIC-MRCI and CEPA variants
  Bernardo de Souza      : ESD, SOC TD-DFT                               
  Georgi L. Stoychev     : AutoAux, RI-MP2 NMR, DLPNO-MP2 response, X2C  
  Van Anh Tran           : RI-MP2 g-tensors                              
  Willem Van den Heuvel  : Paramagnetic NMR                              
  Zikuan Wang            : NOTCH, Electric field optimization            
  Frank Wennmohs         : Technical directorship and infrastructure     
  Hang Xu                : AUTO-CI-Response properties                   
                                                                         
[FACCTs GmbH]                                                            
  Markus Bursch, Nicolas Foglia, Miquel Garcia-Rates, Ingolf Harden, Hagen Neugebauer, Anastasios Papadopoulos, 
  Christoph Riplinger, Bernardo de Souza, Georgi L. Stoychev                                                    
                                                                 
  APM, various basis sets, CI-OPT, improved COSX, DLPNO-Multilevel,           
  DOCKER, DRACO, updates on ESD, Fragmentator, GOAT, IRC, LR-CPCM, L-BFGS, MBIS, meta-GGA TD-DFT gradient, ML-optimized integration grids, 
  MM, NACMEs, nearIR, NEB, NEB-TS, NL-DFT gradient (VV10), 2- and 3-layer-ONIOM, interface openCOSMO-RS, QMMM,   
  Crystal-QMMM, RESP, rigid body optimization, SF, symmetry and pop. for TD-DFT, various functionals, SOLVATOR                                   
                                                                         
[Other institutions]                                                     
  V. Asgeirsson          : NEB                                           
  Christoph Bannwarth    : sTDA-DFT, sTD-DFT, PBEh-3c, B97-3c, D3        
  Giovanni Bistoni       : ETS/NOCV, ADLD/ADEX, COVALED                  
  Martin Brehm           : Molecular dynamics                            
  Ronald Cardenas        : ETS/NOCV                                      
  Martina Colucci        : COVALED                                       
  Sebastian Ehlert       : rSCAN, r2SCAN, r2SCAN-3c, D4, dhf basis sets  
  Marvin Friede          : D4 for Fr, Ra, Ac-Lr                          
  Lars Goerigk           : TD-DFT with DH, B97 family of functionals     
  Stefan Grimme          : VdW corrections, initial TS optimization, DFT functionals, gCP, sTDA/sTD-DF 
  Waldemar Hujo          : DFT-NL                                        
  H. Jonsson             : NEB                                           
  Holger Kruse           : gCP                                           
  Marcel Mueller         : wB97X-3c, vDZP basis set                      
  Hagen Neugebauer       : wr2SCAN, Native XTB                           
  Gianluca Regni         : ADLD/ADEX                                     
  Tobias Risthaus        : pre 6.0 range-separated hybrid DFT and stability analysis
  Lukas Wittmann         : regularized MP2, r2SCAN double-hybrids, wr2SCAN        
                                                                         
We gratefully acknowledge several colleagues who have allowed us to      
interface, adapt or use parts of their codes:                            
  Ed Valeev, F. Pavosevic, A. Kumar             : LibInt (2-el integral package), F12 methods 
  Garnet Chan, S. Sharma, J. Yang, R. Olivares  : DMRG                   
  Ulf Ekstrom                                   : XCFun DFT Library      
  Mihaly Kallay                                 : mrcc  (arbitrary order and MRCC methods)
  Frank Weinhold                                : gennbo (NPA and NBO analysis)           
  Simon Mueller                                 : openCOSMO-RS                            
  Christopher J. Cramer and Donald G. Truhlar   : smd solvation model                     
  S Lehtola, MJT Oliveira, MAL Marques          : LibXC Library                           
  Liviu Ungur et al                             : ANISO software                          


 Your calculation uses the libint2 library for the computation of 2-el integrals
 For citations please refer to: http://libint.valeyev.net

 Your ORCA version has been built with support for libXC version: 7.0.0
 For citations please refer to: https://libxc.gitlab.io

 This ORCA versions uses:
   CBLAS   interface :  Fast vector & matrix operations
   LAPACKE interface :  Fast linear algebra routines
   SCALAPACK package :  Parallel linear algebra routines
   Shared memory     :  Shared parallel matrices
   BLAS/LAPACK       :  OpenBLAS 0.3.29  USE64BITINT DYNAMIC_ARCH NO_AFFINITY Cooperlake SINGLE_THREADED
        Core in use  :  Cooperlake
   Copyright (c) 2011-2014, The OpenBLAS Project


  ***********************************
  * Starting time: Sat Feb 28 01:42:15 2026
  * Host name:     c03b01n01
  * Process ID:    3539299
  * Working dir.:  /lustre1/jiangy/jiangy_liuxy/NMR/B9D7C2-SSRS
  ***********************************

NOTE: MaxCore=6000 MB was set to SCF,MP2,MDCI,CIPSI,MRCI,RASCI and CIS
      => If you want to overwrite this, your respective input block should be placed after the MaxCore statement


***************************************
The coordinates will be read from file: conf-6.xyz
***************************************


Your calculation utilizes the atom-pairwise dispersion correction
based on EEQ partial charges (D4)


Warning: RI is on but no J-basis has been assigned. Assigning Def2/J (nothing to worry about!)
================================================================================

----- Orbital basis set information -----
Your calculation utilizes the basis: def2-TZVP
   F. Weigend and R. Ahlrichs, Phys. Chem. Chem. Phys. 7, 3297 (2005).

----- AuxJ basis set information -----
Your calculation utilizes the auxiliary basis: def2/J
   H-Rn: F. Weigend, Phys. Chem. Chem. Phys. 8, 1057 (2006).
   Fr-Lr: K. Eichkorn, F. Weigend, O. Treutler, R. Ahlrichs; Theor. Chem. Acc. 97, 119 (1997).

================================================================================
                                        WARNINGS
                       Please study these warnings very carefully!
================================================================================


WARNING: Geometry Optimization
  ===> : Switching off AutoStart
         For restart on a previous wavefunction, please use MOREAD

================================================================================
                                       INPUT FILE
================================================================================
NAME = opt-conf-6.inp
|  1> ! B3LYP OPT FREQ DEF2-TZVP D4 CPCM(Methanol) 
|  2> ! TightOpt
|  3> %pal nprocs 64 end
|  4> %maxcore 6000
|  5> 
|  6> %cpcm
|  7> end
|  8> 
|  9> %freq
| 10>    Temp 298.15
| 11> end
| 12> 
| 13> * xyzfile 0 1 conf-6.xyz
| 14> 
| 15> 
| 16>                          ****END OF INPUT****
================================================================================

                       *****************************
                       * Geometry Optimization Run *
                       *****************************

Geometry optimization settings:
Update method            Update   .... BFGS
Choice of coordinates    CoordSys .... (2022) Redundant Internals
Initial Hessian          InHess   .... Almloef's Model
Max. no of cycles        MaxIter  .... 246

Convergence Tolerances:
Energy Change            TolE     ....  1.0000e-06 Eh
Max. Gradient            TolMAXG  ....  1.0000e-04 Eh/bohr
RMS Gradient             TolRMSG  ....  3.0000e-05 Eh/bohr
Max. Displacement        TolMAXD  ....  1.0000e-03 bohr
RMS Displacement         TolRMSD  ....  6.0000e-04 bohr
Strict Convergence                .... False

------------------------------------------------------------------------------
                        ORCA OPTIMIZATION COORDINATE SETUP
------------------------------------------------------------------------------

The optimization will be done in redundant internal coordinates (2022)
Making redundant internal coordinates   ...  (2022 redundants) done
Evaluating the initial hessian          ...  (Almloef) done
Evaluating the coordinates              ...  done
Calculating the B-matrix                .... done
Calculating the G-matrix                .... done
The number of degrees of freedom        ....  407

    -----------------------------------------------------------------
                    Redundant Internal Coordinates


    -----------------------------------------------------------------
         Definition                    Initial Value    Approx d2E/dq
    -----------------------------------------------------------------
      1. B(C   1,C   0)                  1.4017         0.598618   
      2. B(C   2,C   1)                  1.4049         0.591555   
      3. B(C   3,C   2)                  1.3855         0.635307   
      4. B(C   4,C   3)                  1.3866         0.632546   
      5. B(C   5,C   4)                  1.3837         0.639530   
      6. B(C   5,C   0)                  1.3881         0.629105   
      7. B(C   6,C   4)                  1.4997         0.417550   
      8. B(C   7,C   6)                  1.5434         0.355572   
      9. B(C   8,C   7)                  1.5457         0.352658   
     10. B(C   9,C   8)                  1.5398         0.360370   
     11. B(C  10,C   9)                  1.5047         0.409944   
     12. B(C  11,C  10)                  1.3936         0.616601   
     13. B(C  12,C  11)                  1.3818         0.644021   
     14. B(C  13,C  12)                  1.4071         0.586809   
     15. B(C  14,C  13)                  1.3850         0.636321   
     16. B(C  15,C  10)                  1.3836         0.639697   
     17. B(C  15,C  14)                  1.3857         0.634630   
     18. B(C  16,C   7)                  1.5330         0.369445   
     19. B(C  17,C   8)                  1.5386         0.362023   
     20. B(O  18,C   2)                  1.3713         0.599314   
     21. B(O  19,C   0)                  1.3652         0.613082   
     22. B(O  20,C   1)                  1.3701         0.601943   
     23. B(O  21,C  13)                  1.3540         0.638730   
     24. B(O  22,C  12)                  1.3763         0.588514   
     25. B(C  23,O  20)                  1.4185         0.503927   
     26. B(C  24,C  23)                  1.5530         0.343321   
     27. B(C  25,C  24)                  1.5114         0.399966   
     28. B(C  26,C  23)                  1.5341         0.367994   
     29. B(O  27,C  26)                  1.4028         0.533960   
     30. B(C  28,C  25)                  1.3921         0.620033   
     31. B(C  29,C  28)                  1.3816         0.644285   
     32. B(C  30,C  29)                  1.4050         0.591390   
     33. B(C  31,C  30)                  1.3826         0.642052   
     34. B(C  32,C  31)                  1.3848         0.636948   
     35. B(C  32,C  25)                  1.3858         0.634491   
     36. B(C  33,O  19)                  1.4077         0.524447   
     37. B(C  34,O  18)                  1.4062         0.527325   
     38. B(C  35,O  22)                  1.4088         0.522217   
     39. B(O  36,C  24)                  1.4068         0.526093   
     40. B(O  37,C  16)                  1.4169         0.507016   
     41. B(O  38,C  17)                  1.4022         0.535096   
     42. B(O  39,C  29)                  1.3758         0.589667   
     43. B(O  40,C  30)                  1.3593         0.626386   
     44. B(C  41,O  39)                  1.4055         0.528719   
     45. B(H  42,C   3)                  1.0788         0.375255   
     46. B(H  43,C   5)                  1.0769         0.377834   
     47. B(H  44,C   6)                  1.0918         0.357687   
     48. B(H  45,C   6)                  1.0886         0.361992   
     49. B(H  46,C   7)                  1.0953         0.353180   
     50. B(H  47,C   8)                  1.0931         0.356016   
     51. B(H  48,C   9)                  1.0917         0.357833   
     52. B(H  49,C   9)                  1.0927         0.356546   
     53. B(H  50,C  11)                  1.0787         0.375364   
     54. B(H  51,C  14)                  1.0789         0.375041   
     55. B(H  52,C  15)                  1.0807         0.372645   
     56. B(H  53,C  16)                  1.0994         0.347901   
     57. B(H  54,C  16)                  1.0988         0.348644   
     58. B(H  55,C  17)                  1.0989         0.348478   
     59. B(H  56,C  17)                  1.0946         0.354020   
     60. B(H  57,O  21)                  0.9689         0.503280   
     61. B(H  57,O  27)                  2.3743         0.010000   
     62. B(H  57,O  22)                  2.2278         0.010000   
     63. B(H  58,C  23)                  1.0951         0.353406   
     64. B(H  59,C  24)                  1.0952         0.353317   
     65. B(H  60,C  26)                  1.0906         0.359346   
     66. B(H  61,C  26)                  1.0983         0.349332   
     67. B(H  62,O  22)                  1.9836         0.012102   
     68. B(H  62,O  20)                  2.3266         0.010000   
     69. B(H  62,O  27)                  0.9705         0.500275   
     70. B(H  63,C  28)                  1.0781         0.376157   
     71. B(H  64,C  31)                  1.0785         0.375603   
     72. B(H  65,C  32)                  1.0805         0.372956   
     73. B(H  66,H  64)                  2.6502         0.010000   
     74. B(H  66,C  33)                  1.0942         0.354587   
     75. B(H  67,C  33)                  1.0887         0.361820   
     76. B(H  68,H  51)                  2.5149         0.010000   
     77. B(H  68,C  33)                  1.0932         0.355864   
     78. B(H  69,C  34)                  1.0955         0.352916   
     79. B(H  70,C  34)                  1.0950         0.353594   
     80. B(H  71,C  34)                  1.0891         0.361274   
     81. B(H  72,C  35)                  1.0893         0.361044   
     82. B(H  73,C  35)                  1.0921         0.357269   
     83. B(H  74,C  35)                  1.0938         0.355065   
     84. B(H  75,O  36)                  0.9641         0.512181   
     85. B(H  76,O  37)                  0.9618         0.516523   
     86. B(H  77,O  37)                  1.9083         0.015961   
     87. B(H  77,O  38)                  0.9696         0.501930   
     88. B(H  78,H  44)                  4.0370         0.010000   
     89. B(H  78,O  39)                  2.1075         0.010000   
     90. B(H  78,O  40)                  0.9671         0.506628   
     91. B(H  79,H  69)                  2.5262         0.010000   
     92. B(H  79,C  41)                  1.0933         0.355744   
     93. B(H  80,C  41)                  1.0944         0.354272   
     94. B(H  81,C  41)                  1.0890         0.361378   
     95. A(C   1,C   0,O  19)          117.6398         0.427658   
     96. A(C   5,C   0,O  19)          123.1253         0.431487   
     97. A(C   1,C   0,C   5)          119.2285         0.432467   
     98. A(C   0,C   1,O  20)          126.0395         0.426255   
     99. A(C   0,C   1,C   2)          119.0305         0.427716   
    100. A(C   2,C   1,O  20)          114.7065         0.425350   
    101. A(C   3,C   2,O  18)          124.2695         0.430488   
    102. A(C   1,C   2,C   3)          120.6810         0.432307   
    103. A(C   1,C   2,O  18)          115.0426         0.425017   
    104. A(C   4,C   3,H  42)          119.0580         0.356593   
    105. A(C   2,C   3,H  42)          120.9167         0.356857   
    106. A(C   2,C   3,C   4)          120.0229         0.437553   
    107. A(C   5,C   4,C   6)          119.6341         0.406755   
    108. A(C   3,C   4,C   6)          120.5962         0.405966   
    109. A(C   3,C   4,C   5)          119.5020         0.438076   
    110. A(C   4,C   5,H  43)          118.6022         0.357676   
    111. A(C   0,C   5,H  43)          119.8736         0.356678   
    112. A(C   0,C   5,C   4)          121.4976         0.437645   
    113. A(C   4,C   6,H  44)          110.1627         0.329954   
    114. A(C   7,C   6,H  45)          110.0264         0.321979   
    115. A(C   4,C   6,C   7)          108.9830         0.367222   
    116. A(H  44,C   6,H  45)          108.4676         0.290772   
    117. A(C   4,C   6,H  45)          110.6043         0.330608   
    118. A(C   7,C   6,H  44)          108.5687         0.321349   
    119. A(C   6,C   7,C  16)          110.6239         0.359620   
    120. A(C   8,C   7,C  16)          115.1800         0.359116   
    121. A(C  16,C   7,H  46)          105.7818         0.322699   
    122. A(C   8,C   7,H  46)          106.1540         0.320252   
    123. A(C   6,C   7,H  46)          106.6225         0.320683   
    124. A(C   6,C   7,C   8)          111.8270         0.356787   
    125. A(C   7,C   8,C  17)          115.3651         0.357878   
    126. A(C  17,C   8,H  47)          106.5989         0.322049   
    127. A(C   7,C   8,C   9)          110.4228         0.357600   
    128. A(C   9,C   8,H  47)          107.1725         0.321808   
    129. A(C   7,C   8,H  47)          106.7824         0.320671   
    130. A(C   9,C   8,C  17)          110.0639         0.359198   
    131. A(H  48,C   9,H  49)          107.7590         0.290099   
    132. A(C  10,C   9,H  48)          109.9989         0.328976   
    133. A(C  10,C   9,H  49)          108.9959         0.328780   
    134. A(C   8,C   9,C  10)          111.5454         0.366909   
    135. A(C   8,C   9,H  48)          109.7925         0.322077   
    136. A(C   8,C   9,H  49)          108.6574         0.321887   
    137. A(C   9,C  10,C  11)          119.4908         0.402831   
    138. A(C  11,C  10,C  15)          118.6463         0.436085   
    139. A(C   9,C  10,C  15)          121.8628         0.405454   
    140. A(C  10,C  11,C  12)          121.2407         0.436615   
    141. A(C  10,C  11,H  50)          118.5868         0.355069   
    142. A(C  12,C  11,H  50)          120.1675         0.357702   
    143. A(C  11,C  12,C  13)          119.7421         0.432740   
    144. A(C  13,C  12,O  22)          115.0485         0.423028   
    145. A(C  11,C  12,O  22)          125.1883         0.430136   
    146. A(C  12,C  13,O  21)          122.0351         0.429276   
    147. A(C  12,C  13,C  14)          118.7695         0.431806   
    148. A(C  14,C  13,O  21)          119.1884         0.435572   
    149. A(C  13,C  14,H  51)          118.1034         0.356919   
    150. A(C  13,C  14,C  15)          120.8705         0.437938   
    151. A(C  15,C  14,H  51)          121.0189         0.356758   
    152. A(C  14,C  15,H  52)          119.2639         0.356370   
    153. A(C  10,C  15,H  52)          120.0263         0.356852   
    154. A(C  10,C  15,C  14)          120.7052         0.438357   
    155. A(O  37,C  16,H  54)          110.4024         0.337263   
    156. A(C   7,C  16,H  54)          109.6403         0.322016   
    157. A(O  37,C  16,H  53)          109.1750         0.337144   
    158. A(C   7,C  16,H  53)          108.4108         0.321904   
    159. A(C   7,C  16,O  37)          111.1809         0.379836   
    160. A(H  53,C  16,H  54)          107.9497         0.287811   
    161. A(O  38,C  17,H  56)          105.7240         0.341183   
    162. A(C   8,C  17,O  38)          113.4995         0.382057   
    163. A(H  55,C  17,H  56)          107.6234         0.288576   
    164. A(C   8,C  17,H  56)          108.5080         0.321753   
    165. A(O  38,C  17,H  55)          110.7743         0.340284   
    166. A(C   8,C  17,H  55)          110.4163         0.320923   
    167. A(C   2,O  18,C  34)          118.3564         0.413695   
    168. A(C   0,O  19,C  33)          118.7146         0.414964   
    169. A(C   1,O  20,C  23)          121.9549         0.410695   
    170. A(C  13,O  21,H  57)          110.2871         0.369936   
    171. A(C  12,O  22,C  35)          118.6637         0.411649   
    172. A(C  26,C  23,H  58)          108.8497         0.322525   
    173. A(C  24,C  23,H  58)          109.6459         0.318885   
    174. A(O  20,C  23,H  58)          110.9443         0.337683   
    175. A(C  24,C  23,C  26)          112.0841         0.357242   
    176. A(O  20,C  23,C  26)          104.3066         0.379176   
    177. A(O  20,C  23,C  24)          110.9063         0.374653   
    178. A(C  23,C  24,O  36)          111.2411         0.377450   
    179. A(O  36,C  24,H  59)          105.2496         0.340103   
    180. A(C  25,C  24,H  59)          110.2034         0.326956   
    181. A(C  23,C  24,H  59)          107.8934         0.318872   
    182. A(C  25,C  24,O  36)          113.2936         0.387594   
    183. A(C  23,C  24,C  25)          108.7962         0.362348   
    184. A(C  28,C  25,C  32)          119.3106         0.435879   
    185. A(C  24,C  25,C  32)          120.5963         0.403113   
    186. A(C  24,C  25,C  28)          120.0073         0.401478   
    187. A(O  27,C  26,H  61)          110.9083         0.340302   
    188. A(H  60,C  26,H  61)          109.0527         0.289362   
    189. A(C  23,C  26,H  61)          108.6668         0.321913   
    190. A(O  27,C  26,H  60)          107.2229         0.341915   
    191. A(C  23,C  26,H  60)          110.3284         0.323407   
    192. A(C  23,C  26,O  27)          110.6481         0.383003   
    193. A(C  26,O  27,H  62)          106.7048         0.358406   
    194. A(C  29,C  28,H  63)          120.7355         0.357856   
    195. A(C  25,C  28,H  63)          118.7657         0.355531   
    196. A(C  25,C  28,C  29)          120.4870         0.437084   
    197. A(C  30,C  29,O  39)          114.3811         0.423764   
    198. A(C  28,C  29,O  39)          125.8046         0.430318   
    199. A(C  28,C  29,C  30)          119.8143         0.433378   
    200. A(C  31,C  30,O  40)          120.2239         0.434746   
    201. A(C  29,C  30,O  40)          120.2719         0.428373   
    202. A(C  29,C  30,C  31)          119.5041         0.433107   
    203. A(C  32,C  31,H  64)          121.1394         0.357070   
    204. A(C  30,C  31,H  64)          118.6402         0.357555   
    205. A(C  30,C  31,C  32)          120.2176         0.438936   
    206. A(C  31,C  32,H  65)          118.6395         0.356641   
    207. A(C  25,C  32,H  65)          120.7304         0.356407   
    208. A(C  25,C  32,C  31)          120.6241         0.437999   
    209. A(H  67,C  33,H  68)          109.1662         0.290517   
    210. A(H  66,C  33,H  68)          110.1680         0.289598   
    211. A(O  19,C  33,H  68)          111.2041         0.340333   
    212. A(H  66,C  33,H  67)          109.7193         0.290353   
    213. A(O  19,C  33,H  67)          105.2508         0.341279   
    214. A(O  19,C  33,H  66)          111.2019         0.340129   
    215. A(H  69,C  34,H  71)          109.0644         0.290069   
    216. A(O  18,C  34,H  71)          105.5420         0.341506   
    217. A(H  69,C  34,H  70)          109.0505         0.289093   
    218. A(O  18,C  34,H  70)          111.8649         0.340281   
    219. A(O  18,C  34,H  69)          111.9369         0.340171   
    220. A(H  70,C  34,H  71)          109.2788         0.290156   
    221. A(H  73,C  35,H  74)          110.2241         0.289838   
    222. A(H  72,C  35,H  74)          109.1090         0.290316   
    223. A(O  22,C  35,H  74)          111.3010         0.339963   
    224. A(H  72,C  35,H  73)          109.2386         0.290599   
    225. A(O  22,C  35,H  73)          111.1345         0.340315   
    226. A(O  22,C  35,H  72)          105.7026         0.340914   
    227. A(C  24,O  36,H  75)          108.6823         0.358936   
    228. A(C  16,O  37,H  76)          109.1628         0.357200   
    229. A(C  17,O  38,H  77)          106.4111         0.358737   
    230. A(C  29,O  39,C  41)          117.9604         0.412698   
    231. A(C  30,O  40,H  78)          107.5386         0.369118   
    232. A(H  80,C  41,H  81)          109.4196         0.290257   
    233. A(H  79,C  41,H  81)          109.5968         0.290446   
    234. A(O  39,C  41,H  81)          105.7188         0.341673   
    235. A(H  79,C  41,H  80)          109.7732         0.289542   
    236. A(O  39,C  41,H  80)          111.4145         0.340540   
    237. A(O  39,C  41,H  79)          110.8285         0.340776   
    238. D(O  20,C   1,C   0,O  19)     -4.1673         0.024697   
    239. D(C   2,C   1,C   0,O  19)   -178.4305         0.024697   
    240. D(C   2,C   1,C   0,C   5)      0.6829         0.024697   
    241. D(O  20,C   1,C   0,C   5)    174.9460         0.024697   
    242. D(O  18,C   2,C   1,C   0)    179.6750         0.024088   
    243. D(C   3,C   2,C   1,C   0)      0.5956         0.024088   
    244. D(C   3,C   2,C   1,O  20)   -174.2999         0.024088   
    245. D(O  18,C   2,C   1,O  20)      4.7795         0.024088   
    246. D(C   4,C   3,C   2,C   1)     -0.4880         0.028015   
    247. D(H  42,C   3,C   2,O  18)     -0.0406         0.028015   
    248. D(C   4,C   3,C   2,O  18)   -179.4787         0.028015   
    249. D(H  42,C   3,C   2,C   1)    178.9501         0.028015   
    250. D(C   6,C   4,C   3,H  42)     -6.3195         0.027756   
    251. D(C   5,C   4,C   3,H  42)    179.6443         0.027756   
    252. D(C   5,C   4,C   3,C   2)     -0.9072         0.027756   
    253. D(C   6,C   4,C   3,C   2)    173.1290         0.027756   
    254. D(H  43,C   5,C   4,C   6)      6.2605         0.028414   
    255. D(H  43,C   5,C   4,C   3)   -179.6452         0.028414   
    256. D(C   0,C   5,C   4,C   3)      2.2345         0.028414   
    257. D(C   4,C   5,C   0,O  19)    176.9465         0.027436   
    258. D(H  43,C   5,C   0,C   1)    179.7877         0.027436   
    259. D(H  43,C   5,C   0,O  19)     -1.1502         0.027436   
    260. D(C   0,C   5,C   4,C   6)   -171.8597         0.028414   
    261. D(C   4,C   5,C   0,C   1)     -2.1156         0.027436   
    262. D(H  45,C   6,C   4,C   3)     20.0814         0.012897   
    263. D(H  44,C   6,C   4,C   5)    -45.9855         0.012897   
    264. D(H  44,C   6,C   4,C   3)    139.9861         0.012897   
    265. D(C   7,C   6,C   4,C   5)     73.0304         0.012897   
    266. D(C   7,C   6,C   4,C   3)   -100.9980         0.012897   
    267. D(C   8,C   7,C   6,H  44)   -175.8503         0.010162   
    268. D(C   8,C   7,C   6,C   4)     64.1438         0.010162   
    269. D(C  16,C   7,C   6,H  45)     72.5365         0.010162   
    270. D(C  16,C   7,C   6,H  44)    -46.0258         0.010162   
    271. D(C   8,C   7,C   6,H  45)    -57.2880         0.010162   
    272. D(C  16,C   7,C   6,C   4)   -166.0316         0.010162   
    273. D(C  17,C   8,C   7,H  46)   -151.8578         0.010008   
    274. D(C  17,C   8,C   7,C  16)    -35.1742         0.010008   
    275. D(C  17,C   8,C   7,C   6)     92.2400         0.010008   
    276. D(C   9,C   8,C   7,C  16)     90.3934         0.010008   
    277. D(C   9,C   8,C   7,H  46)    -26.2902         0.010008   
    278. D(C   9,C   8,C   7,C   6)   -142.1924         0.010008   
    279. D(H  48,C   9,C   8,C  17)     76.8735         0.010417   
    280. D(H  48,C   9,C   8,C   7)    -51.6363         0.010417   
    281. D(C  10,C   9,C   8,H  47)    -45.3844         0.010417   
    282. D(C  10,C   9,C   8,C  17)   -160.9272         0.010417   
    283. D(H  48,C   9,C   8,H  47)   -167.5837         0.010417   
    284. D(C  10,C   9,C   8,C   7)     70.5631         0.010417   
    285. D(C  15,C  10,C   9,H  48)     14.6703         0.012447   
    286. D(C  15,C  10,C   9,C   8)   -107.4102         0.012447   
    287. D(C  11,C  10,C   9,H  49)    -47.3854         0.012447   
    288. D(C  11,C  10,C   9,H  48)   -165.3270         0.012447   
    289. D(C  11,C  10,C   9,C   8)     72.5926         0.012447   
    290. D(H  50,C  11,C  10,C  15)   -179.3671         0.026291   
    291. D(H  50,C  11,C  10,C   9)      0.6302         0.026291   
    292. D(C  12,C  11,C  10,C  15)     -0.1759         0.026291   
    293. D(C  12,C  11,C  10,C   9)    179.8214         0.026291   
    294. D(O  22,C  12,C  11,H  50)      2.4013         0.028842   
    295. D(C  13,C  12,C  11,H  50)   -179.3569         0.028842   
    296. D(O  22,C  12,C  11,C  10)   -176.7772         0.028842   
    297. D(C  13,C  12,C  11,C  10)      1.4645         0.028842   
    298. D(O  21,C  13,C  12,C  11)    179.0581         0.023684   
    299. D(C  14,C  13,C  12,O  22)    176.5010         0.023684   
    300. D(C  14,C  13,C  12,C  11)     -1.9129         0.023684   
    301. D(O  21,C  13,C  12,O  22)     -2.5279         0.023684   
    302. D(H  51,C  14,C  13,O  21)      1.1396         0.028111   
    303. D(H  51,C  14,C  13,C  12)   -177.9175         0.028111   
    304. D(C  15,C  14,C  13,O  21)   -179.8285         0.028111   
    305. D(C  15,C  14,C  13,C  12)      1.1144         0.028111   
    306. D(H  52,C  15,C  14,H  51)     -0.0553         0.027952   
    307. D(H  52,C  15,C  14,C  13)   -179.0589         0.027952   
    308. D(C  10,C  15,C  14,H  51)    179.1715         0.027952   
    309. D(C  10,C  15,C  14,C  13)      0.1679         0.027952   
    310. D(H  52,C  15,C  10,C  11)    178.5716         0.028430   
    311. D(H  52,C  15,C  10,C   9)     -1.4256         0.028430   
    312. D(C  14,C  15,C  10,C  11)     -0.6492         0.028430   
    313. D(C  14,C  15,C  10,C   9)    179.3535         0.028430   
    314. D(H  53,C  16,C   7,H  46)    -45.3278         0.010913   
    315. D(H  53,C  16,C   7,C   8)   -162.2223         0.010913   
    316. D(H  53,C  16,C   7,C   6)     69.7593         0.010913   
    317. D(O  37,C  16,C   7,H  46)   -165.3432         0.010913   
    318. D(O  37,C  16,C   7,C   8)     77.7622         0.010913   
    319. D(O  37,C  16,C   7,C   6)    -50.2562         0.010913   
    320. D(H  55,C  17,C   8,H  47)   -177.2494         0.010507   
    321. D(H  55,C  17,C   8,C   9)    -61.3451         0.010507   
    322. D(H  55,C  17,C   8,C   7)     64.4069         0.010507   
    323. D(O  38,C  17,C   8,H  47)     57.6839         0.010507   
    324. D(O  38,C  17,C   8,C   9)    173.5881         0.010507   
    325. D(O  38,C  17,C   8,C   7)    -60.6599         0.010507   
    326. D(C  34,O  18,C   2,C   3)      2.5616         0.026229   
    327. D(C  34,O  18,C   2,C   1)   -176.4803         0.026229   
    328. D(C  33,O  19,C   0,C   5)      1.7598         0.027532   
    329. D(C  33,O  19,C   0,C   1)   -179.1640         0.027532   
    330. D(C  23,O  20,C   1,C   2)   -144.9571         0.029210   
    331. D(C  23,O  20,C   1,C   0)     40.5637         0.029210   
    332. D(H  57,O  21,C  13,C  14)    174.7569         0.030067   
    333. D(H  57,O  21,C  13,C  12)     -6.2180         0.030067   
    334. D(C  35,O  22,C  12,C  13)   -178.8378         0.030251   
    335. D(C  35,O  22,C  12,C  11)     -0.5229         0.030251   
    336. D(H  58,C  23,O  20,C   1)    -48.8821         0.021793   
    337. D(C  26,C  23,O  20,C   1)   -165.9229         0.021793   
    338. D(C  24,C  23,O  20,C   1)     73.2293         0.021793   
    339. D(O  36,C  24,C  23,H  58)    -73.1789         0.010000   
    340. D(O  36,C  24,C  23,C  26)     47.8226         0.010000   
    341. D(O  36,C  24,C  23,O  20)    163.9556         0.010000   
    342. D(C  25,C  24,C  23,H  58)     52.3042         0.010000   
    343. D(C  25,C  24,C  23,C  26)    173.3057         0.010000   
    344. D(C  25,C  24,C  23,O  20)    -70.5613         0.010000   
    345. D(C  32,C  25,C  24,O  36)     49.8117         0.011872   
    346. D(C  32,C  25,C  24,C  23)    -74.4656         0.011872   
    347. D(C  28,C  25,C  24,H  59)    -15.9601         0.011872   
    348. D(C  28,C  25,C  24,O  36)   -133.5782         0.011872   
    349. D(C  28,C  25,C  24,C  23)    102.1444         0.011872   
    350. D(H  60,C  26,C  23,H  58)     63.5275         0.010833   
    351. D(H  60,C  26,C  23,C  24)    -57.9325         0.010833   
    352. D(H  60,C  26,C  23,O  20)   -177.9914         0.010833   
    353. D(O  27,C  26,C  23,H  58)    -54.9647         0.010833   
    354. D(O  27,C  26,C  23,C  24)   -176.4248         0.010833   
    355. D(O  27,C  26,C  23,O  20)     63.5163         0.010833   
    356. D(H  62,O  27,C  26,H  61)     67.1217         0.024600   
    357. D(H  62,O  27,C  26,H  60)   -173.9131         0.024600   
    358. D(H  62,O  27,C  26,C  23)    -53.5492         0.024600   
    359. D(H  63,C  28,C  25,C  32)   -179.2524         0.026602   
    360. D(H  63,C  28,C  25,C  24)      4.0940         0.026602   
    361. D(C  29,C  28,C  25,C  32)      1.9896         0.026602   
    362. D(C  29,C  28,C  25,C  24)   -174.6640         0.026602   
    363. D(C  30,C  29,C  28,H  63)   -179.9071         0.028867   
    364. D(C  30,C  29,C  28,C  25)     -1.1738         0.028867   
    365. D(O  39,C  29,C  28,H  63)      0.1158         0.028867   
    366. D(O  39,C  29,C  28,C  25)    178.8492         0.028867   
    367. D(O  40,C  30,C  29,O  39)     -0.8927         0.024074   
    368. D(O  40,C  30,C  29,C  28)    179.1277         0.024074   
    369. D(C  31,C  30,C  29,O  39)    179.2281         0.024074   
    370. D(C  31,C  30,C  29,C  28)     -0.7514         0.024074   
    371. D(H  64,C  31,C  30,O  40)      1.3696         0.028654   
    372. D(H  64,C  31,C  30,C  29)   -178.7512         0.028654   
    373. D(C  32,C  31,C  30,O  40)   -178.0296         0.028654   
    374. D(C  32,C  31,C  30,C  29)      1.8495         0.028654   
    375. D(H  65,C  32,C  31,H  64)     -1.2999         0.028170   
    376. D(H  65,C  32,C  31,C  30)    178.0841         0.028170   
    377. D(C  25,C  32,C  31,H  64)    179.5812         0.028170   
    378. D(C  25,C  32,C  31,C  30)     -1.0348         0.028170   
    379. D(H  65,C  32,C  25,C  28)   -179.9883         0.027939   
    380. D(H  65,C  32,C  25,C  24)     -3.3548         0.027939   
    381. D(C  31,C  32,C  25,C  28)     -0.8878         0.027939   
    382. D(C  31,C  32,C  25,C  24)    175.7456         0.027939   
    383. D(H  68,C  33,O  19,C   0)    -60.9006         0.021822   
    384. D(H  67,C  33,O  19,C   0)   -178.9856         0.021822   
    385. D(H  66,C  33,O  19,C   0)     62.2714         0.021822   
    386. D(H  71,C  34,O  18,C   2)    177.2770         0.022072   
    387. D(H  70,C  34,O  18,C   2)     58.5353         0.022072   
    388. D(H  69,C  34,O  18,C   2)    -64.2008         0.022072   
    389. D(H  74,C  35,O  22,C  12)     55.5013         0.025215   
    390. D(H  73,C  35,O  22,C  12)    -67.7641         0.025215   
    391. D(H  72,C  35,O  22,C  12)    173.8351         0.025215   
    392. D(H  75,O  36,C  24,H  59)   -174.3847         0.021965   
    393. D(H  75,O  36,C  24,C  25)    -53.9139         0.021965   
    394. D(H  75,O  36,C  24,C  23)     69.0229         0.021965   
    395. D(H  76,O  37,C  16,H  54)    -57.0172         0.022072   
    396. D(H  76,O  37,C  16,H  53)     61.5028         0.022072   
    397. D(H  76,O  37,C  16,C   7)   -178.9360         0.022072   
    398. D(H  77,O  38,C  17,H  56)   -170.9006         0.022758   
    399. D(H  77,O  38,C  17,H  55)    -54.5922         0.022758   
    400. D(H  77,O  38,C  17,C   8)     70.2823         0.022758   
    401. D(C  41,O  39,C  29,C  30)    177.3531         0.027950   
    402. D(C  41,O  39,C  29,C  28)     -2.6688         0.027950   
    403. D(H  78,O  40,C  30,C  31)   -179.5272         0.028830   
    404. D(H  78,O  40,C  30,C  29)      0.5946         0.028830   
    405. D(H  81,C  41,O  39,C  29)   -177.5615         0.024095   
    406. D(H  80,C  41,O  39,C  29)     63.6621         0.024095   
    407. D(H  79,C  41,O  39,C  29)    -58.8850         0.024095   
    -----------------------------------------------------------------

Number of atoms                         .... 82
Number of degrees of freedom            .... 407


         *************************************************************
         *                GEOMETRY OPTIMIZATION CYCLE   1            *
         *************************************************************
---------------------------------
CARTESIAN COORDINATES (ANGSTROEM)
---------------------------------
  C     14.742028  -18.366664    0.598263
  C     15.291634  -19.311106   -0.279569
  C     14.519731  -20.423341   -0.654792
  C     13.229186  -20.582012   -0.176447
  C     12.690026  -19.643095    0.689881
  C     13.456676  -18.561153    1.085037
  C     11.247897  -19.717400    1.094684
  C     10.441931  -18.689822    0.272052
  C     10.456451  -19.023418   -1.237135
  C     10.544937  -17.732572   -2.071916
  C     11.899531  -17.088537   -1.951714
  C     12.995795  -17.673712   -2.582493
  C     14.255084  -17.111164   -2.499039
  C     14.448570  -15.942344   -1.739906
  C     13.354033  -15.359117   -1.123362
  C     12.093339  -15.924569   -1.229273
  C      9.050318  -18.482815    0.880926
  C      9.286973  -19.892462   -1.731320
  O     15.134273  -21.290805   -1.521050
  O     15.504491  -17.280413    0.918181
  O     16.500336  -19.211528   -0.917077
  O     15.665480  -15.362815   -1.611131
  O     15.378541  -17.583114   -3.138781
  C     17.653641  -18.704891   -0.264837
  C     18.208027  -19.732931    0.758669
  C     17.252769  -19.820912    1.926628
  C     18.644711  -18.433163   -1.403871
  O     18.149268  -17.442752   -2.264902
  C     16.373876  -20.895722    2.027754
  C     15.422602  -20.931512    3.029114
  C     15.356696  -19.888060    3.967608
  C     16.257301  -18.842117    3.887271
  C     17.192233  -18.804306    2.866476
  C     14.981713  -16.326715    1.811864
  C     14.398164  -22.388397   -2.001413
  C     15.265521  -18.736044   -3.940499
  O     19.524283  -19.414071    1.139330
  O      8.403197  -19.721881    1.112102
  O      9.226548  -21.150939   -1.115923
  O     14.488851  -21.924222    3.217083
  O     14.413182  -19.904982    4.945982
  C     14.450201  -22.977202    2.287013
  H     12.627123  -21.425794   -0.475306
  H     13.025510  -17.843845    1.762760
  H     11.141387  -19.475160    2.153961
  H     10.854523  -20.718748    0.928699
  H     10.958775  -17.729866    0.376930
  H     11.370191  -19.592980   -1.425700
  H      9.769382  -17.032982   -1.754208
  H     10.360855  -17.980769   -3.120011
  H     12.841713  -18.575473   -3.154050
  H     13.508645  -14.444454   -0.572377
  H     11.254804  -15.439346   -0.750438
  H      9.164965  -17.951490    1.836535
  H      8.445270  -17.853250    0.213896
  H      8.334973  -19.355858   -1.615560
  H      9.428070  -20.090606   -2.798586
  H     16.346553  -15.917116   -2.020526
  H     17.432454  -17.760967    0.244424
  H     18.280649  -20.702984    0.255544
  H     19.591440  -18.068833   -1.003480
  H     18.822280  -19.371295   -1.946605
  H     17.263967  -17.729768   -2.540114
  H     16.436771  -21.687701    1.298943
  H     16.207208  -18.058841    4.626991
  H     17.863212  -17.959350    2.809816
  H     14.792557  -16.767776    2.795204
  H     15.750477  -15.560292    1.894756
  H     14.066621  -15.876127    1.418533
  H     14.121711  -23.079192   -1.197383
  H     13.491907  -22.072378   -2.528457
  H     15.059569  -22.900633   -2.698785
  H     16.233724  -18.853934   -4.425506
  H     15.057485  -19.619375   -3.332853
  H     14.494022  -18.613532   -4.706168
  H     19.506357  -18.607257    1.666796
  H      7.528775  -19.558023    1.477617
  H      8.957040  -20.994256   -0.197800
  H     13.893423  -20.713005    4.835659
  H     14.263222  -22.598490    1.278574
  H     15.379438  -23.555281    2.299034
  H     13.623286  -23.614468    2.597018

----------------------------
CARTESIAN COORDINATES (A.U.)
----------------------------
  NO LB      ZA    FRAG     MASS         X           Y           Z
   0 C     6.0000    0    12.011   27.858395  -34.707965    1.130554
   1 C     6.0000    0    12.011   28.897001  -36.492701   -0.528308
   2 C     6.0000    0    12.011   27.438315  -38.594522   -1.237377
   3 C     6.0000    0    12.011   24.999539  -38.894366   -0.333437
   4 C     6.0000    0    12.011   23.980673  -37.120071    1.303685
   5 C     6.0000    0    12.011   25.429433  -35.075495    2.050422
   6 C     6.0000    0    12.011   21.255445  -37.260486    2.068652
   7 C     6.0000    0    12.011   19.732391  -35.318645    0.514103
   8 C     6.0000    0    12.011   19.759829  -35.949050   -2.337846
   9 C     6.0000    0    12.011   19.927043  -33.509705   -3.915353
  10 C     6.0000    0    12.011   22.486856  -32.292656   -3.688205
  11 C     6.0000    0    12.011   24.558493  -33.398475   -4.880205
  12 C     6.0000    0    12.011   26.938206  -32.335414   -4.722499
  13 C     6.0000    0    12.011   27.303841  -30.126664   -3.287947
  14 C     6.0000    0    12.011   25.235465  -29.024525   -2.122847
  15 C     6.0000    0    12.011   22.853099  -30.093074   -2.322989
  16 C     6.0000    0    12.011   17.102622  -34.927458    1.664708
  17 C     6.0000    0    12.011   17.549835  -37.591305   -3.271721
  18 O     8.0000    0    15.999   28.599631  -40.233791   -2.874369
  19 O     8.0000    0    15.999   29.299242  -32.655247    1.735111
  20 O     8.0000    0    15.999   31.181117  -36.304527   -1.733024
  21 O     8.0000    0    15.999   29.603466  -29.031512   -3.044596
  22 O     8.0000    0    15.999   29.061231  -33.227271   -5.931436
  23 C     6.0000    0    12.011   33.360546  -35.347121   -0.500469
  24 C     6.0000    0    12.011   34.408185  -37.289835    1.433676
  25 C     6.0000    0    12.011   32.603009  -37.456095    3.640799
  26 C     6.0000    0    12.011   35.233398  -34.833629   -2.652931
  27 O     8.0000    0    15.999   34.297145  -32.962025   -4.280044
  28 C     6.0000    0    12.011   30.942142  -39.487192    3.831900
  29 C     6.0000    0    12.011   29.144494  -39.554826    5.724196
  30 C     6.0000    0    12.011   29.019950  -37.582987    7.497693
  31 C     6.0000    0    12.011   30.721846  -35.606442    7.345877
  32 C     6.0000    0    12.011   32.488613  -35.534989    5.416855
  33 C     6.0000    0    12.011   28.311335  -30.853021    3.423927
  34 C     6.0000    0    12.011   27.208587  -42.307939   -3.782123
  35 C     6.0000    0    12.011   28.847655  -35.405991   -7.446463
  36 O     8.0000    0    15.999   36.895547  -36.687277    2.153021
  37 O     8.0000    0    15.999   15.879742  -37.268954    2.101569
  38 O     8.0000    0    15.999   17.435649  -39.969482   -2.108789
  39 O     8.0000    0    15.999   27.379961  -41.430775    6.079406
  40 O     8.0000    0    15.999   27.236967  -37.614964    9.346551
  41 C     6.0000    0    12.011   27.306922  -43.420618    4.321828
  42 H     1.0000    0     1.008   23.861805  -40.488882   -0.898199
  43 H     1.0000    0     1.008   24.614647  -33.719981    3.331134
  44 H     1.0000    0     1.008   21.054169  -36.802719    4.070397
  45 H     1.0000    0     1.008   20.512076  -39.152760    1.754987
  46 H     1.0000    0     1.008   20.709084  -33.504591    0.712295
  47 H     1.0000    0     1.008   21.486547  -37.025366   -2.694182
  48 H     1.0000    0     1.008   18.461456  -32.187672   -3.314973
  49 H     1.0000    0     1.008   19.579178  -33.978730   -5.895967
  50 H     1.0000    0     1.008   24.267320  -35.102557   -5.960291
  51 H     1.0000    0     1.008   25.527639  -27.296062   -1.081635
  52 H     1.0000    0     1.008   21.268498  -29.176135   -1.418122
  53 H     1.0000    0     1.008   17.319274  -33.923400    3.470548
  54 H     1.0000    0     1.008   15.959247  -33.737754    0.404206
  55 H     1.0000    0     1.008   15.750816  -36.577271   -3.052965
  56 H     1.0000    0     1.008   17.816471  -37.965743   -5.288562
  57 H     1.0000    0     1.008   30.890509  -30.078990   -3.818241
  58 H     1.0000    0     1.008   32.942564  -33.563364    0.461894
  59 H     1.0000    0     1.008   34.545420  -39.122970    0.482909
  60 H     1.0000    0     1.008   37.022456  -34.145147   -1.896303
  61 H     1.0000    0     1.008   35.568954  -36.606443   -3.678550
  62 H     1.0000    0     1.008   32.624169  -33.504406   -4.800120
  63 H     1.0000    0     1.008   31.060995  -40.983816    2.454646
  64 H     1.0000    0     1.008   30.627184  -34.126263    8.743746
  65 H     1.0000    0     1.008   33.756578  -33.938253    5.309783
  66 H     1.0000    0     1.008   27.953881  -31.686505    5.282171
  67 H     1.0000    0     1.008   29.764087  -29.404691    3.580571
  68 H     1.0000    0     1.008   26.582062  -30.001532    2.680638
  69 H     1.0000    0     1.008   26.686166  -43.613353   -2.262727
  70 H     1.0000    0     1.008   25.496009  -41.710750   -4.778090
  71 H     1.0000    0     1.008   28.458462  -43.275924   -5.099964
  72 H     1.0000    0     1.008   30.677293  -35.628772   -8.362995
  73 H     1.0000    0     1.008   28.454522  -37.075246   -6.298179
  74 H     1.0000    0     1.008   27.389731  -35.174479   -8.893368
  75 H     1.0000    0     1.008   36.861673  -35.162619    3.149787
  76 H     1.0000    0     1.008   14.227322  -36.959307    2.792292
  77 H     1.0000    0     1.008   16.926354  -39.673395   -0.373788
  78 H     1.0000    0     1.008   26.254765  -39.141907    9.138072
  79 H     1.0000    0     1.008   26.953584  -42.704958    2.416154
  80 H     1.0000    0     1.008   29.062927  -44.513031    4.344545
  81 H     1.0000    0     1.008   25.744280  -44.624876    4.907653

--------------------------------
INTERNAL COORDINATES (ANGSTROEM)
--------------------------------
 C      0   0   0     0.000000000000     0.00000000     0.00000000
 C      1   0   0     1.401651302840     0.00000000     0.00000000
 C      2   1   0     1.404882210687   119.03049401     0.00000000
 C      3   2   1     1.385459063084   120.68099918     0.59559275
 C      4   3   2     1.386644606679   120.02292529   359.51201912
 C      5   4   3     1.383655280536   119.50201807   359.09275989
 C      5   4   3     1.499707000548   120.59623439   173.12901864
 C      7   5   4     1.543444200641   108.98301664   259.00199977
 C      8   7   5     1.545684559417   111.82697124    64.14384979
 C      9   8   7     1.539796083555   110.42282731   217.80759488
 C     10   9   8     1.504711016479   111.54536020    70.56307847
 C     11  10   9     1.393594310094   119.49084107    72.59257270
 C     12  11  10     1.381750495887   121.24073809   179.82139164
 C     13  12  11     1.407074651012   119.74210773     1.46453391
 C     14  13  12     1.385024653595   118.76952111   358.08710408
 C     11  10   9     1.383584498735   121.86282463   252.58981265
 C      8   7   5     1.533025954485   110.62388774   193.96840075
 C      9   8   7     1.538550078181   115.36509586    92.24002227
 O      3   2   1     1.371334807341   115.04255292   179.67498337
 O      1   2   3     1.365152099685   117.63984479   181.56953213
 O      2   1   3     1.370143512583   126.03946074   174.26313103
 O     14  13  12     1.353996280574   122.03510753   179.05814781
 O     13  12  11     1.376285212850   125.18827368   183.22279300
 C     21   2   1     1.418523496667   121.95490793    40.56371182
 C     24  21   2     1.552988692912   110.90632993    73.22932989
 C     25  24  21     1.511418753948   108.79616536   289.43867120
 C     24  21   2     1.534097459130   104.30659269   194.07714727
 O     27  24  21     1.402765537768   110.64809474    63.51634605
 C     26  25  24     1.392083393916   120.00733158   102.14442265
 C     29  26  25     1.381638900212   120.48697229   185.33596501
 C     30  29  26     1.404958147094   119.81431946   358.82621538
 C     31  30  29     1.382584030428   119.50407746   359.24856735
 C     32  31  30     1.384756439664   120.21760203     1.84954329
 C     20   1   2     1.407659172271   118.71463374   180.83595196
 C     19   3   2     1.406169507505   118.35643278   183.51965233
 C     23  13  12     1.408819185498   118.66368443   359.47711147
 O     25  24  21     1.406806051614   111.24112119   163.95564008
 O     17   8   7     1.416860325955   111.18088221   309.74376341
 O     18   9   8     1.402187043203   113.49945972   299.34010784
 O     30  29  26     1.375752375894   125.80458965   178.84917274
 O     31  30  29     1.359308291031   120.27189648   179.12769393
 C     40  30  29     1.405450558962   117.96044684   357.33123455
 H      4   3   2     1.078778445239   120.91674028   178.95008096
 H      6   5   4     1.076913649731   118.60220151   180.35475341
 H      7   5   4     1.091830430472   110.16274698   139.98605349
 H      7   5   4     1.088573622354   110.60425013    20.08143531
 H      8   7   5     1.095282232544   106.62252416   308.52726623
 H      9   8   7     1.093104786611   106.78241867   333.99849945
 H     10   9   8     1.091718869806   109.79252772   308.36374354
 H     10   9   8     1.092699623014   108.65739986   190.74035336
 H     12  11  10     1.078699340361   118.58681393     0.63019073
 H     15  14  13     1.078933997176   118.10339493   182.08250126
 H     16  11  10     1.080678153277   120.02632619   358.57438230
 H     17   8   7     1.099381136603   108.41077701    69.75925919
 H     17   8   7     1.098800467141   109.64030362   187.38293346
 H     18   9   8     1.098930230665   110.41634646    64.40690529
 H     18   9   8     1.094635512236   108.50801251   182.13483490
 H     22  14  13     0.968873467397   110.28709610   353.78196520
 H     24  21   2     1.095108022928   110.94428577   311.11788099
 H     25  24  21     1.095176475998   107.89337089    48.99242227
 H     27  24  21     1.090570475456   110.32839813   182.00858230
 H     27  24  21     1.098263995039   108.66680404   301.52076689
 H     28  27  24     0.970503515511   106.70484490   306.45084752
 H     29  26  25     1.078125126958   118.76571332     4.09395199
 H     32  31  30     1.078525846760   118.64020577   181.24880469
 H     33  32  31     1.080450856538   118.63954123   178.08414737
 H     34  20   1     1.094199712597   111.20186544    62.27139351
 H     34  20   1     1.088702527590   105.25082577   181.01440862
 H     34  20   1     1.093221285685   111.20412148   299.09940028
 H     35  19   3     1.095485859952   111.93688548   295.79919932
 H     35  19   3     1.094963360372   111.86494436    58.53532149
 H     35  19   3     1.089113974468   105.54197613   177.27703927
 H     36  23  13     1.089287559947   105.70258445   173.83506801
 H     36  23  13     1.092148223705   111.13453041   292.23587528
 H     36  23  13     1.093832604181   111.30095467    55.50129027
 H     37  25  24     0.964101046665   108.68231046    69.02291426
 H     38  17   8     0.961803402732   109.16279688   181.06397077
 H     39  18   9     0.969604811184   106.41106455    70.28230035
 H     41  31  30     0.967068524676   107.53863266     0.59457812
 H     42  40  30     1.093312764755   110.82848832   301.11496388
 H     42  40  30     1.094441855869   111.41450818    63.66214098
 H     42  40  30     1.089035710560   105.71884859   182.43854345

---------------------------
INTERNAL COORDINATES (A.U.)
---------------------------
 C      0   0   0     0.000000000000     0.00000000     0.00000000
 C      1   0   0     2.648737097621     0.00000000     0.00000000
 C      2   1   0     2.654842628616   119.03049401     0.00000000
 C      3   2   1     2.618138198988   120.68099918     0.59559275
 C      4   3   2     2.620378551703   120.02292529   359.51201912
 C      5   4   3     2.614729543967   119.50201807   359.09275989
 C      5   4   3     2.834035512161   120.59623439   173.12901864
 C      7   5   4     2.916686842200   108.98301664   259.00199977
 C      8   7   5     2.920920506729   111.82697124    64.14384979
 C      9   8   7     2.909792900004   110.42282731   217.80759488
 C     10   9   8     2.843491731839   111.54536020    70.56307847
 C     11  10   9     2.633511587868   119.49084107    72.59257270
 C     12  11  10     2.611130022635   121.24073809   179.82139164
 C     13  12  11     2.658985740395   119.74210773     1.46453391
 C     14  13  12     2.617317284023   118.76952111   358.08710408
 C     11  10   9     2.614595785749   121.86282463   252.58981265
 C      8   7   5     2.896999210170   110.62388774   193.96840075
 C      9   8   7     2.907438291086   115.36509586    92.24002227
 O      3   2   1     2.591447223788   115.04255292   179.67498337
 O      1   2   3     2.579763599552   117.63984479   181.56953213
 O      2   1   3     2.589196002950   126.03946074   174.26313103
 O     14  13  12     2.558682156632   122.03510753   179.05814781
 O     13  12  11     2.600802134452   125.18827368   183.22279300
 C     21   2   1     2.680620923232   121.95490793    40.56371182
 C     24  21   2     2.934723318681   110.90632993    73.22932989
 C     25  24  21     2.856167518634   108.79616536   289.43867120
 C     24  21   2     2.899024060500   104.30659269   194.07714727
 O     27  24  21     2.650842696485   110.64809474    63.51634605
 C     26  25  24     2.630656370081   120.00733158   102.14442265
 C     29  26  25     2.610919137373   120.48697229   185.33596501
 C     30  29  26     2.654986127630   119.81431946   358.82621538
 C     31  30  29     2.612705174641   119.50407746   359.24856735
 C     32  31  30     2.616810433149   120.21760203     1.84954329
 C     20   1   2     2.660090325495   118.71463374   180.83595196
 C     19   3   2     2.657275267056   118.35643278   183.51965233
 C     23  13  12     2.662282432805   118.66368443   359.47711147
 O     25  24  21     2.658478161093   111.24112119   163.95564008
 O     17   8   7     2.677477986074   111.18088221   309.74376341
 O     18   9   8     2.649749500187   113.49945972   299.34010784
 O     30  29  26     2.599795218532   125.80458965   178.84917274
 O     31  30  29     2.568720401618   120.27189648   179.12769393
 C     40  30  29     2.655916651204   117.96044684   357.33123455
 H      4   3   2     2.038595820678   120.91674028   178.95008096
 H      6   5   4     2.035071867873   118.60220151   180.35475341
 H      7   5   4     2.063260498273   110.16274698   139.98605349
 H      7   5   4     2.057106022860   110.60425013    20.08143531
 H      8   7   5     2.069783458857   106.62252416   308.52726623
 H      9   8   7     2.065668682372   106.78241867   333.99849945
 H     10   9   8     2.063049679168   109.79252772   308.36374354
 H     10   9   8     2.064903034136   108.65739986   190.74035336
 H     12  11  10     2.038446334124   118.58681393     0.63019073
 H     15  14  13     2.038889771240   118.10339493   182.08250126
 H     16  11  10     2.042185748606   120.02632619   358.57438230
 H     17   8   7     2.077529264979   108.41077701    69.75925919
 H     17   8   7     2.076431958722   109.64030362   187.38293346
 H     18   9   8     2.076677176244   110.41634646    64.40690529
 H     18   9   8     2.068561334592   108.50801251   182.13483490
 H     22  14  13     1.830905511803   110.28709610   353.78196520
 H     24  21   2     2.069454250394   110.94428577   311.11788099
 H     25  24  21     2.069583607950   107.89337089    48.99242227
 H     27  24  21     2.060879528352   110.32839813   182.00858230
 H     27  24  21     2.075418173369   108.66680404   301.52076689
 H     28  27  24     1.833985856323   106.70484490   306.45084752
 H     29  26  25     2.037361228050   118.76571332     4.09395199
 H     32  31  30     2.038118478732   118.64020577   181.24880469
 H     33  32  31     2.041756220017   118.63954123   178.08414737
 H     34  20   1     2.067737792623   111.20186544    62.27139351
 H     34  20   1     2.057349618452   105.25082577   181.01440862
 H     34  20   1     2.065888833718   111.20412148   299.09940028
 H     35  19   3     2.070168258892   111.93688548   295.79919932
 H     35  19   3     2.069180877781   111.86494436    58.53532149
 H     35  19   3     2.058127140371   105.54197613   177.27703927
 H     36  23  13     2.058455169387   105.70258445   173.83506801
 H     36  23  13     2.063861040450   111.13453041   292.23587528
 H     36  23  13     2.067044058256   111.30095467    55.50129027
 H     37  25  24     1.821886943624   108.68231046    69.02291426
 H     38  17   8     1.817545025836   109.16279688   181.06397077
 H     39  18   9     1.832287551271   106.41106455    70.28230035
 H     41  31  30     1.827494664374   107.53863266     0.59457812
 H     42  40  30     2.066061704108   110.82848832   301.11496388
 H     42  40  30     2.068195377092   111.41450818    63.66214098
 H     42  40  30     2.057979243019   105.71884859   182.43854345

---------------------
BASIS SET INFORMATION
---------------------
There are 3 groups of distinct atoms

 Group   1 Type C   : 11s6p2d1f contracted to 5s3p2d1f pattern {62111/411/11/1}
 Group   2 Type O   : 11s6p2d1f contracted to 5s3p2d1f pattern {62111/411/11/1}
 Group   3 Type H   : 5s1p contracted to 3s1p pattern {311/1}

Atom   0C    basis set group =>   1
Atom   1C    basis set group =>   1
Atom   2C    basis set group =>   1
Atom   3C    basis set group =>   1
Atom   4C    basis set group =>   1
Atom   5C    basis set group =>   1
Atom   6C    basis set group =>   1
Atom   7C    basis set group =>   1
Atom   8C    basis set group =>   1
Atom   9C    basis set group =>   1
Atom  10C    basis set group =>   1
Atom  11C    basis set group =>   1
Atom  12C    basis set group =>   1
Atom  13C    basis set group =>   1
Atom  14C    basis set group =>   1
Atom  15C    basis set group =>   1
Atom  16C    basis set group =>   1
Atom  17C    basis set group =>   1
Atom  18O    basis set group =>   2
Atom  19O    basis set group =>   2
Atom  20O    basis set group =>   2
Atom  21O    basis set group =>   2
Atom  22O    basis set group =>   2
Atom  23C    basis set group =>   1
Atom  24C    basis set group =>   1
Atom  25C    basis set group =>   1
Atom  26C    basis set group =>   1
Atom  27O    basis set group =>   2
Atom  28C    basis set group =>   1
Atom  29C    basis set group =>   1
Atom  30C    basis set group =>   1
Atom  31C    basis set group =>   1
Atom  32C    basis set group =>   1
Atom  33C    basis set group =>   1
Atom  34C    basis set group =>   1
Atom  35C    basis set group =>   1
Atom  36O    basis set group =>   2
Atom  37O    basis set group =>   2
Atom  38O    basis set group =>   2
Atom  39O    basis set group =>   2
Atom  40O    basis set group =>   2
Atom  41C    basis set group =>   1
Atom  42H    basis set group =>   3
Atom  43H    basis set group =>   3
Atom  44H    basis set group =>   3
Atom  45H    basis set group =>   3
Atom  46H    basis set group =>   3
Atom  47H    basis set group =>   3
Atom  48H    basis set group =>   3
Atom  49H    basis set group =>   3
Atom  50H    basis set group =>   3
Atom  51H    basis set group =>   3
Atom  52H    basis set group =>   3
Atom  53H    basis set group =>   3
Atom  54H    basis set group =>   3
Atom  55H    basis set group =>   3
Atom  56H    basis set group =>   3
Atom  57H    basis set group =>   3
Atom  58H    basis set group =>   3
Atom  59H    basis set group =>   3
Atom  60H    basis set group =>   3
Atom  61H    basis set group =>   3
Atom  62H    basis set group =>   3
Atom  63H    basis set group =>   3
Atom  64H    basis set group =>   3
Atom  65H    basis set group =>   3
Atom  66H    basis set group =>   3
Atom  67H    basis set group =>   3
Atom  68H    basis set group =>   3
Atom  69H    basis set group =>   3
Atom  70H    basis set group =>   3
Atom  71H    basis set group =>   3
Atom  72H    basis set group =>   3
Atom  73H    basis set group =>   3
Atom  74H    basis set group =>   3
Atom  75H    basis set group =>   3
Atom  76H    basis set group =>   3
Atom  77H    basis set group =>   3
Atom  78H    basis set group =>   3
Atom  79H    basis set group =>   3
Atom  80H    basis set group =>   3
Atom  81H    basis set group =>   3
---------------------------------
AUXILIARY/J BASIS SET INFORMATION
---------------------------------
There are 3 groups of distinct atoms

 Group   1 Type C   : 12s5p4d2f1g contracted to 6s4p3d1f1g pattern {711111/2111/211/2/1}
 Group   2 Type O   : 12s5p4d2f1g contracted to 6s4p3d1f1g pattern {711111/2111/211/2/1}
 Group   3 Type H   : 5s2p1d contracted to 3s1p1d pattern {311/2/1}

Atom   0C    basis set group =>   1
Atom   1C    basis set group =>   1
Atom   2C    basis set group =>   1
Atom   3C    basis set group =>   1
Atom   4C    basis set group =>   1
Atom   5C    basis set group =>   1
Atom   6C    basis set group =>   1
Atom   7C    basis set group =>   1
Atom   8C    basis set group =>   1
Atom   9C    basis set group =>   1
Atom  10C    basis set group =>   1
Atom  11C    basis set group =>   1
Atom  12C    basis set group =>   1
Atom  13C    basis set group =>   1
Atom  14C    basis set group =>   1
Atom  15C    basis set group =>   1
Atom  16C    basis set group =>   1
Atom  17C    basis set group =>   1
Atom  18O    basis set group =>   2
Atom  19O    basis set group =>   2
Atom  20O    basis set group =>   2
Atom  21O    basis set group =>   2
Atom  22O    basis set group =>   2
Atom  23C    basis set group =>   1
Atom  24C    basis set group =>   1
Atom  25C    basis set group =>   1
Atom  26C    basis set group =>   1
Atom  27O    basis set group =>   2
Atom  28C    basis set group =>   1
Atom  29C    basis set group =>   1
Atom  30C    basis set group =>   1
Atom  31C    basis set group =>   1
Atom  32C    basis set group =>   1
Atom  33C    basis set group =>   1
Atom  34C    basis set group =>   1
Atom  35C    basis set group =>   1
Atom  36O    basis set group =>   2
Atom  37O    basis set group =>   2
Atom  38O    basis set group =>   2
Atom  39O    basis set group =>   2
Atom  40O    basis set group =>   2
Atom  41C    basis set group =>   1
Atom  42H    basis set group =>   3
Atom  43H    basis set group =>   3
Atom  44H    basis set group =>   3
Atom  45H    basis set group =>   3
Atom  46H    basis set group =>   3
Atom  47H    basis set group =>   3
Atom  48H    basis set group =>   3
Atom  49H    basis set group =>   3
Atom  50H    basis set group =>   3
Atom  51H    basis set group =>   3
Atom  52H    basis set group =>   3
Atom  53H    basis set group =>   3
Atom  54H    basis set group =>   3
Atom  55H    basis set group =>   3
Atom  56H    basis set group =>   3
Atom  57H    basis set group =>   3
Atom  58H    basis set group =>   3
Atom  59H    basis set group =>   3
Atom  60H    basis set group =>   3
Atom  61H    basis set group =>   3
Atom  62H    basis set group =>   3
Atom  63H    basis set group =>   3
Atom  64H    basis set group =>   3
Atom  65H    basis set group =>   3
Atom  66H    basis set group =>   3
Atom  67H    basis set group =>   3
Atom  68H    basis set group =>   3
Atom  69H    basis set group =>   3
Atom  70H    basis set group =>   3
Atom  71H    basis set group =>   3
Atom  72H    basis set group =>   3
Atom  73H    basis set group =>   3
Atom  74H    basis set group =>   3
Atom  75H    basis set group =>   3
Atom  76H    basis set group =>   3
Atom  77H    basis set group =>   3
Atom  78H    basis set group =>   3
Atom  79H    basis set group =>   3
Atom  80H    basis set group =>   3
Atom  81H    basis set group =>   3
--------------------------------------------------------------------------
WARNING: There is at least one non-excluded one OpenFabrics device found,
but there are no active ports detected (or Open MPI was unable to use
them).  This is most certainly not what you wanted.  Check your
cables, subnet manager configuration, etc.  The openib BTL will be
ignored for this job.

  Local host: c03b01n01
--------------------------------------------------------------------------
--------------------------------------------------------------------------
WARNING: There was an error initializing an OpenFabrics device.

  Local host:   c03b01n01
  Local device: mlx5_0
--------------------------------------------------------------------------
[c03b01n01:3539300] 6 more processes have sent help message help-mpi-btl-openib.txt / no active ports found
[c03b01n01:3539300] Set MCA parameter "orte_base_help_aggregate" to 0 to see all help / error messages
[c03b01n01:3539300] 56 more processes have sent help message help-mpi-btl-openib.txt / error in device init


           ************************************************************
           *        Program running with 64 parallel MPI-processes    *
           *              working on a common directory               *
           ************************************************************
------------------------------------------------------------------------------
                             ORCA STARTUP CALCULATIONS
                           -- RI-GTO INTEGRALS CHOSEN --
------------------------------------------------------------------------------
------------------------------------------------------------------------------
                   ___                                                        
                  /   \      - P O W E R E D   B Y -                         
                 /     \                                                     
                 |  |  |   _    _      __       _____    __    __             
                 |  |  |  | |  | |    /  \     |  _  \  |  |  /  |          
                  \  \/   | |  | |   /    \    | | | |  |  | /  /          
                 / \  \   | |__| |  /  /\  \   | |_| |  |  |/  /          
                |  |  |   |  __  | /  /__\  \  |    /   |      \           
                |  |  |   | |  | | |   __   |  |    \   |  |\   \          
                \     /   | |  | | |  |  |  |  | |\  \  |  | \   \       
                 \___/    |_|  |_| |__|  |__|  |_| \__\ |__|  \__/        
                                                                              
                      - O R C A' S   B I G   F R I E N D -                    
                                      &                                       
                       - I N T E G R A L  F E E D E R -                       
                                                                              
 v1 FN, 2020, v2 2021, v3 2022-2024                                           
------------------------------------------------------------------------------


----------------------
SHARK INTEGRAL PACKAGE
----------------------

Number of atoms                             ...     82
Number of basis functions                   ...   1542
Number of shells                            ...    622
Maximum angular momentum                    ...      3
Integral batch strategy                     ... SHARK/LIBINT Hybrid
RI-J (if used) integral strategy            ... SPLIT-RIJ (Revised 2003 algorithm where possible)
Printlevel                                  ...      1
Contraction scheme used                     ... SEGMENTED contraction
Prescreening option                         ... SCHWARTZ
   Thresh                                   ... 2.500e-11
   Tcut                                     ... 2.500e-12
   Tpresel                                  ... 2.500e-12 
Coulomb Range Separation                    ... NOT USED
Exchange Range Separation                   ... NOT USED
Multipole approximations                    ... NOT USED
Finite Nucleus Model                        ... NOT USED
CABS basis                                  ... NOT available
Auxiliary Coulomb fitting basis             ... AVAILABLE
   # of basis functions in Aux-J            ...   2498
   # of shells in Aux-J                     ...    830
   Maximum angular momentum in Aux-J        ...      4
Auxiliary J/K fitting basis                 ... NOT available
Auxiliary Correlation fitting basis         ... NOT available
Auxiliary 'external' fitting basis          ... NOT available

Checking pre-screening integrals            ... done (  0.4 sec) Dimension = 622
   => SHARK Basis and OBASIS are compatible. Storing Pre-screening
Shell pair information
Shell pair cut-off parameter TPreSel        ...   2.5e-12
Total number of shell pairs                 ...    193753
Shell pairs after pre-screening             ...    120795
Total number of primitive shell pairs       ...    584784
Primitive shell pairs kept                  ...    228377
          la=0 lb=0:  33617 shell pairs
          la=1 lb=0:  35975 shell pairs
          la=1 lb=1:   9706 shell pairs
          la=2 lb=0:  16408 shell pairs
          la=2 lb=1:   8963 shell pairs
          la=2 lb=2:   2067 shell pairs
          la=3 lb=0:   7521 shell pairs
          la=3 lb=1:   4226 shell pairs
          la=3 lb=2:   1855 shell pairs
          la=3 lb=3:    457 shell pairs

Checking whether 4 symmetric matrices of dimension 1542 fit in memory
:Max Core in MB      =   6000.00
 MB in use           =    144.69
 MB left             =   5855.31
 MB needed           =     36.31
 Data fit in memory  = YES
Calculating RI/J V-Matrix + Cholesky decomp.... done (  3.0 sec)
Calculating Nuclear repulsion               ... done (  0.0 sec) ENN=   5903.913104779333 Eh

Diagonalization of the overlap matrix:
Smallest eigenvalue                        ... 2.380e-06
Time for diagonalization                   ...   14.063 sec
Threshold for overlap eigenvalues          ... 1.000e-07
Number of eigenvalues below threshold      ... 0
Time for construction of square roots      ...    1.612 sec
Total time needed                          ...   15.961 sec

-------------------
DFT GRID GENERATION
-------------------

General Integration Accuracy     IntAcc      ... 4.388
Radial Grid Type                 RadialGrid  ... OptM3 with GC (2021)
Angular Grid (max. ang.)         AngularGrid ... 4 (Lebedev-302)
Angular grid pruning method      GridPruning ... 4 (adaptive)
Weight generation scheme         WeightScheme... mBecke (2022)
Basis function cutoff            BFCut       ... 1.0000e-11
Integration weight cutoff        WCut        ... 1.0000e-14
Partially contracted basis set               ... off
Rotationally invariant grid construction     ... off
Angular grids for H and He will be reduced by one unit

Total number of grid points                  ...   373251
Total number of batches                      ...     5878
Average number of points per batch           ...       63
Average number of grid points per atom       ...     4552

--------------------
COSX GRID GENERATION
--------------------

GRIDX 1
-------
General Integration Accuracy     IntAcc      ... 3.816
Radial Grid Type                 RadialGrid  ... OptM3 with GC (2021)
Angular Grid (max. ang.)         AngularGrid ... 1 (Lebedev-50)
Angular grid pruning method      GridPruning ... 4 (adaptive)
Weight generation scheme         WeightScheme... mBecke (2022)
Basis function cutoff            BFCut       ... 1.0000e-11
Integration weight cutoff        WCut        ... 1.0000e-14
Partially contracted basis set               ... on
Rotationally invariant grid construction     ... off
Angular grids for H and He will be reduced by one unit

Total number of grid points                  ...    47202
Total number of batches                      ...      411
Average number of points per batch           ...      114
Average number of grid points per atom       ...      576
UseSFitting                                  ... on

GRIDX 2
-------
General Integration Accuracy     IntAcc      ... 4.020
Radial Grid Type                 RadialGrid  ... OptM3 with GC (2021)
Angular Grid (max. ang.)         AngularGrid ... 2 (Lebedev-110)
Angular grid pruning method      GridPruning ... 4 (adaptive)
Weight generation scheme         WeightScheme... mBecke (2022)
Basis function cutoff            BFCut       ... 1.0000e-11
[...]
freq.     654.48  E(vib)   ...       0.08 
freq.     660.59  E(vib)   ...       0.08 
freq.     664.86  E(vib)   ...       0.08 
freq.     676.51  E(vib)   ...       0.08 
freq.     712.07  E(vib)   ...       0.07 
freq.     735.91  E(vib)   ...       0.06 
freq.     743.29  E(vib)   ...       0.06 
freq.     744.80  E(vib)   ...       0.06 
freq.     757.10  E(vib)   ...       0.06 
freq.     763.39  E(vib)   ...       0.06 
freq.     775.91  E(vib)   ...       0.05 
freq.     796.29  E(vib)   ...       0.05 
freq.     808.44  E(vib)   ...       0.05 
freq.     809.72  E(vib)   ...       0.05 
freq.     832.41  E(vib)   ...       0.04 
freq.     834.15  E(vib)   ...       0.04 
freq.     846.46  E(vib)   ...       0.04 
freq.     850.99  E(vib)   ...       0.04 
freq.     878.35  E(vib)   ...       0.04 
freq.     880.02  E(vib)   ...       0.04 
freq.     897.13  E(vib)   ...       0.03 
freq.     910.70  E(vib)   ...       0.03 
freq.     916.31  E(vib)   ...       0.03 
freq.     927.85  E(vib)   ...       0.03 
freq.     931.47  E(vib)   ...       0.03 
freq.     938.45  E(vib)   ...       0.03 
freq.     947.93  E(vib)   ...       0.03 
freq.     953.15  E(vib)   ...       0.03 
freq.     954.55  E(vib)   ...       0.03 
freq.     988.26  E(vib)   ...       0.02 
freq.     995.78  E(vib)   ...       0.02 
freq.    1013.41  E(vib)   ...       0.02 
freq.    1021.14  E(vib)   ...       0.02 
freq.    1032.05  E(vib)   ...       0.02 
freq.    1041.14  E(vib)   ...       0.02 
freq.    1047.11  E(vib)   ...       0.02 
freq.    1050.10  E(vib)   ...       0.02 
freq.    1058.57  E(vib)   ...       0.02 
freq.    1063.87  E(vib)   ...       0.02 
freq.    1066.55  E(vib)   ...       0.02 
freq.    1074.17  E(vib)   ...       0.02 
freq.    1083.80  E(vib)   ...       0.02 
freq.    1104.35  E(vib)   ...       0.02 
freq.    1104.66  E(vib)   ...       0.02 
freq.    1140.81  E(vib)   ...       0.01 
freq.    1141.79  E(vib)   ...       0.01 
freq.    1150.02  E(vib)   ...       0.01 
freq.    1151.40  E(vib)   ...       0.01 
freq.    1167.95  E(vib)   ...       0.01 
freq.    1170.54  E(vib)   ...       0.01 
freq.    1171.59  E(vib)   ...       0.01 
freq.    1171.79  E(vib)   ...       0.01 
freq.    1174.21  E(vib)   ...       0.01 
freq.    1180.46  E(vib)   ...       0.01 
freq.    1183.37  E(vib)   ...       0.01 
freq.    1186.18  E(vib)   ...       0.01 
freq.    1197.68  E(vib)   ...       0.01 
freq.    1202.58  E(vib)   ...       0.01 
freq.    1208.24  E(vib)   ...       0.01 
freq.    1213.19  E(vib)   ...       0.01 
freq.    1213.86  E(vib)   ...       0.01 
freq.    1216.25  E(vib)   ...       0.01 
freq.    1222.08  E(vib)   ...       0.01 
freq.    1230.61  E(vib)   ...       0.01 
freq.    1237.40  E(vib)   ...       0.01 
freq.    1243.35  E(vib)   ...       0.01 
freq.    1244.06  E(vib)   ...       0.01 
freq.    1251.21  E(vib)   ...       0.01 
freq.    1252.07  E(vib)   ...       0.01 
freq.    1258.65  E(vib)   ...       0.01 
freq.    1276.73  E(vib)   ...       0.01 
freq.    1280.21  E(vib)   ...       0.01 
freq.    1284.07  E(vib)   ...       0.01 
freq.    1290.69  E(vib)   ...       0.01 
freq.    1302.43  E(vib)   ...       0.01 
freq.    1305.38  E(vib)   ...       0.01 
freq.    1308.92  E(vib)   ...       0.01 
freq.    1326.09  E(vib)   ...       0.01 
freq.    1336.71  E(vib)   ...       0.01 
freq.    1350.03  E(vib)   ...       0.01 
freq.    1352.67  E(vib)   ...       0.01 
freq.    1359.99  E(vib)   ...       0.01 
freq.    1364.68  E(vib)   ...       0.01 
freq.    1371.07  E(vib)   ...       0.01 
freq.    1376.14  E(vib)   ...       0.01 
freq.    1380.28  E(vib)   ...       0.01 
freq.    1380.88  E(vib)   ...       0.01 
freq.    1398.35  E(vib)   ...       0.00 
freq.    1400.22  E(vib)   ...       0.00 
freq.    1403.25  E(vib)   ...       0.00 
freq.    1409.35  E(vib)   ...       0.00 
freq.    1415.78  E(vib)   ...       0.00 
freq.    1421.96  E(vib)   ...       0.00 
freq.    1436.57  E(vib)   ...       0.00 
freq.    1448.02  E(vib)   ...       0.00 
freq.    1454.17  E(vib)   ...       0.00 
freq.    1459.75  E(vib)   ...       0.00 
freq.    1468.40  E(vib)   ...       0.00 
freq.    1477.50  E(vib)   ...       0.00 
freq.    1478.33  E(vib)   ...       0.00 
freq.    1478.58  E(vib)   ...       0.00 
freq.    1479.85  E(vib)   ...       0.00 
freq.    1480.59  E(vib)   ...       0.00 
freq.    1480.81  E(vib)   ...       0.00 
freq.    1481.65  E(vib)   ...       0.00 
freq.    1483.79  E(vib)   ...       0.00 
freq.    1486.97  E(vib)   ...       0.00 
freq.    1488.61  E(vib)   ...       0.00 
freq.    1490.90  E(vib)   ...       0.00 
freq.    1491.94  E(vib)   ...       0.00 
freq.    1494.42  E(vib)   ...       0.00 
freq.    1496.07  E(vib)   ...       0.00 
freq.    1496.23  E(vib)   ...       0.00 
freq.    1497.29  E(vib)   ...       0.00 
freq.    1511.01  E(vib)   ...       0.00 
freq.    1536.44  E(vib)   ...       0.00 
freq.    1544.04  E(vib)   ...       0.00 
freq.    1547.48  E(vib)   ...       0.00 
freq.    1629.71  E(vib)   ...       0.00 
freq.    1633.04  E(vib)   ...       0.00 
freq.    1641.86  E(vib)   ...       0.00 
freq.    1644.60  E(vib)   ...       0.00 
freq.    1648.22  E(vib)   ...       0.00 
freq.    1650.36  E(vib)   ...       0.00 
freq.    2988.26  E(vib)   ...       0.00 
freq.    3005.96  E(vib)   ...       0.00 
freq.    3011.19  E(vib)   ...       0.00 
freq.    3014.23  E(vib)   ...       0.00 
freq.    3016.40  E(vib)   ...       0.00 
freq.    3021.64  E(vib)   ...       0.00 
freq.    3023.68  E(vib)   ...       0.00 
freq.    3028.79  E(vib)   ...       0.00 
freq.    3033.08  E(vib)   ...       0.00 
freq.    3036.20  E(vib)   ...       0.00 
freq.    3043.13  E(vib)   ...       0.00 
freq.    3044.02  E(vib)   ...       0.00 
freq.    3054.85  E(vib)   ...       0.00 
freq.    3062.77  E(vib)   ...       0.00 
freq.    3065.72  E(vib)   ...       0.00 
freq.    3075.36  E(vib)   ...       0.00 
freq.    3085.88  E(vib)   ...       0.00 
freq.    3093.03  E(vib)   ...       0.00 
freq.    3095.73  E(vib)   ...       0.00 
freq.    3105.55  E(vib)   ...       0.00 
freq.    3120.04  E(vib)   ...       0.00 
freq.    3131.83  E(vib)   ...       0.00 
freq.    3132.57  E(vib)   ...       0.00 
freq.    3133.52  E(vib)   ...       0.00 
freq.    3140.16  E(vib)   ...       0.00 
freq.    3144.30  E(vib)   ...       0.00 
freq.    3167.01  E(vib)   ...       0.00 
freq.    3173.89  E(vib)   ...       0.00 
freq.    3184.53  E(vib)   ...       0.00 
freq.    3189.45  E(vib)   ...       0.00 
freq.    3202.86  E(vib)   ...       0.00 
freq.    3206.79  E(vib)   ...       0.00 
freq.    3208.12  E(vib)   ...       0.00 
freq.    3211.09  E(vib)   ...       0.00 
freq.    3552.84  E(vib)   ...       0.00 
freq.    3584.47  E(vib)   ...       0.00 
freq.    3651.33  E(vib)   ...       0.00 
freq.    3721.92  E(vib)   ...       0.00 
freq.    3766.90  E(vib)   ...       0.00 
freq.    3787.12  E(vib)   ...       0.00 

------------
INNER ENERGY
------------

The inner energy is: U= E(el) + E(ZPE) + E(vib) + E(rot) + E(trans)
    E(el)   - is the total energy from the electronic structure calculation
              = E(kin-el) + E(nuc-el) + E(el-el) + E(nuc-nuc)
    E(ZPE)  - the the zero temperature vibrational energy from the frequency calculation
    E(vib)  - the the finite temperature correction to E(ZPE) due to population
              of excited vibrational states
    E(rot)  - is the rotational thermal energy
    E(trans)- is the translational thermal energy

Summary of contributions to the inner energy U:
Electronic energy                ...  -2032.63611692 Eh
Zero point energy                ...      0.67983834 Eh     426.60 kcal/mol
Thermal vibrational correction   ...      0.03971907 Eh      24.92 kcal/mol
Thermal rotational correction    ...      0.00141627 Eh       0.89 kcal/mol
Thermal translational correction ...      0.00141627 Eh       0.89 kcal/mol
-----------------------------------------------------------------------
Total thermal energy                  -2031.91372696 Eh


Summary of corrections to the electronic energy:
(perhaps to be used in another calculation)
Total thermal correction                  0.04255162 Eh      26.70 kcal/mol
Non-thermal (ZPE) correction              0.67983834 Eh     426.60 kcal/mol
-----------------------------------------------------------------------
Total correction                          0.72238996 Eh     453.31 kcal/mol


--------
ENTHALPY
--------

The enthalpy is H = U + kB*T
                kB is Boltzmann's constant
Total thermal energy              ...  -2031.91372696 Eh 
Thermal Enthalpy correction       ...      0.00094421 Eh       0.59 kcal/mol
-----------------------------------------------------------------------
Total Enthalpy                    ...  -2031.91278275 Eh


Note: Only C1 symmetry has been detected, increase convergence thresholds 
      if your molecule has a higher symmetry. Symmetry factor of 1.0 is   
      used for the rotational entropy correction. 
 

Note: Rotational entropy computed according to Herzberg 
Infrared and Raman Spectra, Chapter V,1, Van Nostrand Reinhold, 1945 
Point Group:  C1, Symmetry Number:   1  
Rotational constants in cm-1:     0.003573     0.002631     0.001991 

Vibrational entropy computed according to the QRRHO of S. Grimme
Chem.Eur.J. 2012 18 9955 using a reference frequency of 100.0 cm-1


-------
ENTROPY
-------

The entropy contributions are T*S = T*(S(el)+S(vib)+S(rot)+S(trans))
     S(el)   - electronic entropy
     S(vib)  - vibrational entropy
     S(rot)  - rotational entropy
     S(trans)- translational entropy
The entropies will be listed as multiplied by the temperature to get
units of energy

Electronic entropy                ...      0.00000000 Eh      0.00 kcal/mol
Vibrational entropy               ...      0.07084161 Eh     44.45 kcal/mol
Rotational entropy                ...      0.01791107 Eh     11.24 kcal/mol
Translational entropy             ...      0.02138181 Eh     13.42 kcal/mol
-----------------------------------------------------------------------
Final entropy term                ...      0.11013450 Eh     69.11 kcal/mol

In case the symmetry of your molecule has not been determined correctly
or in case you have a reason to use a different symmetry number we print 
out the resulting rotational entropy values for sn=1,12:

 non-linear molecules -----------------------------------
|  sn= 1 | S(rot)=       0.01791107 Eh     11.24 kcal/mol|
|  sn= 2 | S(rot)=       0.01725662 Eh     10.83 kcal/mol|
|  sn= 3 | S(rot)=       0.01687378 Eh     10.59 kcal/mol|
|  sn= 4 | S(rot)=       0.01660216 Eh     10.42 kcal/mol|
|  sn= 5 | S(rot)=       0.01639147 Eh     10.29 kcal/mol|
|  sn= 6 | S(rot)=       0.01621933 Eh     10.18 kcal/mol|
|  sn= 7 | S(rot)=       0.01607378 Eh     10.09 kcal/mol|
|  sn= 8 | S(rot)=       0.01594770 Eh     10.01 kcal/mol|
|  sn= 9 | S(rot)=       0.01583649 Eh      9.94 kcal/mol|
|  sn=10 | S(rot)=       0.01573702 Eh      9.88 kcal/mol|
|  sn=11 | S(rot)=       0.01564702 Eh      9.82 kcal/mol|
|  sn=12 | S(rot)=       0.01556487 Eh      9.77 kcal/mol|
 linear molecules ---------------------------------------
|  Dinfh | S(rot)=       0.01119763 Eh      7.03 kcal/mol|
|  Cinfv | S(rot)=       0.01185209 Eh      7.44 kcal/mol|
 --------------------------------------------------------


-------------------
GIBBS FREE ENERGY
-------------------

The Gibbs free energy is G = H - T*S

Total enthalpy                    ...  -2031.91278275 Eh 
Total entropy correction          ...     -0.11013450 Eh    -69.11 kcal/mol
-----------------------------------------------------------------------
Final Gibbs free energy         ...  -2032.02291725 Eh

For completeness - the Gibbs free energy minus the electronic energy
G-E(el)                           ...      0.61319967 Eh    384.79 kcal/mol


Maximum memory used throughout the entire PROP-calculation: 1829.5 MB
--------------------------------------------------------------------------
WARNING: There is at least one non-excluded one OpenFabrics device found,
but there are no active ports detected (or Open MPI was unable to use
them).  This is most certainly not what you wanted.  Check your
cables, subnet manager configuration, etc.  The openib BTL will be
ignored for this job.

  Local host: c03b01n01
--------------------------------------------------------------------------
--------------------------------------------------------------------------
WARNING: There was an error initializing an OpenFabrics device.

  Local host:   c03b01n01
  Local device: mlx5_0
--------------------------------------------------------------------------
[c03b01n01:3629990] 3 more processes have sent help message help-mpi-btl-openib.txt / no active ports found
[c03b01n01:3629990] Set MCA parameter "orte_base_help_aggregate" to 0 to see all help / error messages
[c03b01n01:3629990] 59 more processes have sent help message help-mpi-btl-openib.txt / error in device init

--------------------------------
SUGGESTED CITATIONS FOR THIS RUN
--------------------------------

Below you find a list of papers that are relevant to this ORCA run
We neither can nor want to force you to cite these papers, but we appreciate if you do
You receive ORCA, which is the product of decades of hard work by many enthusiastic individuals, for free
The only thing we kindly ask in return is that you cite our papers,
We deeply appreciate it, if you show your appreciation for ORCA by not just citing the generic ORCA reference.

Please note that relegating all ORCA citations to the supporting information does *not* help us.
SI sections are not indexed - citations you put there will not count into any citation statistics
But we need these citations in order to attract the funding resources that allow us to do what we are doing

Therefore, if you are a happy ORCA user, please consider citing a few of the papers listed below in the main body of your paper

In addition to the list printed below, the program has created the file opt-conf-6.bibtex that contains the list in bibtex format
You can import this file easily into all common literature databanks and citation aid programs


List of essential papers. We consider these as the minimum necessary citations

  1. Neese, F.
     Software update: the ORCA program system, version 6.0
     WIRES Comput. Molec. Sci. 2025 15(1), e70019
     doi.org/10.1002/wcms.7019

List of papers to cite with high priority. The work reported in these papers was absolutely
necessary for this run to complete.
Our perspective: the developers of density functionals and basis sets usually get cited in chemistry papers
Good! But without the algorithms to do something with them, the functionals or basis sets would not do anything.
Hence, in our opinion, the algorithm design and method developments papers are equally worthy of getting cited

  1. Neese, F.
     An improvement of the resolution of the identity approximation for the formation of the Coulomb matrix
     J. Comp. Chem. 2003 24(14), 1740-1747
     doi.org/10.1002/jcc.10318
  2. Neese, F.; Wennmohs, F.; Hansen, A.; Becker, U.
     Efficient, approximate and parallel Hartree-Fock and hybrid DFT calculations. A 'chain-of-spheres' algorithm for the Hartree-Fock exchange
     Chem. Phys. 2009 356(1-3), 98-109
     doi.org/10.1016/j.chemphys.2008.10.036
  3. Bykov, D.; Petrenko, T.; Izsak, R.; Kossmann, S.; Becker, U.; Valeev, E.; Neese, F.
     Efficient implementation of the analytic second derivatives of Hartree-Fock and hybrid DFT energies: a detailed analysis of different approximations
     Molec. Phys. 2015 113 , 1961-1977
     doi.org/10.1080/00268976.2015.1025114
  4. Caldeweyher, E.; Bannwarth, C.; Grimme, S.
     Extension of the D3 dispersion coefficient model
     J. Chem. Phys. 2017 147 , 034112
     doi.org/10.1063/1.4993215
  5. Caldeweyher, E.; Ehlert, S.; Hansen, A.; Neugebauer, H.; Spicher, S.; Bannwarth, C.; Grimme, S.
     A generally applicable atomic-charge dependent London dispersion correction
     J. Chem. Phys. 2019 150 , 154122
     doi.org/10.1063/1.5090222
  6. Garcia-Rates, M.; Neese, F.
     Efficient implementation of the analytical second derivatives of hartree-fock and hybrid DFT energies within the framework of the conductor-like polarizable continuum model
     J. Comput. Chem. 2019 40 , 1816-1828
     doi.org/10.1002/jcc.25833
  7. Caldeweyher, E.; Mewes, J.; Ehlert, S.; Grimme, S.
     Extension and evaluation of the D4 London-dispersion model for periodic systems
     Phys. Chem. Chem. Phys. 2020 22(16), 8499-8512
     doi.org/10.1039/D0CP00502A
  8. Garcia-Rates, M.; Neese, F.
     Effect of the Solute Cavity on the Solvation Energy and its Derivatives within the Framework of the Gaussian Charge Scheme
     J. Comput. Chem. 2020 41 , 922-939
     doi.org/10.1002/jcc.26139
  9. Helmich-Paris, B.; de Souza, B.; Neese, F.; Izsák, R.
     An improved chain of spheres for exchange algorithm
     J. Chem. Phys. 2021 155(10), 104109
     doi.org/10.1063/5.0058766
 10. Neese, F.
     The SHARK Integral Generation and Digestion System
     J. Comp. Chem. 2022 44(3), 381
     doi.org/10.1002/jcc.26942
 11. Wittmann, L.; Gordiy, I.; Friede, M.; Helmich-Paris, B.; Grimme, S.; Hansen, A.; Bursch, M.
     Extension of the D3 and D4 London Dispersion Corrections to the full Actinides Series
     Phys. Chem. Chem. Phys. 2024 26(32), 21379-21394
     doi.org/10.1039/D4CP01514B

List of suggested additional citations. These are papers that are important in the 'surrounding' of 
of this run, or papers that preceded the highly important papers. If you like your results we are grateful for a citation.

  1. Izsak, R.; Neese, F.
     An overlap fitted chain of spheres exchange method
     J. Chem. Phys. 2011 135 , 144105
     doi.org/10.1063/1.3646921
  2. Izsak, R.; Hansen, A.; Neese, F.
     The resolution of identity and chain of spheres approximations for the LPNO-CCSD singles Fock term
     Molec. Phys. 2012 110 , 2413-2417
     doi.org/10.1080/00268976.2012.687466
  3. Neese, F.
     The ORCA program system
     WIRES Comput. Molec. Sci. 2012 2(1), 73-78
     doi.org/10.1002/wcms.81
  4. Izsak, R.; Neese, F.; Klopper, W.
     Robust fitting techniques in the chain of spheres approximation to the Fock exchange: The role of the complementary space
     J. Chem. Phys. 2013 139 , 
     doi.org/10.1063/1.4819264
  5. Neese, F.
     Software update: the ORCA program system, version 4.0
     WIRES Comput. Molec. Sci. 2018 8(1), 1-6
     doi.org/10.1002/wcms.1327
  6. Neese, F.; Wennmohs, F.; Becker, U.; Riplinger, C.
     The ORCA quantum chemistry program package
     J. Chem. Phys. 2020 152(22), 224108
     doi.org/10.1063/5.0004608
  7. Neese, F.
     Software update: The ORCA program system—Version 5.0
     WIRES Comput. Molec. Sci. 2022 12(1), e1606
     doi.org/10.1002/wcms.1606

List of optional additional citations

  1. Neese, F.
     Approximate second-order SCF convergence for spin unrestricted wavefunctions
     Chem. Phys. Lett. 2000 325(1-3), 93-98
     doi.org/10.1016/s0009-2614(00)00662-x

Timings for individual modules:

Sum of individual times          ...    21808.964 sec (= 363.483 min)
Startup calculation              ...     1937.250 sec (=  32.288 min)   8.9 %
SCF iterations                   ...    12551.232 sec (= 209.187 min)  57.6 %
Property integrals               ...     1616.807 sec (=  26.947 min)   7.4 %
SCF Response                     ...     3486.870 sec (=  58.115 min)  16.0 %
Property calculations            ...      884.699 sec (=  14.745 min)   4.1 %
SCF Gradient evaluation          ...     1321.306 sec (=  22.022 min)   6.1 %
Geometry relaxation              ...       10.799 sec (=   0.180 min)   0.0 %
                             ****ORCA TERMINATED NORMALLY****
TOTAL RUN TIME: 0 days 6 hours 11 minutes 37 seconds 337 msec
