
                                 *****************
                                 * O   R   C   A *
                                 *****************

                                            #,                                       
                                            ###                                      
                                            ####                                     
                                            #####                                    
                                            ######                                   
                                           ########,                                 
                                     ,,################,,,,,                         
                               ,,#################################,,                 
                          ,,##########################################,,             
                       ,#########################################, ''#####,          
                    ,#############################################,,   '####,        
                  ,##################################################,,,,####,       
                ,###########''''           ''''###############################       
              ,#####''   ,,,,##########,,,,          '''####'''          '####       
            ,##' ,,,,###########################,,,                        '##       
           ' ,,###''''                  '''############,,,                           
         ,,##''                                '''############,,,,        ,,,,,,###''
      ,#''                                            '''#######################'''  
     '                                                          ''''####''''         
             ,#######,   #######,   ,#######,      ##                                
            ,#'     '#,  ##    ##  ,#'     '#,    #''#        ,####,    ,#,          
            ##       ##  ##   ,#'  ##            #'  '#       #'       ,# #          
            ##       ##  #######   ##           ,######,      #####,      #          
            '#,     ,#'  ##    ##  '#,     ,#' ,#      #,     #,   #      #          
             '#######'   ##     ##  '#######'  #'      '#     '####' #    #          



                #########################################################
                #                        -***-                          #
                #          Department of theory and spectroscopy        #
                #                                                       #
                #                      Frank Neese                      #
                #                                                       #
                #     Directorship, Architecture, Infrastructure        #
                #                    SHARK, DRIVERS                     #
                #        Core code/Algorithms in most modules           #
                #                                                       #
                #        Max Planck Institute fuer Kohlenforschung      #
                #                Kaiser Wilhelm Platz 1                 #
                #                 D-45470 Muelheim/Ruhr                 #
                #                      Germany                          #
                #                                                       #
                #                  All rights reserved                  #
                #                        -***-                          #
                #########################################################


                         Program Version 6.1.0-f.0  -   RELEASE   -


 With contributions from (in alphabetic order):
[Max-Planck-Institut fuer Kohlenforschung]                               
  Daniel Aravena         : Magnetic Suceptibility                        
  Michael Atanasov       : Ab Initio Ligand Field Theory (pilot matlab implementation)
  Alexander A. Auer      : GIAO ZORA, VPT2 properties, NMR spectrum      
  Ute Becker             : All parallelization in ORCA, NUMFREQ, NUMCALC 
  Giovanni Bistoni       : ED, misc. LED, open-shell LED, HFLD           
  Dmytro Bykov           : pre 5.0 version of the SCF Hessian            
  Marcos Casanova-Páez   : Triplet and SCS-CIS(D). UHF-(DLPNO)-IP/EA/STEOM-CCSD. UHF-CVS-IP/STEOM-CCSD   
  Vijay G. Chilkuri      : MRCI spin determinant printing, contributions to CSF-ICE 
  Pauline Colinet        : FMM embedding                                 
  Dipayan Datta          : RHF DLPNO-CCSD density                        
  Achintya Kumar Dutta   : EOM-CC, STEOM-CC                              
  Nicolas Foglia         : Exact transition moments, OPA infrastructure, MCD improvements    
  Dmitry Ganyushin       : Spin-Orbit,Spin-Spin,Magnetic field MRCI      
  Miquel Garcia-Rates    : C-PCM and meta-GGA Hessian, CCSD/C-PCM, Gaussian charge scheme 
  Tiago L. C. Gouveia    : GS-ROHF, GS-ROCIS                             
  Yang Guo               : DLPNO-NEVPT2, F12-NEVPT2, CIM, IAO-localization        
  Andreas Hansen         : Spin unrestricted coupled pair/coupled cluster methods 
  Ingolf Harden          : AUTO-CI MPn and infrastructure                
  Benjamin Helmich-Paris : MC-RPA, TRAH-(SCF,CASSCF), AVAS, COSX integrals, SCF dyn. polar., MC-PDFT, srDFT 
  Lee Huntington         : MR-EOM, pCC                                   
  Robert Izsak           : Overlap fitted RIJCOSX, COSX-SCS-MP3, EOM     
  Riya Kayal             : Wick's Theorem for AUTO-CI, AUTO-CI UHF-CCSDT 
  Emily Kempfer          : AUTO-CI RHF CISDT and CCSDT, approximate NEVPT4
  Christian Kollmar      : KDIIS, OOCD, Brueckner-CCSD(T), CCSD density, CASPT2, CASPT2-K, improved NEVPT2 
  Axel Koslowski         : Symmetry handling                             
  Simone Kossmann        : meta-GGA functionals, TD-DFT gradient, OOMP2, (MP2 Hessian; deprecated post 5.0) 
  Lucas Lang             : DCDCAS, Hyperfine gauge corrections, ICE-SOC+SSC
  Marvin Lechner         : AUTO-CI (C++ implementation), FIC-MRCC        
  Spencer Leger          : CASSCF response                               
  Dagmar Lenk            : GEPOL surface, SMD, ORCA-2-JSON               
  Dimitrios Liakos       : Extrapolation schemes; Compound Job, Property file
  Dimitrios Manganas     : Further ROCIS development; embedding schemes. LFT, Crystal Embedding 
  Dimitrios Pantazis     : SARC Basis sets                               
  Anastasios Papadopoulos: AUTO-CI, single reference methods and gradients 
  Taras Petrenko         : pre 6.0 DFT Hessian and TD-DFT gradient,  ECA, NRVS 
  Petra Pikulova         : Analytic Raman intensities                    
  Peter Pinski           : DLPNO-MP2, DLPNO-MP2 Gradient                 
  Shashank Vittal Rao    : ES-AILFT, MagRelax                            
  Christoph Reimann      : Effective Core Potentials                     
  Marius Retegan         : Local ZFS, SOC                                
  Christoph Riplinger    : Optimizer, TS searches, QM/MM, DLPNO-CCSD(T), (RO)-DLPNO pert. Triples 
  Michael Roemelt        : Original ROCIS implementation, recursive CI coupling coefficients
  Masaaki Saitow         : Open-shell DLPNO-CCSD energy and density      
  Barbara Sandhoefer     : DKH picture change effects                    
  Yorick L. A. Schmerwitz: GMF and freeze-and-release deltaSCF, NEB S-IDPP initial path                    
  Kantharuban Sivalingam : CASSCF convergence/infrastructure, NEVPT2, NEVPT3, NEVPT4(SD), FIC-MRCI and CEPA variants
  Bernardo de Souza      : ESD, SOC TD-DFT                               
  Georgi L. Stoychev     : AutoAux, RI-MP2 NMR, DLPNO-MP2 response, X2C  
  Van Anh Tran           : RI-MP2 g-tensors                              
  Willem Van den Heuvel  : Paramagnetic NMR                              
  Zikuan Wang            : NOTCH, Electric field optimization            
  Frank Wennmohs         : Technical directorship and infrastructure     
  Hang Xu                : AUTO-CI-Response properties                   
                                                                         
[FACCTs GmbH]                                                            
  Markus Bursch, Nicolas Foglia, Miquel Garcia-Rates, Ingolf Harden, Hagen Neugebauer, Anastasios Papadopoulos, 
  Christoph Riplinger, Bernardo de Souza, Georgi L. Stoychev                                                    
                                                                 
  APM, various basis sets, CI-OPT, improved COSX, DLPNO-Multilevel,           
  DOCKER, DRACO, updates on ESD, Fragmentator, GOAT, IRC, LR-CPCM, L-BFGS, MBIS, meta-GGA TD-DFT gradient, ML-optimized integration grids, 
  MM, NACMEs, nearIR, NEB, NEB-TS, NL-DFT gradient (VV10), 2- and 3-layer-ONIOM, interface openCOSMO-RS, QMMM,   
  Crystal-QMMM, RESP, rigid body optimization, SF, symmetry and pop. for TD-DFT, various functionals, SOLVATOR                                   
                                                                         
[Other institutions]                                                     
  V. Asgeirsson          : NEB                                           
  Christoph Bannwarth    : sTDA-DFT, sTD-DFT, PBEh-3c, B97-3c, D3        
  Giovanni Bistoni       : ETS/NOCV, ADLD/ADEX, COVALED                  
  Martin Brehm           : Molecular dynamics                            
  Ronald Cardenas        : ETS/NOCV                                      
  Martina Colucci        : COVALED                                       
  Sebastian Ehlert       : rSCAN, r2SCAN, r2SCAN-3c, D4, dhf basis sets  
  Marvin Friede          : D4 for Fr, Ra, Ac-Lr                          
  Lars Goerigk           : TD-DFT with DH, B97 family of functionals     
  Stefan Grimme          : VdW corrections, initial TS optimization, DFT functionals, gCP, sTDA/sTD-DF 
  Waldemar Hujo          : DFT-NL                                        
  H. Jonsson             : NEB                                           
  Holger Kruse           : gCP                                           
  Marcel Mueller         : wB97X-3c, vDZP basis set                      
  Hagen Neugebauer       : wr2SCAN, Native XTB                           
  Gianluca Regni         : ADLD/ADEX                                     
  Tobias Risthaus        : pre 6.0 range-separated hybrid DFT and stability analysis
  Lukas Wittmann         : regularized MP2, r2SCAN double-hybrids, wr2SCAN        
                                                                         
We gratefully acknowledge several colleagues who have allowed us to      
interface, adapt or use parts of their codes:                            
  Ed Valeev, F. Pavosevic, A. Kumar             : LibInt (2-el integral package), F12 methods 
  Garnet Chan, S. Sharma, J. Yang, R. Olivares  : DMRG                   
  Ulf Ekstrom                                   : XCFun DFT Library      
  Mihaly Kallay                                 : mrcc  (arbitrary order and MRCC methods)
  Frank Weinhold                                : gennbo (NPA and NBO analysis)           
  Simon Mueller                                 : openCOSMO-RS                            
  Christopher J. Cramer and Donald G. Truhlar   : smd solvation model                     
  S Lehtola, MJT Oliveira, MAL Marques          : LibXC Library                           
  Liviu Ungur et al                             : ANISO software                          


 Your calculation uses the libint2 library for the computation of 2-el integrals
 For citations please refer to: http://libint.valeyev.net

 Your ORCA version has been built with support for libXC version: 7.0.0
 For citations please refer to: https://libxc.gitlab.io

 This ORCA versions uses:
   CBLAS   interface :  Fast vector & matrix operations
   LAPACKE interface :  Fast linear algebra routines
   SCALAPACK package :  Parallel linear algebra routines
   Shared memory     :  Shared parallel matrices
   BLAS/LAPACK       :  OpenBLAS 0.3.29  USE64BITINT DYNAMIC_ARCH NO_AFFINITY Cooperlake SINGLE_THREADED
        Core in use  :  Cooperlake
   Copyright (c) 2011-2014, The OpenBLAS Project


  ***********************************
  * Starting time: Tue Mar  3 21:16:43 2026
  * Host name:     c03b01n02
  * Process ID:    3025131
  * Working dir.:  /lustre1/jiangy/jiangy_liuxy/NMR/B9D7C2-SSRS-NMR/opt_conf
  ***********************************

NOTE: MaxCore=5000 MB was set to SCF,MP2,MDCI,CIPSI,MRCI,RASCI and CIS
      => If you want to overwrite this, your respective input block should be placed after the MaxCore statement


***************************************
The coordinates will be read from file: opt-conf-10.xyz
***************************************



Warning: The global flag for NMR shieldings has been found
         but shieldings for certain elements have also been explicitly requested in the EPRNMR block
         ==>> only the requested shieldings will be calculated

================================================================================

----- Orbital basis set information -----
Your calculation utilizes the basis: pcSseg-2
   F. Jensen, J. Chem. Theory Comput. 11, 132 (2015).

----- AuxJ basis set information -----
Your calculation utilizes the AutoAux generation procedure.
  G. L. Stoychev, A. A. Auer, F. Neese, J. Chem. Theory Comput. 13, 554 (2017)

----- AuxC basis set information -----
Your calculation utilizes the AutoAux generation procedure.
  G. L. Stoychev, A. A. Auer, F. Neese, J. Chem. Theory Comput. 13, 554 (2017)

----- AuxJK basis set information -----
Your calculation utilizes the AutoAux generation procedure.
  G. L. Stoychev, A. A. Auer, F. Neese, J. Chem. Theory Comput. 13, 554 (2017)

----- AuxX basis set information -----
Your calculation utilizes the AutoAux generation procedure.
  G. L. Stoychev, A. A. Auer, F. Neese, J. Chem. Theory Comput. 13, 554 (2017)

================================================================================
                                        WARNINGS
                       Please study these warnings very carefully!
================================================================================


================================================================================
                                       INPUT FILE
================================================================================
NAME = nmr-conf-10.inp
|  1> !TPSS PCSSEG-2 AUTOAUX NMR CPCM(Methanol)
|  2> 
|  3> %pal nprocs 60 end
|  4> %maxcore 5000
|  5> 
|  6> *XYZFILE 0 1 opt-conf-10.xyz
|  7> 
|  8> %EPRNMR
|  9>    NUCLEI = ALL C {SHIFT}
| 10>    NUCLEI = ALL H {SHIFT}
| 11>    TAU DOBSON
| 12> END
| 13> 
| 14> 
| 15>                          ****END OF INPUT****
================================================================================

                       ****************************
                       * Single Point Calculation *
                       ****************************

---------------------------------
CARTESIAN COORDINATES (ANGSTROEM)
---------------------------------
  C     14.642411  -20.435005   -0.432416
  C     15.348742  -19.242538   -0.257570
  C     14.716962  -18.158223    0.361971
  C     13.418765  -18.287774    0.841081
  C     12.720682  -19.479202    0.672646
  C     13.337814  -20.553211    0.042719
  C     11.267943  -19.553235    1.062724
  C     10.376875  -18.743415    0.092702
  C     10.424871  -19.271552   -1.365837
  C     10.402989  -18.109617   -2.381949
  C     11.635385  -17.240874   -2.341846
  C     12.868479  -17.752711   -2.765076
  C     14.013275  -16.973570   -2.723948
  C     13.943492  -15.649752   -2.263959
  C     12.731301  -15.138563   -1.840292
  C     11.585151  -15.932385   -1.877976
  C      8.973962  -18.537624    0.664498
  C      9.329760  -20.271021   -1.744407
  O     15.440391  -17.009016    0.442543
  O     15.298617  -21.419951   -1.100915
  O     16.606697  -19.157750   -0.799158
  O     15.060083  -14.863421   -2.231784
  O     15.262587  -17.378081   -3.106695
  C     17.724904  -18.771975    0.020188
  C     18.305841  -19.976253    0.770057
  C     17.293419  -20.699553    1.620571
  C     18.710827  -18.169676   -0.966335
  O     18.143026  -17.060134   -1.655981
  C     16.551821  -20.009234    2.587099
  C     15.575815  -20.664745    3.313950
  C     15.338990  -22.033744    3.099544
  C     16.092093  -22.724154    2.169068
  C     17.064602  -22.053646    1.430576
  C     14.648669  -22.677518   -1.247186
  C     14.873833  -15.894547    1.125448
  C     15.388209  -18.635263   -3.773591
  O     19.384923  -19.438246    1.555566
  O      8.301141  -19.753210    1.056043
  O      9.285686  -21.432770   -0.916648
  O     14.761422  -20.095386    4.250123
  O     14.364376  -22.677438    3.803150
  C     14.888709  -18.695009    4.489498
  H     12.928119  -17.445939    1.306741
  H     12.787268  -21.471146   -0.097591
  H     11.134583  -19.147056    2.070929
  H     10.948127  -20.595271    1.088530
  H     10.805331  -17.737312    0.067776
  H     11.377548  -19.788939   -1.494944
  H      9.517946  -17.491006   -2.208910
  H     10.295798  -18.533485   -3.385625
  H     12.924555  -18.772562   -3.119159
  H     12.689243  -14.115649   -1.487086
  H     10.641409  -15.516626   -1.546451
  H      9.034180  -17.874634    1.531285
  H      8.326716  -18.062584   -0.074130
  H      8.349613  -19.777971   -1.751288
  H      9.518996  -20.623183   -2.760773
  H     15.794951  -15.354702   -2.626451
  H     17.417630  -18.013479    0.737850
  H     18.704075  -20.684216    0.034285
  H     19.593285  -17.809290   -0.441102
  H     19.020637  -18.947146   -1.676518
  H     17.254881  -17.326008   -1.940403
  H     16.723941  -18.954311    2.743017
  H     15.902348  -23.779105    2.016942
  H     17.630096  -22.591864    0.680539
  H     13.733824  -22.584456   -1.837909
  H     15.355050  -23.318601   -1.769514
  H     14.410826  -23.112707   -0.273879
  H     14.664133  -16.139404    2.169277
  H     15.622216  -15.107436    1.077572
  H     13.958330  -15.558150    0.636567
  H     16.436652  -18.725438   -4.045497
  H     15.111016  -19.457758   -3.114271
  H     14.767847  -18.654123   -4.672418
  H     19.738929  -20.153666    2.099096
  H      8.601068  -19.996422    1.940259
  H      8.907189  -21.132139   -0.071430
  H     13.945058  -22.038314    4.399365
  H     14.144907  -18.450602    5.243594
  H     15.886400  -18.453121    4.863429
  H     14.690122  -18.129482    3.577345

----------------------------
CARTESIAN COORDINATES (A.U.)
----------------------------
  NO LB      ZA    FRAG     MASS         X           Y           Z
   0 C     6.0000    0    12.011   27.670147  -38.616564   -0.817148
   1 C     6.0000    0    12.011   29.004920  -36.363126   -0.486737
   2 C     6.0000    0    12.011   27.811027  -34.314069    0.684026
   3 C     6.0000    0    12.011   25.357791  -34.558884    1.589414
   4 C     6.0000    0    12.011   24.038604  -36.810357    1.271117
   5 C     6.0000    0    12.011   25.204815  -38.839941    0.080727
   6 C     6.0000    0    12.011   21.293326  -36.950259    2.008257
   7 C     6.0000    0    12.011   19.609451  -35.419921    0.175182
   8 C     6.0000    0    12.011   19.700152  -36.417956   -2.581059
   9 C     6.0000    0    12.011   19.658800  -34.222217   -4.501232
  10 C     6.0000    0    12.011   21.987691  -32.580530   -4.425447
  11 C     6.0000    0    12.011   24.317902  -33.547761   -5.225236
  12 C     6.0000    0    12.011   26.481251  -32.075399   -5.147515
  13 C     6.0000    0    12.011   26.349381  -29.573745   -4.278262
  14 C     6.0000    0    12.011   24.058672  -28.607737   -3.477647
  15 C     6.0000    0    12.011   21.892764  -30.107844   -3.548860
  16 C     6.0000    0    12.011   16.958331  -35.031033    1.255720
  17 C     6.0000    0    12.011   17.630691  -38.306677   -3.296452
  18 O     8.0000    0    15.999   29.178110  -32.142382    0.836284
  19 O     8.0000    0    15.999   28.910196  -40.477841   -2.080428
  20 O     8.0000    0    15.999   31.382109  -36.202901   -1.510189
  21 O     8.0000    0    15.999   28.459433  -28.087795   -4.217460
  22 O     8.0000    0    15.999   28.842110  -32.839814   -5.870802
  23 C     6.0000    0    12.011   33.495215  -35.473892    0.038149
  24 C     6.0000    0    12.011   34.593026  -37.749648    1.455198
  25 C     6.0000    0    12.011   32.679827  -39.116487    3.062436
  26 C     6.0000    0    12.011   35.358339  -34.335712   -1.826108
  27 O     8.0000    0    15.999   34.285350  -32.238980   -3.129350
  28 C     6.0000    0    12.011   31.278409  -37.811972    4.888908
  29 C     6.0000    0    12.011   29.434024  -39.050709    6.262458
  30 C     6.0000    0    12.011   28.986491  -41.637742    5.857289
  31 C     6.0000    0    12.011   30.409649  -42.942427    4.098944
  32 C     6.0000    0    12.011   32.247424  -41.675352    2.703397
  33 C     6.0000    0    12.011   27.681974  -42.854298   -2.356840
  34 C     6.0000    0    12.011   28.107471  -30.036340    2.126788
  35 C     6.0000    0    12.011   29.079501  -35.215544   -7.131053
  36 O     8.0000    0    15.999   36.632195  -36.732962    2.939594
  37 O     8.0000    0    15.999   15.686883  -37.328156    1.995632
  38 O     8.0000    0    15.999   17.547404  -40.502066   -1.732215
  39 O     8.0000    0    15.999   27.895044  -37.974775    8.031568
  40 O     8.0000    0    15.999   27.144737  -42.854146    7.186911
  41 C     6.0000    0    12.011   28.135583  -35.328446    8.483921
  42 H     1.0000    0     1.008   24.430604  -32.968047    2.469382
  43 H     1.0000    0     1.008   24.164434  -40.574585   -0.184420
  44 H     1.0000    0     1.008   21.041312  -36.182692    3.913489
  45 H     1.0000    0     1.008   20.688961  -38.919422    2.057024
  46 H     1.0000    0     1.008   20.419116  -33.518663    0.128078
  47 H     1.0000    0     1.008   21.500450  -37.395675   -2.825036
  48 H     1.0000    0     1.008   17.986311  -33.053212   -4.174235
  49 H     1.0000    0     1.008   19.456239  -35.023211   -6.397904
  50 H     1.0000    0     1.008   24.423869  -35.475000   -5.894356
  51 H     1.0000    0     1.008   23.979193  -26.674712   -2.810185
  52 H     1.0000    0     1.008   20.109349  -29.322174   -2.922369
  53 H     1.0000    0     1.008   17.072125  -33.778163    2.893708
  54 H     1.0000    0     1.008   15.735213  -34.133338   -0.140085
  55 H     1.0000    0     1.008   15.778483  -37.374949   -3.309454
  56 H     1.0000    0     1.008   17.988295  -38.972167   -5.217105
  57 H     1.0000    0     1.008   29.848131  -29.016182   -4.963272
  58 H     1.0000    0     1.008   32.914551  -34.040542    1.394334
  59 H     1.0000    0     1.008   35.345579  -39.087503    0.064788
  60 H     1.0000    0     1.008   37.025942  -33.654680   -0.833562
  61 H     1.0000    0     1.008   35.943795  -35.804917   -3.168160
  62 H     1.0000    0     1.008   32.607000  -32.741409   -3.666830
  63 H     1.0000    0     1.008   31.603668  -35.818457    5.183552
  64 H     1.0000    0     1.008   30.051083  -44.935995    3.811467
  65 H     1.0000    0     1.008   33.316053  -42.692436    1.286032
  66 H     1.0000    0     1.008   25.953166  -42.678436   -3.473145
  67 H     1.0000    0     1.008   29.016839  -44.065770   -3.343897
  68 H     1.0000    0     1.008   27.232514  -43.676687   -0.517556
  69 H     1.0000    0     1.008   27.711195  -30.499054    4.099340
  70 H     1.0000    0     1.008   29.521710  -28.548917    2.036315
  71 H     1.0000    0     1.008   26.377420  -29.400643    1.202938
  72 H     1.0000    0     1.008   31.060772  -35.385950   -7.644882
  73 H     1.0000    0     1.008   28.555682  -36.769833   -5.885120
  74 H     1.0000    0     1.008   27.907187  -35.251183   -8.829589
  75 H     1.0000    0     1.008   37.301170  -38.084909    3.966717
  76 H     1.0000    0     1.008   16.253664  -37.787761    3.666557
  77 H     1.0000    0     1.008   16.832147  -39.933956   -0.134982
  78 H     1.0000    0     1.008   26.352341  -41.646378    8.313595
  79 H     1.0000    0     1.008   26.730000  -34.866585    9.908957
  80 H     1.0000    0     1.008   30.020945  -34.871344    9.190549
  81 H     1.0000    0     1.008   27.760307  -34.259757    6.760203

--------------------------------
INTERNAL COORDINATES (ANGSTROEM)
--------------------------------
 C      0   0   0     0.000000000000     0.00000000     0.00000000
 C      1   0   0     1.396944556159     0.00000000     0.00000000
 C      2   1   0     1.399541175526   119.24304467     0.00000000
 C      3   2   1     1.389836367105   120.13493828     2.40189607
 C      4   3   2     1.391111932250   120.45242617   357.95578444
 C      5   4   3     1.389660370802   119.60076295     1.20794722
 C      5   4   3     1.506018695147   119.65682872   186.63287216
 C      7   5   4     1.546205663007   111.57173709    70.83260120
 C      8   7   5     1.551957077669   113.17480447    62.01089943
 C      9   8   7     1.543714849452   111.22450036   218.26293366
 C     10   9   8     1.508350817066   113.85554867    66.33968980
 C     11  10   9     1.400579432010   120.05483776    68.41661254
 C     12  11  10     1.385390762881   120.86531658   180.59287780
 C     13  12  11     1.403194544365   119.94846585   359.47315617
 C     14  13  12     1.382105340351   119.54096038     0.73559170
 C     11  10   9     1.389187820157   121.45517702   249.07455122
 C      8   7   5     1.528876710760   111.38792923   193.68843729
 C      9   8   7     1.530202964867   115.63565550    93.82475653
 O      3   2   1     1.360337888062   116.14671486   183.03039892
 O      1   2   3     1.359269850635   115.84938817   176.82918392
 O      2   1   3     1.372207931592   117.83140317   184.94444084
 O     14  13  12     1.366063164569   120.67237461   180.76535946
 O     13  12  11     1.367810913021   125.45879927   179.68573378
 C     21   2   1     1.438936416567   120.28037389   233.18328965
 C     24  21   2     1.532996464400   111.24814103    84.51479745
 C     25  24  21     1.507160855202   113.48316799   303.65698011
 C     24  21   2     1.519221311667   103.93676417   205.85093232
 O     27  24  21     1.424463177702   111.37721879    59.08002197
 C     26  25  24     1.400244563102   120.57695698   305.01179032
 C     29  26  25     1.382243193005   120.20787499   176.57939875
 C     30  29  26     1.405778385678   120.03852707     1.01149962
 C     31  30  29     1.381888500083   119.82992657     0.56084738
 C     26  25  24     1.386370620487   120.15020829   123.48428462
 C     20   1   2     1.423131080542   118.05914747   176.90994410
 C     19   3   2     1.424565933419   118.54150900   183.25394775
 C     23  13  12     1.428648972896   118.11071833     9.08611740
 O     25  24  21     1.439059761533   104.91997119   181.04148690
 O     17   8   7     1.443483224549   114.56981874   305.70751913
 O     18   9   8     1.427161191625   114.22370294   302.89641403
 O     30  29  26     1.365219906502   125.73396743   182.13172568
 O     31  30  29     1.363552601812   120.09477640   180.87707867
 C     40  30  29     1.426379414955   118.11805192     1.75439308
 H      4   3   2     1.079933979168   120.02344463   180.83538108
 H      6   5   4     1.079532857167   119.31453220   180.82890313
 H      7   5   4     1.095099891862   109.73666904   310.86041271
 H      7   5   4     1.090315543376   109.63691897   193.27940473
 H      8   7   5     1.093818235884   105.68238596   306.16479690
 H      9   8   7     1.091764901802   107.42119423   334.96203558
 H     10   9   8     1.093582683605   109.45677819   303.63363837
 H     10   9   8     1.094768946735   108.26550785   187.86634645
 H     12  11  10     1.081025029394   119.30204252     0.02717180
 H     15  14  13     1.082993219010   118.90631017   179.98676519
 H     16  11  10     1.083242270055   119.68368729   359.31103431
 H     17   8   7     1.092931955389   109.12957079    67.89137564
 H     17   8   7     1.090945147185   110.47526938   186.22999379
 H     18   9   8     1.097193075720   110.32573115    67.39652364
 H     18   9   8     1.092166311821   108.47162585   184.40451536
 H     22  14  13     0.968064753595   108.58788226     4.43955611
 H     24  21   2     1.088472444389   110.05214939   323.11538980
 H     25  24  21     1.095975640496   108.46716442    63.97507375
 H     27  24  21     1.088338044704   110.12678486   178.11476488
 H     27  24  21     1.097634461419   108.81443594   296.96957013
 H     28  27  24     0.969734670817   107.06825584   314.10871946
 H     29  26  25     1.080184071055   119.78278573   358.41578387
 H     32  31  30     1.082620586923   119.07428428   179.73114898
 H     33  26  25     1.082597933331   119.62444854     1.11704425
 H     34  20   1     1.092957474413   111.25914195    63.22149576
 H     34  20   1     1.087560559832   105.87992744   182.14193699
 H     34  20   1     1.092376600695   111.09407426   300.99032172
 H     35  19   3     1.092478432837   111.04049371    60.28827465
 H     35  19   3     1.087157917531   105.75483548   179.17749691
 H     35  19   3     1.091014591380   111.10848784   297.97138621
 H     36  23  13     1.086875524376   105.93887559   176.15508215
 H     36  23  13     1.089970153968   111.05759326   294.98517917
 H     36  23  13     1.092288411692   110.44926429    57.17558956
 H     37  25  24     0.965696831479   107.76644091   175.72668971
 H     38  17   8     0.964855115277   108.41895993    82.82255989
 H     39  18   9     0.973670433869   105.31657055    73.71715170
 H     41  31  30     0.969421781210   108.37856227   359.89539764
 H     42  40  30     1.087031532336   106.02750884   178.85515857
 H     42  40  30     1.092575495810   110.87196410   297.89941103
 H     42  40  30     1.091457346083   110.62229173    59.86257797

---------------------------
INTERNAL COORDINATES (A.U.)
---------------------------
 C      0   0   0     0.000000000000     0.00000000     0.00000000
 C      1   0   0     2.639842635414     0.00000000     0.00000000
 C      2   1   0     2.644749534891   119.24304467     0.00000000
 C      3   2   1     2.626410104793   120.13493828     2.40189607
 C      4   3   2     2.628820573583   120.45242617   357.95578444
 C      5   4   3     2.626077519979   119.60076295     1.20794722
 C      5   4   3     2.845962886392   119.65682872   186.63287216
 C      7   5   4     2.921905249801   111.57173709    70.83260120
 C      8   7   5     2.932773848394   113.17480447    62.01089943
 C      9   8   7     2.917198294332   111.22450036   218.26293366
 C     10   9   8     2.850369958131   113.85554867    66.33968980
 C     11  10   9     2.646711555301   120.05483776    68.41661254
 C     12  11  10     2.618009130310   120.86531658   180.59287780
 C     13  12  11     2.651653401462   119.94846585   359.47315617
 C     14  13  12     2.611800581494   119.54096038     0.73559170
 C     11  10   9     2.625184528677   121.45517702   249.07455122
 C      8   7   5     2.889158275867   111.38792923   193.68843729
 C      9   8   7     2.891664532912   115.63565550    93.82475653
 O      3   2   1     2.570666058034   116.14671486   183.03039892
 O      1   2   3     2.568647759796   115.84938817   176.82918392
 O      2   1   3     2.593097189504   117.83140317   184.94444084
 O     14  13  12     2.581485262672   120.67237461   180.76535946
 O     13  12  11     2.584788028599   125.45879927   179.68573378
 C     21   2   1     2.719195751438   120.28037389   233.18328965
 C     24  21   2     2.896943481986   111.24814103    84.51479745
 C     25  24  21     2.848121256098   113.48316799   303.65698011
 C     24  21   2     2.870912215867   103.93676417   205.85093232
 O     27  24  21     2.691845293712   111.37721879    59.08002197
 C     26  25  24     2.646078744775   120.57695698   305.01179032
 C     29  26  25     2.612061085255   120.20787499   176.57939875
 C     30  29  26     2.656536153917   120.03852707     1.01149962
 C     31  30  29     2.611390812773   119.82992657     0.56084738
 C     26  25  24     2.619860792835   120.15020829   123.48428462
 C     20   1   2     2.689327994895   118.05914747   176.90994410
 C     19   3   2     2.692039473876   118.54150900   183.25394775
 C     23  13  12     2.699755300282   118.11071833     9.08611740
 O     25  24  21     2.719428839644   104.91997119   181.04148690
 O     17   8   7     2.727787973307   114.56981874   305.70751913
 O     18   9   8     2.696943801131   114.22370294   302.89641403
 O     30  29  26     2.579891735866   125.73396743   182.13172568
 O     31  30  29     2.576740986620   120.09477640   180.87707867
 C     40  30  29     2.695466457327   118.11805192     1.75439308
 H      4   3   2     2.040779463344   120.02344463   180.83538108
 H      6   5   4     2.040021452615   119.31453220   180.82890313
 H      7   5   4     2.069438884906   109.73666904   310.86041271
 H      7   5   4     2.060397776538   109.63691897   193.27940473
 H      8   7   5     2.067016906110   105.68238596   306.16479690
 H      9   8   7     2.063136667033   107.42119423   334.96203558
 H     10   9   8     2.066571776812   109.45677819   303.63363837
 H     10   9   8     2.068813489250   108.26550785   187.86634645
 H     12  11  10     2.042841249469   119.30204252     0.02717180
 H     15  14  13     2.046560588822   118.90631017   179.98676519
 H     16  11  10     2.047031227090   119.68368729   359.31103431
 H     17   8   7     2.065342078696   109.12957079    67.89137564
 H     17   8   7     2.061587555310   110.47526938   186.22999379
 H     18   9   8     2.073394429146   110.32573115    67.39652364
 H     18   9   8     2.063895222036   108.47162585   184.40451536
 H     22  14  13     1.829377264196   108.58788226     4.43955611
 H     24  21   2     2.056914824215   110.05214939   323.11538980
 H     25  24  21     2.071093809986   108.46716442    63.97507375
 H     27  24  21     2.056660845619   110.12678486   178.11476488
 H     27  24  21     2.074228527236   108.81443594   296.96957013
 H     28  27  24     1.832532950411   107.06825584   314.10871946
 H     29  26  25     2.041252068519   119.78278573   358.41578387
 H     32  31  30     2.045856416230   119.07428428   179.73114898
 H     33  26  25     2.045813607146   119.62444854     1.11704425
 H     34  20   1     2.065390302664   111.25914195    63.22149576
 H     34  20   1     2.055191612137   105.87992744   182.14193699
 H     34  20   1     2.064292610418   111.09407426   300.99032172
 H     35  19   3     2.064485045277   111.04049371    60.28827465
 H     35  19   3     2.054430728458   105.75483548   179.17749691
 H     35  19   3     2.061718785819   111.10848784   297.97138621
 H     36  23  13     2.053897082732   105.93887559   176.15508215
 H     36  23  13     2.059745085147   111.05759326   294.98517917
 H     36  23  13     2.064125957353   110.44926429    57.17558956
 H     37  25  24     1.824902539891   107.76644091   175.72668971
 H     38  17   8     1.823311926787   108.41895993    82.82255989
 H     39  18   9     1.839970464709   105.31657055    73.71715170
 H     41  31  30     1.831941674746   108.37856227   359.89539764
 H     42  40  30     2.054191895051   106.02750884   178.85515857
 H     42  40  30     2.064668467714   110.87196410   297.89941103
 H     42  40  30     2.062555470954   110.62229173    59.86257797

---------------------
BASIS SET INFORMATION
---------------------
There are 3 groups of distinct atoms

 Group   1 Type C   : 11s7p2d1f contracted to 4s5p2d1f pattern {7211/31111/11/1}
 Group   2 Type O   : 11s7p2d1f contracted to 4s5p2d1f pattern {7211/31111/11/1}
 Group   3 Type H   : 6s3p1d contracted to 3s2p1d pattern {411/21/1}

Atom   0C    basis set group =>   1
Atom   1C    basis set group =>   1
Atom   2C    basis set group =>   1
Atom   3C    basis set group =>   1
Atom   4C    basis set group =>   1
Atom   5C    basis set group =>   1
Atom   6C    basis set group =>   1
Atom   7C    basis set group =>   1
Atom   8C    basis set group =>   1
Atom   9C    basis set group =>   1
Atom  10C    basis set group =>   1
Atom  11C    basis set group =>   1
Atom  12C    basis set group =>   1
Atom  13C    basis set group =>   1
Atom  14C    basis set group =>   1
Atom  15C    basis set group =>   1
Atom  16C    basis set group =>   1
Atom  17C    basis set group =>   1
Atom  18O    basis set group =>   2
Atom  19O    basis set group =>   2
Atom  20O    basis set group =>   2
Atom  21O    basis set group =>   2
Atom  22O    basis set group =>   2
Atom  23C    basis set group =>   1
Atom  24C    basis set group =>   1
Atom  25C    basis set group =>   1
Atom  26C    basis set group =>   1
Atom  27O    basis set group =>   2
Atom  28C    basis set group =>   1
Atom  29C    basis set group =>   1
Atom  30C    basis set group =>   1
Atom  31C    basis set group =>   1
Atom  32C    basis set group =>   1
Atom  33C    basis set group =>   1
Atom  34C    basis set group =>   1
Atom  35C    basis set group =>   1
Atom  36O    basis set group =>   2
Atom  37O    basis set group =>   2
Atom  38O    basis set group =>   2
Atom  39O    basis set group =>   2
Atom  40O    basis set group =>   2
Atom  41C    basis set group =>   1
Atom  42H    basis set group =>   3
Atom  43H    basis set group =>   3
Atom  44H    basis set group =>   3
Atom  45H    basis set group =>   3
Atom  46H    basis set group =>   3
Atom  47H    basis set group =>   3
Atom  48H    basis set group =>   3
Atom  49H    basis set group =>   3
Atom  50H    basis set group =>   3
Atom  51H    basis set group =>   3
Atom  52H    basis set group =>   3
Atom  53H    basis set group =>   3
Atom  54H    basis set group =>   3
Atom  55H    basis set group =>   3
Atom  56H    basis set group =>   3
Atom  57H    basis set group =>   3
Atom  58H    basis set group =>   3
Atom  59H    basis set group =>   3
Atom  60H    basis set group =>   3
Atom  61H    basis set group =>   3
Atom  62H    basis set group =>   3
Atom  63H    basis set group =>   3
Atom  64H    basis set group =>   3
Atom  65H    basis set group =>   3
Atom  66H    basis set group =>   3
Atom  67H    basis set group =>   3
Atom  68H    basis set group =>   3
Atom  69H    basis set group =>   3
Atom  70H    basis set group =>   3
Atom  71H    basis set group =>   3
Atom  72H    basis set group =>   3
Atom  73H    basis set group =>   3
Atom  74H    basis set group =>   3
Atom  75H    basis set group =>   3
Atom  76H    basis set group =>   3
Atom  77H    basis set group =>   3
Atom  78H    basis set group =>   3
Atom  79H    basis set group =>   3
Atom  80H    basis set group =>   3
Atom  81H    basis set group =>   3
---------------------------------
AUXILIARY/J BASIS SET INFORMATION
---------------------------------
There are 3 groups of distinct atoms

 Group   1 Type C   : 15s13p12d5f5g contracted to 15s13p12d5f5g pattern {111111111111111/1111111111111/111111111111/11111/11111}
 Group   2 Type O   : 15s13p12d5f5g contracted to 15s13p12d5f5g pattern {111111111111111/1111111111111/111111111111/11111/11111}
 Group   3 Type H   : 12s4p3d2f contracted to 12s4p3d2f pattern {111111111111/1111/111/11}

Atom   0C    basis set group =>   1
Atom   1C    basis set group =>   1
Atom   2C    basis set group =>   1
Atom   3C    basis set group =>   1
Atom   4C    basis set group =>   1
Atom   5C    basis set group =>   1
Atom   6C    basis set group =>   1
Atom   7C    basis set group =>   1
Atom   8C    basis set group =>   1
Atom   9C    basis set group =>   1
Atom  10C    basis set group =>   1
Atom  11C    basis set group =>   1
Atom  12C    basis set group =>   1
Atom  13C    basis set group =>   1
Atom  14C    basis set group =>   1
Atom  15C    basis set group =>   1
Atom  16C    basis set group =>   1
Atom  17C    basis set group =>   1
Atom  18O    basis set group =>   2
Atom  19O    basis set group =>   2
Atom  20O    basis set group =>   2
Atom  21O    basis set group =>   2
Atom  22O    basis set group =>   2
Atom  23C    basis set group =>   1
Atom  24C    basis set group =>   1
Atom  25C    basis set group =>   1
Atom  26C    basis set group =>   1
Atom  27O    basis set group =>   2
Atom  28C    basis set group =>   1
Atom  29C    basis set group =>   1
Atom  30C    basis set group =>   1
Atom  31C    basis set group =>   1
Atom  32C    basis set group =>   1
Atom  33C    basis set group =>   1
Atom  34C    basis set group =>   1
Atom  35C    basis set group =>   1
Atom  36O    basis set group =>   2
Atom  37O    basis set group =>   2
Atom  38O    basis set group =>   2
Atom  39O    basis set group =>   2
Atom  40O    basis set group =>   2
Atom  41C    basis set group =>   1
Atom  42H    basis set group =>   3
Atom  43H    basis set group =>   3
Atom  44H    basis set group =>   3
Atom  45H    basis set group =>   3
Atom  46H    basis set group =>   3
Atom  47H    basis set group =>   3
Atom  48H    basis set group =>   3
Atom  49H    basis set group =>   3
Atom  50H    basis set group =>   3
Atom  51H    basis set group =>   3
Atom  52H    basis set group =>   3
Atom  53H    basis set group =>   3
Atom  54H    basis set group =>   3
Atom  55H    basis set group =>   3
Atom  56H    basis set group =>   3
Atom  57H    basis set group =>   3
Atom  58H    basis set group =>   3
Atom  59H    basis set group =>   3
Atom  60H    basis set group =>   3
Atom  61H    basis set group =>   3
Atom  62H    basis set group =>   3
Atom  63H    basis set group =>   3
Atom  64H    basis set group =>   3
Atom  65H    basis set group =>   3
Atom  66H    basis set group =>   3
Atom  67H    basis set group =>   3
Atom  68H    basis set group =>   3
Atom  69H    basis set group =>   3
Atom  70H    basis set group =>   3
Atom  71H    basis set group =>   3
Atom  72H    basis set group =>   3
Atom  73H    basis set group =>   3
Atom  74H    basis set group =>   3
Atom  75H    basis set group =>   3
Atom  76H    basis set group =>   3
Atom  77H    basis set group =>   3
Atom  78H    basis set group =>   3
Atom  79H    basis set group =>   3
Atom  80H    basis set group =>   3
Atom  81H    basis set group =>   3
---------------------------------
AUXILIARY/C BASIS SET INFORMATION
---------------------------------
There are 3 groups of distinct atoms

 Group   1 Type C   : 15s13p12d5f5g contracted to 15s13p12d5f5g pattern {111111111111111/1111111111111/111111111111/11111/11111}
 Group   2 Type O   : 15s13p12d5f5g contracted to 15s13p12d5f5g pattern {111111111111111/1111111111111/111111111111/11111/11111}
 Group   3 Type H   : 12s4p3d2f contracted to 12s4p3d2f pattern {111111111111/1111/111/11}

Atom   0C    basis set group =>   1
Atom   1C    basis set group =>   1
Atom   2C    basis set group =>   1
Atom   3C    basis set group =>   1
Atom   4C    basis set group =>   1
Atom   5C    basis set group =>   1
Atom   6C    basis set group =>   1
Atom   7C    basis set group =>   1
Atom   8C    basis set group =>   1
Atom   9C    basis set group =>   1
Atom  10C    basis set group =>   1
Atom  11C    basis set group =>   1
Atom  12C    basis set group =>   1
Atom  13C    basis set group =>   1
Atom  14C    basis set group =>   1
Atom  15C    basis set group =>   1
Atom  16C    basis set group =>   1
Atom  17C    basis set group =>   1
Atom  18O    basis set group =>   2
Atom  19O    basis set group =>   2
Atom  20O    basis set group =>   2
Atom  21O    basis set group =>   2
Atom  22O    basis set group =>   2
Atom  23C    basis set group =>   1
Atom  24C    basis set group =>   1
Atom  25C    basis set group =>   1
Atom  26C    basis set group =>   1
Atom  27O    basis set group =>   2
Atom  28C    basis set group =>   1
Atom  29C    basis set group =>   1
Atom  30C    basis set group =>   1
Atom  31C    basis set group =>   1
Atom  32C    basis set group =>   1
Atom  33C    basis set group =>   1
Atom  34C    basis set group =>   1
Atom  35C    basis set group =>   1
Atom  36O    basis set group =>   2
Atom  37O    basis set group =>   2
Atom  38O    basis set group =>   2
Atom  39O    basis set group =>   2
Atom  40O    basis set group =>   2
Atom  41C    basis set group =>   1
Atom  42H    basis set group =>   3
Atom  43H    basis set group =>   3
Atom  44H    basis set group =>   3
Atom  45H    basis set group =>   3
Atom  46H    basis set group =>   3
Atom  47H    basis set group =>   3
Atom  48H    basis set group =>   3
Atom  49H    basis set group =>   3
Atom  50H    basis set group =>   3
Atom  51H    basis set group =>   3
Atom  52H    basis set group =>   3
Atom  53H    basis set group =>   3
Atom  54H    basis set group =>   3
Atom  55H    basis set group =>   3
Atom  56H    basis set group =>   3
Atom  57H    basis set group =>   3
Atom  58H    basis set group =>   3
Atom  59H    basis set group =>   3
Atom  60H    basis set group =>   3
Atom  61H    basis set group =>   3
Atom  62H    basis set group =>   3
Atom  63H    basis set group =>   3
Atom  64H    basis set group =>   3
Atom  65H    basis set group =>   3
Atom  66H    basis set group =>   3
Atom  67H    basis set group =>   3
Atom  68H    basis set group =>   3
Atom  69H    basis set group =>   3
Atom  70H    basis set group =>   3
Atom  71H    basis set group =>   3
Atom  72H    basis set group =>   3
Atom  73H    basis set group =>   3
Atom  74H    basis set group =>   3
Atom  75H    basis set group =>   3
Atom  76H    basis set group =>   3
Atom  77H    basis set group =>   3
Atom  78H    basis set group =>   3
Atom  79H    basis set group =>   3
Atom  80H    basis set group =>   3
Atom  81H    basis set group =>   3
----------------------------------
AUXILIARY/JK BASIS SET INFORMATION
----------------------------------
There are 3 groups of distinct atoms

 Group   1 Type C   : 15s13p12d5f5g contracted to 15s13p12d5f5g pattern {111111111111111/1111111111111/111111111111/11111/11111}
 Group   2 Type O   : 15s13p12d5f5g contracted to 15s13p12d5f5g pattern {111111111111111/1111111111111/111111111111/11111/11111}
 Group   3 Type H   : 12s4p3d2f contracted to 12s4p3d2f pattern {111111111111/1111/111/11}

Atom   0C    basis set group =>   1
Atom   1C    basis set group =>   1
Atom   2C    basis set group =>   1
Atom   3C    basis set group =>   1
Atom   4C    basis set group =>   1
Atom   5C    basis set group =>   1
Atom   6C    basis set group =>   1
Atom   7C    basis set group =>   1
Atom   8C    basis set group =>   1
Atom   9C    basis set group =>   1
Atom  10C    basis set group =>   1
Atom  11C    basis set group =>   1
Atom  12C    basis set group =>   1
Atom  13C    basis set group =>   1
Atom  14C    basis set group =>   1
Atom  15C    basis set group =>   1
Atom  16C    basis set group =>   1
Atom  17C    basis set group =>   1
Atom  18O    basis set group =>   2
Atom  19O    basis set group =>   2
Atom  20O    basis set group =>   2
Atom  21O    basis set group =>   2
Atom  22O    basis set group =>   2
Atom  23C    basis set group =>   1
Atom  24C    basis set group =>   1
Atom  25C    basis set group =>   1
Atom  26C    basis set group =>   1
Atom  27O    basis set group =>   2
Atom  28C    basis set group =>   1
Atom  29C    basis set group =>   1
Atom  30C    basis set group =>   1
Atom  31C    basis set group =>   1
Atom  32C    basis set group =>   1
Atom  33C    basis set group =>   1
Atom  34C    basis set group =>   1
Atom  35C    basis set group =>   1
Atom  36O    basis set group =>   2
Atom  37O    basis set group =>   2
Atom  38O    basis set group =>   2
Atom  39O    basis set group =>   2
Atom  40O    basis set group =>   2
Atom  41C    basis set group =>   1
Atom  42H    basis set group =>   3
Atom  43H    basis set group =>   3
Atom  44H    basis set group =>   3
Atom  45H    basis set group =>   3
Atom  46H    basis set group =>   3
Atom  47H    basis set group =>   3
Atom  48H    basis set group =>   3
Atom  49H    basis set group =>   3
Atom  50H    basis set group =>   3
Atom  51H    basis set group =>   3
Atom  52H    basis set group =>   3
Atom  53H    basis set group =>   3
Atom  54H    basis set group =>   3
Atom  55H    basis set group =>   3
Atom  56H    basis set group =>   3
Atom  57H    basis set group =>   3
Atom  58H    basis set group =>   3
Atom  59H    basis set group =>   3
Atom  60H    basis set group =>   3
Atom  61H    basis set group =>   3
Atom  62H    basis set group =>   3
Atom  63H    basis set group =>   3
Atom  64H    basis set group =>   3
Atom  65H    basis set group =>   3
Atom  66H    basis set group =>   3
Atom  67H    basis set group =>   3
Atom  68H    basis set group =>   3
Atom  69H    basis set group =>   3
Atom  70H    basis set group =>   3
Atom  71H    basis set group =>   3
Atom  72H    basis set group =>   3
Atom  73H    basis set group =>   3
Atom  74H    basis set group =>   3
Atom  75H    basis set group =>   3
Atom  76H    basis set group =>   3
Atom  77H    basis set group =>   3
Atom  78H    basis set group =>   3
Atom  79H    basis set group =>   3
Atom  80H    basis set group =>   3
Atom  81H    basis set group =>   3
---------------------------------
AUXILIARY/X BASIS SET INFORMATION
---------------------------------
There are 3 groups of distinct atoms

 Group   1 Type C   : 15s13p12d5f5g contracted to 15s13p12d5f5g pattern {111111111111111/1111111111111/111111111111/11111/11111}
 Group   2 Type O   : 15s13p12d5f5g contracted to 15s13p12d5f5g pattern {111111111111111/1111111111111/111111111111/11111/11111}
 Group   3 Type H   : 12s4p3d2f contracted to 12s4p3d2f pattern {111111111111/1111/111/11}

Atom   0C    basis set group =>   1
Atom   1C    basis set group =>   1
Atom   2C    basis set group =>   1
Atom   3C    basis set group =>   1
Atom   4C    basis set group =>   1
Atom   5C    basis set group =>   1
Atom   6C    basis set group =>   1
Atom   7C    basis set group =>   1
Atom   8C    basis set group =>   1
Atom   9C    basis set group =>   1
Atom  10C    basis set group =>   1
Atom  11C    basis set group =>   1
Atom  12C    basis set group =>   1
Atom  13C    basis set group =>   1
Atom  14C    basis set group =>   1
Atom  15C    basis set group =>   1
Atom  16C    basis set group =>   1
Atom  17C    basis set group =>   1
Atom  18O    basis set group =>   2
Atom  19O    basis set group =>   2
Atom  20O    basis set group =>   2
Atom  21O    basis set group =>   2
Atom  22O    basis set group =>   2
Atom  23C    basis set group =>   1
Atom  24C    basis set group =>   1
Atom  25C    basis set group =>   1
Atom  26C    basis set group =>   1
Atom  27O    basis set group =>   2
Atom  28C    basis set group =>   1
Atom  29C    basis set group =>   1
Atom  30C    basis set group =>   1
Atom  31C    basis set group =>   1
Atom  32C    basis set group =>   1
Atom  33C    basis set group =>   1
Atom  34C    basis set group =>   1
Atom  35C    basis set group =>   1
Atom  36O    basis set group =>   2
Atom  37O    basis set group =>   2
Atom  38O    basis set group =>   2
Atom  39O    basis set group =>   2
Atom  40O    basis set group =>   2
Atom  41C    basis set group =>   1
Atom  42H    basis set group =>   3
Atom  43H    basis set group =>   3
Atom  44H    basis set group =>   3
Atom  45H    basis set group =>   3
Atom  46H    basis set group =>   3
Atom  47H    basis set group =>   3
Atom  48H    basis set group =>   3
Atom  49H    basis set group =>   3
Atom  50H    basis set group =>   3
Atom  51H    basis set group =>   3
Atom  52H    basis set group =>   3
Atom  53H    basis set group =>   3
Atom  54H    basis set group =>   3
Atom  55H    basis set group =>   3
Atom  56H    basis set group =>   3
Atom  57H    basis set group =>   3
Atom  58H    basis set group =>   3
Atom  59H    basis set group =>   3
Atom  60H    basis set group =>   3
Atom  61H    basis set group =>   3
Atom  62H    basis set group =>   3
Atom  63H    basis set group =>   3
Atom  64H    basis set group =>   3
Atom  65H    basis set group =>   3
Atom  66H    basis set group =>   3
Atom  67H    basis set group =>   3
Atom  68H    basis set group =>   3
Atom  69H    basis set group =>   3
Atom  70H    basis set group =>   3
Atom  71H    basis set group =>   3
Atom  72H    basis set group =>   3
Atom  73H    basis set group =>   3
Atom  74H    basis set group =>   3
Atom  75H    basis set group =>   3
Atom  76H    basis set group =>   3
Atom  77H    basis set group =>   3
Atom  78H    basis set group =>   3
Atom  79H    basis set group =>   3
Atom  80H    basis set group =>   3
Atom  81H    basis set group =>   3
--------------------------------------------------------------------------
WARNING: There was an error initializing an OpenFabrics device.

  Local host:   c03b01n02
  Local device: mlx5_0
--------------------------------------------------------------------------
--------------------------------------------------------------------------
WARNING: There is at least one non-excluded one OpenFabrics device found,
but there are no active ports detected (or Open MPI was unable to use
them).  This is most certainly not what you wanted.  Check your
cables, subnet manager configuration, etc.  The openib BTL will be
ignored for this job.

  Local host: c03b01n02
--------------------------------------------------------------------------
[c03b01n02:3025141] [[36443,0],0] ORTE_ERROR_LOG: Data unpack would read past end of buffer in file util/show_help.c at line 501
[c03b01n02:3025141] 47 more processes have sent help message help-mpi-btl-openib.txt / error in device init
[c03b01n02:3025141] Set MCA parameter "orte_base_help_aggregate" to 0 to see all help / error messages
[c03b01n02:3025141] 10 more processes have sent help message help-mpi-btl-openib.txt / no active ports found


           ************************************************************
           *        Program running with 60 parallel MPI-processes    *
           *              working on a common directory               *
           ************************************************************
------------------------------------------------------------------------------
                             ORCA STARTUP CALCULATIONS
                           -- RI-GTO INTEGRALS CHOSEN --
------------------------------------------------------------------------------
------------------------------------------------------------------------------
                   ___                                                        
                  /   \      - P O W E R E D   B Y -                         
                 /     \                                                     
                 |  |  |   _    _      __       _____    __    __             
                 |  |  |  | |  | |    /  \     |  _  \  |  |  /  |          
                  \  \/   | |  | |   /    \    | | | |  |  | /  /          
                 / \  \   | |__| |  /  /\  \   | |_| |  |  |/  /          
                |  |  |   |  __  | /  /__\  \  |    /   |      \           
                |  |  |   | |  | | |   __   |  |    \   |  |\   \          
                \     /   | |  | | |  |  |  |  | |\  \  |  | \   \       
                 \___/    |_|  |_| |__|  |__|  |_| \__\ |__|  \__/        
                                                                              
                      - O R C A' S   B I G   F R I E N D -                    
                                      &                                       
                       - I N T E G R A L  F E E D E R -                       
                                                                              
 v1 FN, 2020, v2 2021, v3 2022-2024                                           
------------------------------------------------------------------------------


----------------------
SHARK INTEGRAL PACKAGE
----------------------

Number of atoms                             ...     82
Number of basis functions                   ...   2072
Number of shells                            ...    744
Maximum angular momentum                    ...      3
Integral batch strategy                     ... SHARK/LIBINT Hybrid
RI-J (if used) integral strategy            ... SPLIT-RIJ (Revised 2003 algorithm where possible)
Printlevel                                  ...      1
Contraction scheme used                     ... SEGMENTED contraction
Prescreening option                         ... SCHWARTZ
   Thresh                                   ... 1.000e-10
   Tcut                                     ... 1.000e-11
   Tpresel                                  ... 1.000e-11 
Coulomb Range Separation                    ... NOT USED
Exchange Range Separation                   ... NOT USED
Multipole approximations                    ... NOT USED
Finite Nucleus Model                        ... NOT USED
CABS basis                                  ... NOT available
Auxiliary Coulomb fitting basis             ... AVAILABLE
   # of basis functions in Aux-J            ...  10268
   # of shells in Aux-J                     ...   2940
   Maximum angular momentum in Aux-J        ...      4
Auxiliary J/K fitting basis                 ... AVAILABLE
   # of basis functions in Aux-JK           ...  10268
   # of shells in Aux-JK                    ...   2940
   Maximum angular momentum in Aux-JK       ...      4
Auxiliary Correlation fitting basis         ... AVAILABLE
   # of basis functions in Aux-C            ...  10268
   # of shells in Aux-C                     ...   2940
   Maximum angular momentum in Aux-C        ...      4
Auxiliary 'external' fitting basis          ... NOT available

Checking pre-screening integrals            ... done (  0.0 sec) Dimension = 744
   => SHARK Basis and OBASIS are compatible. Storing Pre-screening
Shell pair information
Shell pair cut-off parameter TPreSel        ...   1.0e-11
Total number of shell pairs                 ...    277140
Shell pairs after pre-screening             ...    154084
Total number of primitive shell pairs       ...    823733
Primitive shell pairs kept                  ...    282414
          la=0 lb=0:  29327 shell pairs
          la=1 lb=0:  51230 shell pairs
          la=1 lb=1:  20859 shell pairs
          la=2 lb=0:  20218 shell pairs
          la=2 lb=1:  15253 shell pairs
          la=2 lb=2:   2722 shell pairs
          la=3 lb=0:   6969 shell pairs
          la=3 lb=1:   5255 shell pairs
          la=3 lb=2:   1881 shell pairs
          la=3 lb=3:    370 shell pairs

Checking whether 4 symmetric matrices of dimension 2072 fit in memory
:Max Core in MB      =   5000.00
 MB in use           =    190.12
 MB left             =   4809.88
 MB needed           =     65.54
 Data fit in memory  = YES
Calculating RI/J V-Matrix + Cholesky decomp.... done (  7.9 sec)
Calculating RI/JK V-Matrix + Cholesky decomp.... done (  4.0 sec)
Calculating RI/C V-Matrix + Cholesky decomp.... done (  4.0 sec)
Calculating Nuclear repulsion               ... done (  0.0 sec) ENN=   5793.105528851743 Eh

Diagonalization of the overlap matrix:
Smallest eigenvalue                        ... 6.149e-06
Time for diagonalization                   ...    9.124 sec
Threshold for overlap eigenvalues          ... 1.000e-07
Number of eigenvalues below threshold      ... 0
Time for construction of square roots      ...    0.335 sec
Total time needed                          ...    9.623 sec

-------------------
DFT GRID GENERATION
-------------------

General Integration Accuracy     IntAcc      ... 4.388
Radial Grid Type                 RadialGrid  ... OptM3 with GC (2021)
Angular Grid (max. ang.)         AngularGrid ... 4 (Lebedev-302)
Angular grid pruning method      GridPruning ... 4 (adaptive)
Weight generation scheme         WeightScheme... mBecke (2022)
Basis function cutoff            BFCut       ... 1.0000e-10
Integration weight cutoff        WCut        ... 1.0000e-14
Partially contracted basis set               ... off
Rotationally invariant grid construction     ... off
Angular grids for H and He will be reduced by one unit
Diffuse basis detected: some atoms will have their outermost
                        angular grid increased by 1.

Total number of grid points                  ...   376717
Total number of batches                      ...     5931
Average number of points per batch           ...       63
Average number of grid points per atom       ...     4594
Grids setup in   3.2 sec
Initializing property integral containers    ... done (  0.4 sec)

SHARK setup successfully completed in  44.7 seconds

Maximum memory used throughout the entire STARTUP-calculation: 262.2 MB
--------------------------------------------------------------------------
WARNING: There was an error initializing an OpenFabrics device.

  Local host:   c03b01n02
  Local device: mlx5_0
--------------------------------------------------------------------------
--------------------------------------------------------------------------
WARNING: There is at least one non-excluded one OpenFabrics device found,
but there are no active ports detected (or Open MPI was unable to use
them).  This is most certainly not what you wanted.  Check your
cables, subnet manager configuration, etc.  The openib BTL will be
ignored for this job.

  Local host: c03b01n02
--------------------------------------------------------------------------


           ************************************************************
           *        Program running with 60 parallel MPI-processes    *
           *              working on a common directory               *
           ************************************************************
-------------------------------------------------------------------------------
                                 ORCA GUESS
                   Start orbitals & Density for SCF / CASSCF
-------------------------------------------------------------------------------

------------
SCF SETTINGS
------------
Hamiltonian:
 Density Functional     Method          .... DFT(GTOs)
 Exchange Functional    Exchange        .... TPSS
 Correlation Functional Correlation     .... TPSS
 LDA part of GGA corr.  LDAOpt          .... PW91-LDA
 Gradients option       PostSCFGGA      .... off
   NL short-range parameter             ....  5.000000
 RI-approximation to the Coulomb term is turned on
   Number of AuxJ basis functions       .... 10268


General Settings:
 Integral files         IntName         .... nmr-conf-10
 Hartree-Fock type      HFTyp           .... RHF
 Total Charge           Charge          ....    0
 Multiplicity           Mult            ....    1
 Number of Electrons    NEL             ....  314
 Basis Dimension        Dim             .... 2072
 Nuclear Repulsion      ENuc            ....   5793.1055288517 Eh

Convergence Acceleration:
 AO-DIIS                CNVDIIS         .... on
   Start iteration      DIISMaxIt       ....    12
   Startup error        DIISStart       ....  0.200000
   # of expansion vecs  DIISMaxEq       ....     5
   Bias factor          DIISBfac        ....   1.050
   Max. coefficient     DIISMaxC        ....  10.000
 MO-DIIS                CNVKDIIS        .... off
 Trust-Rad. Augm. Hess. CNVTRAH         .... auto
   Auto Start mean grad. ratio tolernc. ....  1.125000
   Auto Start start iteration           ....    50
   Auto Start num. interpolation iter.  ....    10
   Max. Number of Micro iterations      ....    24
   Max. Number of Macro iterations      .... Maxiter - #DIIS iter
   Number of Davidson start vectors     ....     2
   Converg. threshold    (grad. norm)   ....   5.000e-05
   Grad. Scal. Fac. for Micro threshold ....   0.100
   Minimum threshold for Micro iter.    ....   1.000e-02
   NR start threshold (gradient norm)   ....   1.000e-04
   Initial trust radius                 ....   0.400
   Minimum AH scaling param. (alpha)    ....   1.000
   Maximum AH scaling param. (alpha)    .... 1000.000
   Quad. conv. algorithm                .... NR
   White noise on init. David. guess    .... on
   Maximum white noise                  ....   0.010
   Pseudo random numbers                .... off
   Inactive MOs                         .... canonical
   Orbital update algorithm             .... Taylor
   Preconditioner                       .... Diag
   Full preconditioner red. dimension   ....   250
 SOSCF                 CNVSOSCF           .... on
   Start iteration     SOSCFMaxIt         ....   150
   Startup grad/error  SOSCFStart         ....  0.003300
   Hessian update      SOSCFHessUp        .... L-BFGS
   Autom. constraints  SOSCFAutoConstrain .... off
 Level Shifting         CNVShift        .... on
   Level shift para.    LevelShift      ....    0.2500
   Turn off err/grad.   ShiftErr        ....    0.0010
 Zerner damping         CNVZerner       .... off
 Static damping         CNVDamp         .... on
   Fraction old density DampFac         ....    0.7000
   Max. Damping (<1)    DampMax         ....    0.9800
   Min. Damping (>=0)   DampMin         ....    0.0000
   Turn off err/grad.   DampErr         ....    0.1000

SCF Procedure:
 Maximum # iterations   MaxIter         ....   125
 SCF integral mode      SCFMode         .... Direct
   Integral package                     .... SHARK and LIBINT hybrid scheme
 Reset frequency        DirectResetFreq ....    20
 Integral Threshold     Thresh          ....  1.000e-10 Eh
 Primitive CutOff       TCut            ....  1.000e-11 Eh

Convergence Tolerance:
 Convergence Check Mode ConvCheckMode   .... Total+1el-Energy
 Convergence forced     ConvForced      .... 0
 Energy Change          TolE            ....  1.000e-06 Eh
 1-El. energy change                    ....  1.000e-03 Eh
 Orbital Gradient       TolG            ....  5.000e-05
 Orbital Rotation angle TolX            ....  5.000e-05
 DIIS Error             TolErr          ....  1.000e-06

------------------------------
INITIAL GUESS: MODEL POTENTIAL
------------------------------
Loading Hartree-Fock densities                     ... done
Calculating cut-offs                               ... done
Initializing the effective Hamiltonian             ... done
Setting up the integral package (SHARK)            ... done
Starting the Coulomb interaction                   ... [c03b01n02:3025598] 55 more processes have sent help message help-mpi-btl-openib.txt / error in device init
[c03b01n02:3025598] Set MCA parameter "orte_base_help_aggregate" to 0 to see all help / error messages
[c03b01n02:3025598] 3 more processes have sent help message help-mpi-btl-openib.txt / no active ports found
done (   3.6 sec)
Making the grid                                    ... done (   0.6 sec)
Mapping shells                                     ... done
Starting the XC term evaluation                    ... done (   0.6 sec)
  promolecular density results
     # of electrons  =    313.979723494
     EX              =   -260.292218139
     EC              =    -10.638791756
     EX+EC           =   -270.931009895
Transforming the Hamiltonian                       ... done (   0.3 sec)
Diagonalizing the Hamiltonian                      ... done (   0.6 sec)
Back transforming the eigenvectors                 ... done (   0.4 sec)
Now organizing SCF variables                       ... done
                      ------------------
                      INITIAL GUESS DONE (   7.6 sec)
                      ------------------
             **** ENERGY FILE WAS UPDATED (nmr-conf-10.en.tmp) ****
Finished Guess after  18.1 sec
Maximum memory used throughout the entire GUESS-calculation: 294.9 MB
--------------------------------------------------------------------------
WARNING: There was an error initializing an OpenFabrics device.

  Local host:   c03b01n02
  Local device: mlx5_0
--------------------------------------------------------------------------
--------------------------------------------------------------------------
WARNING: There is at least one non-excluded one OpenFabrics device found,
but there are no active ports detected (or Open MPI was unable to use
them).  This is most certainly not what you wanted.  Check your
cables, subnet manager configuration, etc.  The openib BTL will be
ignored for this job.

  Local host: c03b01n02
--------------------------------------------------------------------------


           ************************************************************
           *        Program running with 60 parallel MPI-processes    *
           *              working on a common directory               *
           ************************************************************

-------------------------------------------------------------------------------------------
                                      ORCA LEAN-SCF
                              memory conserving SCF solver
-------------------------------------------------------------------------------------------

--------------------
CPCM SOLVATION MODEL
--------------------
CPCM parameters:
  Epsilon                                         ...      33.4280
  Refrac                                          ...       1.3288
  Rsolv                                           ...       1.3000
  Surface type                                    ... GAUSSIAN VDW
  Discretization scheme                           ... Constant charge density
    Threshold for H atoms                         ...       5.0000 (charges/Ang^2)
    Threshold for non-H atoms                     ...       5.0000 (charges/Ang^2)
  Epsilon function type                           ...         CPCM
Solvent:                                          ... METHANOL
Radii:
  Scheme                                          ... Element-dependent radii
  Radius for C  used is    3.8550 Bohr (=   2.0400 Ang.)
  Radius for O  used is    3.4469 Bohr (=   1.8240 Ang.)
  Radius for H  used is    2.4944 Bohr (=   1.3200 Ang.)
Calculating surface                               ...        done! (  0.1s)
Cavity surface points                             ...         6107
Cavity Volume                                     ...    4553.8854
Cavity Surface-area                               ...    2028.9982
Calculating surface distance matrix               ...        done! (  0.2s)
Performing Cholesky decomposition & store         ...        done! (  0.7s)
Overall time for CPCM initialization              ...                 1.2s

[c03b01n02:3025988] 49 more processes have sent help message help-mpi-btl-openib.txt / error in device init
[c03b01n02:3025988] Set MCA parameter "orte_base_help_aggregate" to 0 to see all help / error messages
[c03b01n02:3025988] 9 more processes have sent help message help-mpi-btl-openib.txt / no active ports found
----------------------------------------D-I-I-S--------------------------------------------
Iteration    Energy (Eh)           Delta-E    RMSDP     MaxDP     DIISErr   Damp  Time(sec)
-------------------------------------------------------------------------------------------
               ***  Starting incremental Fock matrix formation  ***
    1    -2033.0103461466278532     0.00e+00  8.19e-03  2.64e-01  2.40e-01  0.700  19.7
    2    -2033.4225352940575249    -4.12e-01  6.84e-03  2.17e-01  8.48e-02  0.700  11.1
                               ***Turning on AO-DIIS***
    3    -2033.5754803098643606    -1.53e-01  2.82e-03  6.83e-02  2.44e-02  0.700  10.2
    4    -2033.6680468755321272    -9.26e-02  4.81e-03  9.56e-02  1.13e-02  0.000   7.8
    5    -2033.8735165488005805    -2.05e-01  1.42e-03  4.33e-02  4.96e-03  0.000   8.7
                              *** Initializing SOSCF ***
---------------------------------------S-O-S-C-F--------------------------------------
Iteration    Energy (Eh)           Delta-E    RMSDP     MaxDP     MaxGrad    Time(sec)
--------------------------------------------------------------------------------------
    6    -2033.8748861860567558    -1.37e-03  4.49e-04  1.21e-02  1.46e-03     9.5
               *** Restarting incremental Fock matrix formation ***
    7    -2033.8749981365281201    -1.12e-04  3.44e-04  7.97e-03  1.54e-04     9.8
    8    -2033.8749712966027801     2.68e-05  8.38e-05  2.84e-03  7.12e-04     6.9
    9    -2033.8750144132636706    -4.31e-05  7.23e-05  1.60e-03  1.34e-04    12.7
   10    -2033.8750136418220791     7.71e-07  2.48e-05  7.85e-04  1.31e-04     5.8
                 **** Energy Check signals convergence ****

               *****************************************************
               *                     SUCCESS                       *
               *           SCF CONVERGED AFTER  10 CYCLES          *
               *****************************************************

             **** ENERGY FILE WAS UPDATED (nmr-conf-10.en.tmp) ****

----------------
TOTAL SCF ENERGY
----------------

Total Energy       :      -2033.87501459953000 Eh          -55344.55281 eV

Components:
Nuclear Repulsion  :       5793.10552885174275 Eh          157638.41562 eV
Electronic Energy  :      -7826.93381150741880 Eh         -212981.69679 eV
One Electron Energy:     -14315.17352035707336 Eh         -389535.67510 eV
Two Electron Energy:       6488.23970884965456 Eh          176553.97831 eV
CPCM Dielectric    :         -0.04673194385357 Eh              -1.27164 eV

Virial components:
Potential Energy   :      -4061.11801057210505 Eh         -110508.63922 eV
Kinetic Energy     :       2027.24299597257527 Eh           55164.08641 eV
Virial Ratio       :          2.00327144730066

DFT components:
N(Alpha)           :      156.999954190253 electrons
N(Beta)            :      156.999954190253 electrons
N(Total)           :      313.999908380506 electrons
E(X)               :     -268.084865906946 Eh       
E(C)               :      -10.604395915880 Eh       
E(XC)              :     -278.689261822826 Eh       

CPCM Solvation Model Properties:
Surface-charge          :         -0.04260908565604
Corrected charge        :          0.00000000000000
Outlying charge corr.   :          0.00007889292991 Eh               0.00215 eV
Free-energy (cav+disp)  :  This term is not implemented in the current solvation scheme

---------------
SCF CONVERGENCE
---------------

  Last Energy change         ...   -7.7144e-07  Tolerance :   1.0000e-06
  Last MAX-Density change    ...    7.8459e-04  Tolerance :   1.0000e-05
  Last RMS-Density change    ...    2.4812e-05  Tolerance :   1.0000e-06
  Last DIIS Error            ...    1.4557e-03  Tolerance :   1.0000e-06
  Last Orbital Gradient      ...    1.3104e-04  Tolerance :   5.0000e-05
  Last Orbital Rotation      ...    2.5351e-04  Tolerance :   5.0000e-05


----------------
ORBITAL ENERGIES
----------------

  NO   OCC          E(Eh)            E(eV) 
   0   2.0000     -18.918352      -514.7945 
   1   2.0000     -18.917901      -514.7823 
   2   2.0000     -18.911424      -514.6060 
   3   2.0000     -18.909280      -514.5477 
   4   2.0000     -18.908359      -514.5226 
   5   2.0000     -18.907361      -514.4954 
   6   2.0000     -18.901435      -514.3342 
   7   2.0000     -18.890855      -514.0463 
   8   2.0000     -18.883920      -513.8576 
   9   2.0000     -18.876362      -513.6519 
  10   2.0000     -18.864668      -513.3337 
  11   2.0000     -10.044528      -273.3255 
  12   2.0000     -10.043977      -273.3105 
  13   2.0000     -10.042478      -273.2697 
  14   2.0000     -10.041506      -273.2433 
  15   2.0000     -10.040681      -273.2208 
  16   2.0000     -10.040032      -273.2031 
  17   2.0000     -10.039375      -273.1853 
  18   2.0000     -10.039005      -273.1752 
  19   2.0000     -10.035502      -273.0799 
  20   2.0000     -10.033925      -273.0370 
  21   2.0000     -10.031115      -272.9605 
  22   2.0000     -10.030950      -272.9560 
  23   2.0000     -10.030601      -272.9465 
  24   2.0000     -10.030484      -272.9433 
  25   2.0000     -10.028265      -272.8830 
  26   2.0000     -10.020856      -272.6813 
  27   2.0000      -9.987125      -271.7635 
  28   2.0000      -9.986463      -271.7455 
  29   2.0000      -9.986055      -271.7344 
  30   2.0000      -9.985599      -271.7219 
  31   2.0000      -9.985512      -271.7196 
  32   2.0000      -9.982859      -271.6474 
  33   2.0000      -9.982094      -271.6266 
  34   2.0000      -9.981996      -271.6239 
  35   2.0000      -9.981934      -271.6222 
  36   2.0000      -9.981692      -271.6156 
  37   2.0000      -9.981273      -271.6042 
  38   2.0000      -9.980742      -271.5898 
  39   2.0000      -9.977951      -271.5139 
  40   2.0000      -9.973097      -271.3818 
  41   2.0000      -9.972219      -271.3579 
  42   2.0000      -1.012004       -27.5380 
  43   2.0000      -1.009882       -27.4803 
  44   2.0000      -1.006511       -27.3885 
  45   2.0000      -0.995124       -27.0787 
  46   2.0000      -0.984718       -26.7956 
  47   2.0000      -0.982516       -26.7356 
  48   2.0000      -0.980579       -26.6829 
  49   2.0000      -0.961708       -26.1694 
  50   2.0000      -0.956319       -26.0228 
  51   2.0000      -0.946880       -25.7659 
  52   2.0000      -0.937504       -25.5108 
  53   2.0000      -0.796518       -21.6744 
  54   2.0000      -0.795375       -21.6433 
  55   2.0000      -0.791872       -21.5479 
  56   2.0000      -0.758091       -20.6287 
  57   2.0000      -0.733633       -19.9632 
  58   2.0000      -0.716517       -19.4974 
  59   2.0000      -0.701797       -19.0969 
  60   2.0000      -0.698206       -18.9992 
  61   2.0000      -0.696439       -18.9511 
  62   2.0000      -0.694786       -18.9061 
  63   2.0000      -0.685197       -18.6452 
  64   2.0000      -0.671008       -18.2591 
  65   2.0000      -0.650577       -17.7031 
  66   2.0000      -0.647870       -17.6294 
  67   2.0000      -0.646527       -17.5929 
  68   2.0000      -0.641843       -17.4654 
  69   2.0000      -0.617490       -16.8028 
  70   2.0000      -0.616169       -16.7668 
  71   2.0000      -0.610731       -16.6188 
  72   2.0000      -0.576746       -15.6941 
  73   2.0000      -0.566307       -15.4100 
  74   2.0000      -0.558695       -15.2029 
  75   2.0000      -0.558233       -15.1903 
  76   2.0000      -0.546545       -14.8722 
  77   2.0000      -0.542550       -14.7635 
  78   2.0000      -0.535431       -14.5698 
  79   2.0000      -0.528919       -14.3926 
  80   2.0000      -0.510811       -13.8999 
  81   2.0000      -0.509682       -13.8692 
  82   2.0000      -0.502620       -13.6770 
  83   2.0000      -0.499197       -13.5838 
  84   2.0000      -0.482407       -13.1270 
  85   2.0000      -0.477642       -12.9973 
  86   2.0000      -0.473805       -12.8929 
  87   2.0000      -0.466564       -12.6959 
  88   2.0000      -0.464098       -12.6288 
  89   2.0000      -0.460121       -12.5205 
  90   2.0000      -0.451080       -12.2745 
  91   2.0000      -0.446399       -12.1471 
  92   2.0000      -0.445700       -12.1281 
  93   2.0000      -0.441833       -12.0229 
  94   2.0000      -0.439972       -11.9723 
  95   2.0000      -0.435271       -11.8443 
  96   2.0000      -0.427402       -11.6302 
  97   2.0000      -0.423650       -11.5281 
  98   2.0000      -0.420286       -11.4366 
  99   2.0000      -0.418372       -11.3845 
 100   2.0000      -0.417799       -11.3689 
 101   2.0000      -0.410590       -11.1727 
 102   2.0000      -0.403907       -10.9909 
 103   2.0000      -0.401939       -10.9373 
 104   2.0000      -0.399688       -10.8761 
 105   2.0000      -0.397585       -10.8188 
 106   2.0000      -0.397157       -10.8072 
 107   2.0000      -0.391540       -10.6544 
 108   2.0000      -0.383548       -10.4369 
 109   2.0000      -0.382230       -10.4010 
 110   2.0000      -0.381815       -10.3897 
 111   2.0000      -0.380184       -10.3453 
 112   2.0000      -0.376536       -10.2461 
 113   2.0000      -0.375106       -10.2071 
 114   2.0000      -0.372438       -10.1346 
[...]
  X           0.1291286   -0.7937411   -0.5943911
  Y           0.8846540   -0.1785990    0.4306852
  Z          -0.4480102   -0.5814443    0.6791240

 --------------
 Nucleus  73H :
 --------------

Diamagnetic contribution to the shielding tensor (ppm) : 
            38.696         31.747         0.866
             4.921         68.255         8.824
           -69.242         70.630       -58.654

Paramagnetic contribution to the shielding tensor (ppm): 
           -14.504        -32.572         0.487
            -3.637        -37.031       -11.758
            68.797        -71.657        87.982

Total shielding tensor (ppm): 
            24.193         -0.824         1.353
             1.284         31.224        -2.934
            -0.445         -1.027        29.327


 Diagonalized sT*s matrix:
 
 sDSO            41.835           11.466           -5.004  iso=      16.099
 sPSO           -17.702           16.679           37.470  iso=      12.149
        ---------------  ---------------  ---------------
 Total           24.133           28.145           32.466  iso=      28.248

 Orientation: 
  X           0.9927629    0.1187199   -0.0180953
  Y          -0.0800831    0.5421844   -0.8364345
  Z          -0.0894904    0.8318303    0.5477680

 --------------
 Nucleus  74H :
 --------------

Diamagnetic contribution to the shielding tensor (ppm) : 
            45.746         32.076        10.163
            17.146         44.959        12.110
           -79.260        123.628         6.559

Paramagnetic contribution to the shielding tensor (ppm): 
           -20.712        -32.353        -9.314
           -15.266        -18.758        -9.214
            79.613       -120.308        27.432

Total shielding tensor (ppm): 
            25.033         -0.278         0.849
             1.879         26.201         2.896
             0.353          3.320        33.991


 Diagonalized sT*s matrix:
 
 sDSO            -3.116           50.535           49.845  iso=      32.421
 sPSO            27.595          -24.937          -14.697  iso=      -4.013
        ---------------  ---------------  ---------------
 Total           24.479           25.599           35.148  iso=      28.409

 Orientation: 
  X           0.7350479    0.6727791    0.0841008
  Y          -0.6566127    0.6754282    0.3356433
  Z           0.1690098   -0.3019356    0.9382274

 --------------
 Nucleus  75H :
 --------------

Diamagnetic contribution to the shielding tensor (ppm) : 
            32.786       -103.460        48.873
            -5.274        -46.709        15.209
            68.837        -28.528      -121.299

Paramagnetic contribution to the shielding tensor (ppm): 
            -1.432        100.678       -42.768
             0.517         76.865       -20.746
           -59.795         22.674       149.791

Total shielding tensor (ppm): 
            31.355         -2.782         6.106
            -4.757         30.156        -5.537
             9.043         -5.854        28.492


 Diagonalized sT*s matrix:
 
 sDSO          -111.807          -68.738           45.324  iso=     -45.074
 sPSO           133.371           95.715           -3.862  iso=      75.075
        ---------------  ---------------  ---------------
 Total           21.564           26.976           41.462  iso=      30.001

 Orientation: 
  X          -0.4854874    0.5844467    0.6501723
  Y           0.3075803    0.8103363   -0.4987478
  Z           0.8183498    0.0421556    0.5731724

 --------------
 Nucleus  76H :
 --------------

Diamagnetic contribution to the shielding tensor (ppm) : 
           -16.778         35.746       -27.143
           -22.754         54.606       -23.126
            39.874        -70.381        82.694

Paramagnetic contribution to the shielding tensor (ppm): 
            42.893        -33.679        28.328
            23.817        -30.704        16.893
           -38.305         64.325       -44.315

Total shielding tensor (ppm): 
            26.115          2.067         1.185
             1.063         23.901        -6.233
             1.569         -6.056        38.379


 Diagonalized sT*s matrix:
 
 sDSO            15.641           -4.383          109.263  iso=      40.174
 sPSO             5.274           31.189          -68.589  iso=     -10.709
        ---------------  ---------------  ---------------
 Total           20.915           26.806           40.674  iso=      29.465

 Orientation: 
  X          -0.3595733    0.9313378    0.0575934
  Y           0.8708778    0.3571139   -0.3377004
  Z           0.3350805    0.0712712    0.9394900

 --------------
 Nucleus  77H :
 --------------

Diamagnetic contribution to the shielding tensor (ppm) : 
            -5.571         49.820        -6.830
           -19.219         66.187         4.597
            20.217        -37.154        51.163

Paramagnetic contribution to the shielding tensor (ppm): 
            26.542        -50.961        -1.738
            17.707        -40.431         1.510
           -28.893         44.549       -16.815

Total shielding tensor (ppm): 
            20.971         -1.140        -8.569
            -1.513         25.756         6.107
            -8.676          7.395        34.349


 Diagonalized sT*s matrix:
 
 sDSO            15.003           71.230           25.546  iso=      37.260
 sPSO             1.321          -47.893           15.868  iso=     -10.234
        ---------------  ---------------  ---------------
 Total           16.324           23.337           41.414  iso=      27.025

 Orientation: 
  X          -0.8425521    0.3806817   -0.3810347
  Y           0.2205750    0.8892623    0.4006984
  Z          -0.4913783   -0.2535626    0.8332187

 --------------
 Nucleus  78H :
 --------------

Diamagnetic contribution to the shielding tensor (ppm) : 
           -26.015        -15.567       -31.399
           -35.887         30.063        -5.613
            93.653        -42.858        69.456

Paramagnetic contribution to the shielding tensor (ppm): 
            48.061         14.051        24.091
            35.894         -0.533         8.700
          -101.017         46.402       -43.952

Total shielding tensor (ppm): 
            22.046         -1.516        -7.309
             0.008         29.530         3.087
            -7.364          3.544        25.503


 Diagonalized sT*s matrix:
 
 sDSO            52.265            8.914           12.324  iso=      24.501
 sPSO           -36.194           18.435           21.335  iso=       1.192
        ---------------  ---------------  ---------------
 Total           16.071           27.349           33.659  iso=      25.693

 Orientation: 
  X          -0.7616305   -0.4715995   -0.4444242
  Y           0.1231221   -0.7786492    0.6152613
  Z          -0.6362075    0.4138833    0.6511073

 --------------
 Nucleus  79H :
 --------------

Diamagnetic contribution to the shielding tensor (ppm) : 
            33.540        -11.415         1.498
             6.771         22.432        20.109
            90.114        -73.474        95.403

Paramagnetic contribution to the shielding tensor (ppm): 
            -8.297         10.732        -3.574
            -8.958          5.947       -16.673
           -93.120         76.254       -65.695

Total shielding tensor (ppm): 
            25.243         -0.684        -2.077
            -2.187         28.379         3.436
            -3.006          2.780        29.708


 Diagonalized sT*s matrix:
 
 sDSO            78.549           54.146           18.680  iso=      50.458
 sPSO           -54.455          -28.167           14.577  iso=     -22.682
        ---------------  ---------------  ---------------
 Total           24.094           25.978           33.257  iso=      27.776

 Orientation: 
  X           0.9087643    0.2231761   -0.3526185
  Y           0.0172084    0.8242205    0.5660075
  Z           0.4169547   -0.5204354    0.7451817

 --------------
 Nucleus  80H :
 --------------

Diamagnetic contribution to the shielding tensor (ppm) : 
            46.688        -66.699        46.337
            21.152        -28.234        38.076
           116.855        -89.383        48.774

Paramagnetic contribution to the shielding tensor (ppm): 
           -20.022         69.202       -44.044
           -17.295         56.220       -36.017
          -114.408         93.270       -19.205

Total shielding tensor (ppm): 
            26.667          2.503         2.294
             3.857         27.986         2.059
             2.448          3.887        29.570


 Diagonalized sT*s matrix:
 
 sDSO            41.618          -14.110           39.721  iso=      22.410
 sPSO           -17.539           40.347           -5.815  iso=       5.664
        ---------------  ---------------  ---------------
 Total           24.079           26.238           33.906  iso=      28.074

 Orientation: 
  X           0.7630642    0.4334351    0.4794444
  Y          -0.6458881    0.4841846    0.5902489
  Z           0.0236950   -0.7600653    0.6494146

 --------------
 Nucleus  81H :
 --------------

Diamagnetic contribution to the shielding tensor (ppm) : 
            49.457        -22.921        34.707
            15.389         30.269        28.788
            96.675        -59.568       116.220

Paramagnetic contribution to the shielding tensor (ppm): 
           -25.164         21.009       -33.265
           -16.553         -0.523       -33.410
           -95.265         58.772       -85.344

Total shielding tensor (ppm): 
            24.293         -1.913         1.443
            -1.164         29.746        -4.622
             1.410         -0.796        30.876


 Diagonalized sT*s matrix:
 
 sDSO            33.138           43.987          118.822  iso=      65.315
 sPSO            -9.332          -16.417          -85.282  iso=     -37.010
        ---------------  ---------------  ---------------
 Total           23.806           27.570           33.540  iso=      28.305

 Orientation: 
  X           0.9747551   -0.0665587    0.2131255
  Y           0.1846548    0.7769217   -0.6019097
  Z          -0.1255195    0.6260691    0.7695988



--------------------------------
CHEMICAL SHIELDING SUMMARY (ppm)
--------------------------------


  Nucleus  Element    Isotropic     Anisotropy
  -------  -------  ------------   ------------
      0       C           26.970        127.635 
      1       C           45.658         98.435 
      2       C           25.508        124.787 
      3       C           77.523        141.153 
      4       C           42.349        194.890 
      5       C           74.885        132.640 
      6       C          139.948         22.821 
      7       C          134.248         16.254 
      8       C          136.402         23.564 
      9       C          142.566         27.027 
     10       C           44.585        184.894 
     11       C           69.555        156.543 
     12       C           30.181        121.522 
     13       C           32.821        123.879 
     14       C           67.978        141.036 
     15       C           57.842        146.874 
     16       C          112.248         66.194 
     17       C          109.313         66.721 
     23       C           95.321         45.657 
     24       C           98.719         33.567 
     25       C           46.510        177.934 
     26       C          110.728         59.672 
     28       C           71.570        166.677 
     29       C           31.943        120.501 
     30       C           29.841        127.514 
     31       C           69.273        142.940 
     32       C           56.516        154.622 
     33       C          124.632         75.022 
     34       C          125.409         75.667 
     35       C          124.262         74.537 
     41       C          124.323         75.427 
     42       H           26.175          7.416 
     43       H           25.810          8.881 
     44       H           29.138          6.027 
     45       H           29.275          4.205 
     46       H           30.181          7.186 
     47       H           29.850          8.778 
     48       H           29.917          7.410 
     49       H           29.485          7.329 
     50       H           25.825          8.138 
     51       H           24.888          4.126 
     52       H           25.205          6.187 
     53       H           27.611          7.153 
     54       H           27.476          6.262 
     55       H           27.735          5.633 
     56       H           28.114          5.752 
     57       H           25.894         13.058 
     58       H           26.220          4.685 
     59       H           27.204          2.921 
     60       H           27.400          5.729 
     61       H           27.683          7.065 
     62       H           28.392         20.091 
     63       H           25.113          7.993 
     64       H           24.856          2.836 
     65       H           24.840          4.910 
     66       H           28.047          9.019 
     67       H           27.819          9.504 
     68       H           28.449          6.106 
     69       H           28.200          8.335 
     70       H           27.661          8.360 
     71       H           28.437          6.359 
     72       H           27.709          7.183 
     73       H           28.248          6.326 
     74       H           28.409         10.109 
     75       H           30.001         17.192 
     76       H           29.465         16.814 
     77       H           27.025         21.584 
     78       H           25.693         11.949 
     79       H           27.776          8.221 
     80       H           28.074          8.747 
     81       H           28.305          7.852 


NMR shielding tensor and spin rotation calculation done in   2.5 sec 

Maximum memory used throughout the entire PROP-calculation: 371.1 MB
[c03b01n02:3027356] 49 more processes have sent help message help-mpi-btl-openib.txt / error in device init
[c03b01n02:3027356] Set MCA parameter "orte_base_help_aggregate" to 0 to see all help / error messages
[c03b01n02:3027356] 9 more processes have sent help message help-mpi-btl-openib.txt / no active ports found
--------------------------------------------------------------------------
WARNING: There was an error initializing an OpenFabrics device.

  Local host:   c03b01n02
  Local device: mlx5_0
--------------------------------------------------------------------------
--------------------------------------------------------------------------
WARNING: There is at least one non-excluded one OpenFabrics device found,
but there are no active ports detected (or Open MPI was unable to use
them).  This is most certainly not what you wanted.  Check your
cables, subnet manager configuration, etc.  The openib BTL will be
ignored for this job.

  Local host: c03b01n02
--------------------------------------------------------------------------
[c03b01n02:3027807] 47 more processes have sent help message help-mpi-btl-openib.txt / error in device init
[c03b01n02:3027807] Set MCA parameter "orte_base_help_aggregate" to 0 to see all help / error messages
[c03b01n02:3027807] 11 more processes have sent help message help-mpi-btl-openib.txt / no active ports found

--------------------------------
SUGGESTED CITATIONS FOR THIS RUN
--------------------------------

Below you find a list of papers that are relevant to this ORCA run
We neither can nor want to force you to cite these papers, but we appreciate if you do
You receive ORCA, which is the product of decades of hard work by many enthusiastic individuals, for free
The only thing we kindly ask in return is that you cite our papers,
We deeply appreciate it, if you show your appreciation for ORCA by not just citing the generic ORCA reference.

Please note that relegating all ORCA citations to the supporting information does *not* help us.
SI sections are not indexed - citations you put there will not count into any citation statistics
But we need these citations in order to attract the funding resources that allow us to do what we are doing

Therefore, if you are a happy ORCA user, please consider citing a few of the papers listed below in the main body of your paper

In addition to the list printed below, the program has created the file nmr-conf-10.bibtex that contains the list in bibtex format
You can import this file easily into all common literature databanks and citation aid programs


List of essential papers. We consider these as the minimum necessary citations

  1. Neese, F.
     Software update: the ORCA program system, version 6.0
     WIRES Comput. Molec. Sci. 2025 15(1), e70019
     doi.org/10.1002/wcms.7019

List of papers to cite with high priority. The work reported in these papers was absolutely
necessary for this run to complete.
Our perspective: the developers of density functionals and basis sets usually get cited in chemistry papers
Good! But without the algorithms to do something with them, the functionals or basis sets would not do anything.
Hence, in our opinion, the algorithm design and method developments papers are equally worthy of getting cited

  1. Neese, F.
     An improvement of the resolution of the identity approximation for the formation of the Coulomb matrix
     J. Comp. Chem. 2003 24(14), 1740-1747
     doi.org/10.1002/jcc.10318
  2. Stoychev, G.L.; Auer, A.A.; Neese, F.
     Automatic Generation of Auxiliary Basis Sets
     J. Theo. Comp. Chem. 2017 13 , 554-562
     doi.org/10.1021/acs.jctc.6b01041
  3. Stoychev, G.L.; Auer, A.A.; Izsak, R.; Neese, F.
     Self-Consistent Field Calculation of Nuclear Magnetic Resonance Chemical Shielding Constants Using Gauge-Including Atomic Orbitals and Approximate Two-Electron Integrals
     J. Chem. Theory Comput. 2018 14(2), 619-637
     doi.org/10.1021/acs.jctc.7b01006
  4. Garcia-Rates, M.; Neese, F.
     Effect of the Solute Cavity on the Solvation Energy and its Derivatives within the Framework of the Gaussian Charge Scheme
     J. Comput. Chem. 2020 41 , 922-939
     doi.org/10.1002/jcc.26139
  5. Neese, F.
     The SHARK Integral Generation and Digestion System
     J. Comp. Chem. 2022 44(3), 381
     doi.org/10.1002/jcc.26942

List of suggested additional citations. These are papers that are important in the 'surrounding' of 
of this run, or papers that preceded the highly important papers. If you like your results we are grateful for a citation.

  1. Neese, F.
     The ORCA program system
     WIRES Comput. Molec. Sci. 2012 2(1), 73-78
     doi.org/10.1002/wcms.81
  2. Neese, F.
     Software update: the ORCA program system, version 4.0
     WIRES Comput. Molec. Sci. 2018 8(1), 1-6
     doi.org/10.1002/wcms.1327
  3. Neese, F.; Wennmohs, F.; Becker, U.; Riplinger, C.
     The ORCA quantum chemistry program package
     J. Chem. Phys. 2020 152(22), 224108
     doi.org/10.1063/5.0004608
  4. Neese, F.
     Software update: The ORCA program system—Version 5.0
     WIRES Comput. Molec. Sci. 2022 12(1), e1606
     doi.org/10.1002/wcms.1606

List of optional additional citations

  1. Neese, F.
     Approximate second-order SCF convergence for spin unrestricted wavefunctions
     Chem. Phys. Lett. 2000 325(1-3), 93-98
     doi.org/10.1016/s0009-2614(00)00662-x

Timings for individual modules:

Sum of individual times          ...      364.944 sec (=   6.082 min)
Startup calculation              ...      103.191 sec (=   1.720 min)  28.3 %
SCF iterations                   ...      139.362 sec (=   2.323 min)  38.2 %
Property integrals               ...       98.458 sec (=   1.641 min)  27.0 %
SCF Response                     ...       16.028 sec (=   0.267 min)   4.4 %
Property calculations            ...        7.905 sec (=   0.132 min)   2.2 %
                             ****ORCA TERMINATED NORMALLY****
TOTAL RUN TIME: 0 days 0 hours 6 minutes 41 seconds 551 msec
