
                                 *****************
                                 * O   R   C   A *
                                 *****************

                                            #,                                       
                                            ###                                      
                                            ####                                     
                                            #####                                    
                                            ######                                   
                                           ########,                                 
                                     ,,################,,,,,                         
                               ,,#################################,,                 
                          ,,##########################################,,             
                       ,#########################################, ''#####,          
                    ,#############################################,,   '####,        
                  ,##################################################,,,,####,       
                ,###########''''           ''''###############################       
              ,#####''   ,,,,##########,,,,          '''####'''          '####       
            ,##' ,,,,###########################,,,                        '##       
           ' ,,###''''                  '''############,,,                           
         ,,##''                                '''############,,,,        ,,,,,,###''
      ,#''                                            '''#######################'''  
     '                                                          ''''####''''         
             ,#######,   #######,   ,#######,      ##                                
            ,#'     '#,  ##    ##  ,#'     '#,    #''#        ,####,    ,#,          
            ##       ##  ##   ,#'  ##            #'  '#       #'       ,# #          
            ##       ##  #######   ##           ,######,      #####,      #          
            '#,     ,#'  ##    ##  '#,     ,#' ,#      #,     #,   #      #          
             '#######'   ##     ##  '#######'  #'      '#     '####' #    #          



                #########################################################
                #                        -***-                          #
                #          Department of theory and spectroscopy        #
                #                                                       #
                #                      Frank Neese                      #
                #                                                       #
                #     Directorship, Architecture, Infrastructure        #
                #                    SHARK, DRIVERS                     #
                #        Core code/Algorithms in most modules           #
                #                                                       #
                #        Max Planck Institute fuer Kohlenforschung      #
                #                Kaiser Wilhelm Platz 1                 #
                #                 D-45470 Muelheim/Ruhr                 #
                #                      Germany                          #
                #                                                       #
                #                  All rights reserved                  #
                #                        -***-                          #
                #########################################################


                         Program Version 6.1.0-f.0  -   RELEASE   -


 With contributions from (in alphabetic order):
[Max-Planck-Institut fuer Kohlenforschung]                               
  Daniel Aravena         : Magnetic Suceptibility                        
  Michael Atanasov       : Ab Initio Ligand Field Theory (pilot matlab implementation)
  Alexander A. Auer      : GIAO ZORA, VPT2 properties, NMR spectrum      
  Ute Becker             : All parallelization in ORCA, NUMFREQ, NUMCALC 
  Giovanni Bistoni       : ED, misc. LED, open-shell LED, HFLD           
  Dmytro Bykov           : pre 5.0 version of the SCF Hessian            
  Marcos Casanova-Páez   : Triplet and SCS-CIS(D). UHF-(DLPNO)-IP/EA/STEOM-CCSD. UHF-CVS-IP/STEOM-CCSD   
  Vijay G. Chilkuri      : MRCI spin determinant printing, contributions to CSF-ICE 
  Pauline Colinet        : FMM embedding                                 
  Dipayan Datta          : RHF DLPNO-CCSD density                        
  Achintya Kumar Dutta   : EOM-CC, STEOM-CC                              
  Nicolas Foglia         : Exact transition moments, OPA infrastructure, MCD improvements    
  Dmitry Ganyushin       : Spin-Orbit,Spin-Spin,Magnetic field MRCI      
  Miquel Garcia-Rates    : C-PCM and meta-GGA Hessian, CCSD/C-PCM, Gaussian charge scheme 
  Tiago L. C. Gouveia    : GS-ROHF, GS-ROCIS                             
  Yang Guo               : DLPNO-NEVPT2, F12-NEVPT2, CIM, IAO-localization        
  Andreas Hansen         : Spin unrestricted coupled pair/coupled cluster methods 
  Ingolf Harden          : AUTO-CI MPn and infrastructure                
  Benjamin Helmich-Paris : MC-RPA, TRAH-(SCF,CASSCF), AVAS, COSX integrals, SCF dyn. polar., MC-PDFT, srDFT 
  Lee Huntington         : MR-EOM, pCC                                   
  Robert Izsak           : Overlap fitted RIJCOSX, COSX-SCS-MP3, EOM     
  Riya Kayal             : Wick's Theorem for AUTO-CI, AUTO-CI UHF-CCSDT 
  Emily Kempfer          : AUTO-CI RHF CISDT and CCSDT, approximate NEVPT4
  Christian Kollmar      : KDIIS, OOCD, Brueckner-CCSD(T), CCSD density, CASPT2, CASPT2-K, improved NEVPT2 
  Axel Koslowski         : Symmetry handling                             
  Simone Kossmann        : meta-GGA functionals, TD-DFT gradient, OOMP2, (MP2 Hessian; deprecated post 5.0) 
  Lucas Lang             : DCDCAS, Hyperfine gauge corrections, ICE-SOC+SSC
  Marvin Lechner         : AUTO-CI (C++ implementation), FIC-MRCC        
  Spencer Leger          : CASSCF response                               
  Dagmar Lenk            : GEPOL surface, SMD, ORCA-2-JSON               
  Dimitrios Liakos       : Extrapolation schemes; Compound Job, Property file
  Dimitrios Manganas     : Further ROCIS development; embedding schemes. LFT, Crystal Embedding 
  Dimitrios Pantazis     : SARC Basis sets                               
  Anastasios Papadopoulos: AUTO-CI, single reference methods and gradients 
  Taras Petrenko         : pre 6.0 DFT Hessian and TD-DFT gradient,  ECA, NRVS 
  Petra Pikulova         : Analytic Raman intensities                    
  Peter Pinski           : DLPNO-MP2, DLPNO-MP2 Gradient                 
  Shashank Vittal Rao    : ES-AILFT, MagRelax                            
  Christoph Reimann      : Effective Core Potentials                     
  Marius Retegan         : Local ZFS, SOC                                
  Christoph Riplinger    : Optimizer, TS searches, QM/MM, DLPNO-CCSD(T), (RO)-DLPNO pert. Triples 
  Michael Roemelt        : Original ROCIS implementation, recursive CI coupling coefficients
  Masaaki Saitow         : Open-shell DLPNO-CCSD energy and density      
  Barbara Sandhoefer     : DKH picture change effects                    
  Yorick L. A. Schmerwitz: GMF and freeze-and-release deltaSCF, NEB S-IDPP initial path                    
  Kantharuban Sivalingam : CASSCF convergence/infrastructure, NEVPT2, NEVPT3, NEVPT4(SD), FIC-MRCI and CEPA variants
  Bernardo de Souza      : ESD, SOC TD-DFT                               
  Georgi L. Stoychev     : AutoAux, RI-MP2 NMR, DLPNO-MP2 response, X2C  
  Van Anh Tran           : RI-MP2 g-tensors                              
  Willem Van den Heuvel  : Paramagnetic NMR                              
  Zikuan Wang            : NOTCH, Electric field optimization            
  Frank Wennmohs         : Technical directorship and infrastructure     
  Hang Xu                : AUTO-CI-Response properties                   
                                                                         
[FACCTs GmbH]                                                            
  Markus Bursch, Nicolas Foglia, Miquel Garcia-Rates, Ingolf Harden, Hagen Neugebauer, Anastasios Papadopoulos, 
  Christoph Riplinger, Bernardo de Souza, Georgi L. Stoychev                                                    
                                                                 
  APM, various basis sets, CI-OPT, improved COSX, DLPNO-Multilevel,           
  DOCKER, DRACO, updates on ESD, Fragmentator, GOAT, IRC, LR-CPCM, L-BFGS, MBIS, meta-GGA TD-DFT gradient, ML-optimized integration grids, 
  MM, NACMEs, nearIR, NEB, NEB-TS, NL-DFT gradient (VV10), 2- and 3-layer-ONIOM, interface openCOSMO-RS, QMMM,   
  Crystal-QMMM, RESP, rigid body optimization, SF, symmetry and pop. for TD-DFT, various functionals, SOLVATOR                                   
                                                                         
[Other institutions]                                                     
  V. Asgeirsson          : NEB                                           
  Christoph Bannwarth    : sTDA-DFT, sTD-DFT, PBEh-3c, B97-3c, D3        
  Giovanni Bistoni       : ETS/NOCV, ADLD/ADEX, COVALED                  
  Martin Brehm           : Molecular dynamics                            
  Ronald Cardenas        : ETS/NOCV                                      
  Martina Colucci        : COVALED                                       
  Sebastian Ehlert       : rSCAN, r2SCAN, r2SCAN-3c, D4, dhf basis sets  
  Marvin Friede          : D4 for Fr, Ra, Ac-Lr                          
  Lars Goerigk           : TD-DFT with DH, B97 family of functionals     
  Stefan Grimme          : VdW corrections, initial TS optimization, DFT functionals, gCP, sTDA/sTD-DF 
  Waldemar Hujo          : DFT-NL                                        
  H. Jonsson             : NEB                                           
  Holger Kruse           : gCP                                           
  Marcel Mueller         : wB97X-3c, vDZP basis set                      
  Hagen Neugebauer       : wr2SCAN, Native XTB                           
  Gianluca Regni         : ADLD/ADEX                                     
  Tobias Risthaus        : pre 6.0 range-separated hybrid DFT and stability analysis
  Lukas Wittmann         : regularized MP2, r2SCAN double-hybrids, wr2SCAN        
                                                                         
We gratefully acknowledge several colleagues who have allowed us to      
interface, adapt or use parts of their codes:                            
  Ed Valeev, F. Pavosevic, A. Kumar             : LibInt (2-el integral package), F12 methods 
  Garnet Chan, S. Sharma, J. Yang, R. Olivares  : DMRG                   
  Ulf Ekstrom                                   : XCFun DFT Library      
  Mihaly Kallay                                 : mrcc  (arbitrary order and MRCC methods)
  Frank Weinhold                                : gennbo (NPA and NBO analysis)           
  Simon Mueller                                 : openCOSMO-RS                            
  Christopher J. Cramer and Donald G. Truhlar   : smd solvation model                     
  S Lehtola, MJT Oliveira, MAL Marques          : LibXC Library                           
  Liviu Ungur et al                             : ANISO software                          


 Your calculation uses the libint2 library for the computation of 2-el integrals
 For citations please refer to: http://libint.valeyev.net

 Your ORCA version has been built with support for libXC version: 7.0.0
 For citations please refer to: https://libxc.gitlab.io

 This ORCA versions uses:
   CBLAS   interface :  Fast vector & matrix operations
   LAPACKE interface :  Fast linear algebra routines
   SCALAPACK package :  Parallel linear algebra routines
   Shared memory     :  Shared parallel matrices
   BLAS/LAPACK       :  OpenBLAS 0.3.29  USE64BITINT DYNAMIC_ARCH NO_AFFINITY Cooperlake SINGLE_THREADED
        Core in use  :  Cooperlake
   Copyright (c) 2011-2014, The OpenBLAS Project


  ***********************************
  * Starting time: Tue Mar  3 21:10:37 2026
  * Host name:     c01b01n07
  * Process ID:    52869
  * Working dir.:  /lustre1/jiangy/jiangy_liuxy/NMR/B9D7C2-SSRS-NMR/opt_conf
  ***********************************

NOTE: MaxCore=5000 MB was set to SCF,MP2,MDCI,CIPSI,MRCI,RASCI and CIS
      => If you want to overwrite this, your respective input block should be placed after the MaxCore statement


***************************************
The coordinates will be read from file: opt-conf-5.xyz
***************************************



Warning: The global flag for NMR shieldings has been found
         but shieldings for certain elements have also been explicitly requested in the EPRNMR block
         ==>> only the requested shieldings will be calculated

================================================================================

----- Orbital basis set information -----
Your calculation utilizes the basis: pcSseg-2
   F. Jensen, J. Chem. Theory Comput. 11, 132 (2015).

----- AuxJ basis set information -----
Your calculation utilizes the AutoAux generation procedure.
  G. L. Stoychev, A. A. Auer, F. Neese, J. Chem. Theory Comput. 13, 554 (2017)

----- AuxC basis set information -----
Your calculation utilizes the AutoAux generation procedure.
  G. L. Stoychev, A. A. Auer, F. Neese, J. Chem. Theory Comput. 13, 554 (2017)

----- AuxJK basis set information -----
Your calculation utilizes the AutoAux generation procedure.
  G. L. Stoychev, A. A. Auer, F. Neese, J. Chem. Theory Comput. 13, 554 (2017)

----- AuxX basis set information -----
Your calculation utilizes the AutoAux generation procedure.
  G. L. Stoychev, A. A. Auer, F. Neese, J. Chem. Theory Comput. 13, 554 (2017)

================================================================================
                                        WARNINGS
                       Please study these warnings very carefully!
================================================================================


================================================================================
                                       INPUT FILE
================================================================================
NAME = nmr-conf-5.inp
|  1> !TPSS PCSSEG-2 AUTOAUX NMR CPCM(Methanol)
|  2> 
|  3> %pal nprocs 60 end
|  4> %maxcore 5000
|  5> 
|  6> *XYZFILE 0 1 opt-conf-5.xyz
|  7> 
|  8> %EPRNMR
|  9>    NUCLEI = ALL C {SHIFT}
| 10>    NUCLEI = ALL H {SHIFT}
| 11>    TAU DOBSON
| 12> END
| 13> 
| 14> 
| 15>                          ****END OF INPUT****
================================================================================

                       ****************************
                       * Single Point Calculation *
                       ****************************

---------------------------------
CARTESIAN COORDINATES (ANGSTROEM)
---------------------------------
  C     14.629415  -20.443612   -0.425857
  C     15.345081  -19.255283   -0.261791
  C     14.725665  -18.162927    0.355367
  C     13.427694  -18.278293    0.838843
  C     12.719148  -19.464806    0.679076
  C     13.325481  -20.548287    0.054495
  C     11.266756  -19.523778    1.072973
  C     10.380563  -18.712263    0.099862
  C     10.422157  -19.248889   -1.355690
  C     10.407085  -18.092791   -2.378596
  C     11.645908  -17.232908   -2.345409
  C     12.874361  -17.755775   -2.768751
  C     14.024854  -16.984793   -2.733307
  C     13.965724  -15.658406   -2.279274
  C     12.758216  -15.136317   -1.855604
  C     11.606231  -15.921955   -1.887472
  C      8.980230  -18.492132    0.672803
  C      9.319085  -20.242498   -1.726544
  O     15.462100  -17.021685    0.430073
  O     15.276638  -21.438213   -1.088669
  O     16.600680  -19.180737   -0.808500
  O     15.088519  -14.880664   -2.253072
  O     15.270616  -17.399755   -3.116039
  C     17.732905  -18.822567    0.008618
  C     18.304928  -20.049928    0.733485
  C     17.293944  -20.761727    1.597016
  C     18.717433  -18.221739   -0.980430
  O     18.157071  -17.098813   -1.654246
  C     16.549666  -20.058153    2.551650
  C     15.588613  -20.707343    3.305661
  C     15.363157  -22.081801    3.123258
  C     16.114158  -22.784023    2.199032
  C     17.075202  -22.121997    1.439187
  C     14.621142  -22.695115   -1.215470
  C     14.908377  -15.898663    1.109644
  C     15.386814  -18.661133   -3.776522
  O     19.473939  -19.656376    1.475690
  O      8.298463  -19.699993    1.072753
  O      9.267122  -21.398513   -0.891251
  O     14.778816  -20.123578    4.236418
  O     14.400833  -22.720498    3.848113
  C     14.905994  -18.719382    4.453586
  H     12.945684  -17.429971    1.301776
  H     12.766927  -21.462553   -0.078167
  H     11.139235  -19.110221    2.078930
  H     10.937987  -20.562814    1.105926
  H     10.816711  -17.709611    0.068952
  H     11.370863  -19.773766   -1.483485
  H      9.526817  -17.466773   -2.207967
  H     10.295370  -18.521910   -3.379536
  H     12.922528  -18.777550   -3.118455
  H     12.724308  -14.111474   -1.507136
  H     10.666183  -15.497810   -1.556057
  H      9.047175  -17.824494    1.535511
  H      8.335458  -18.016418   -0.067547
  H      8.342679  -19.742083   -1.735531
  H      9.504424  -20.602579   -2.740843
  H     15.818310  -15.379643   -2.647644
  H     17.440936  -18.065712    0.736325
  H     18.673024  -20.751823   -0.017161
  H     19.608984  -17.877717   -0.459970
  H     19.011447  -18.995861   -1.701052
  H     17.263731  -17.352472   -1.933639
  H     16.701450  -18.995986    2.681230
  H     15.931120  -23.843155    2.068956
  H     17.639411  -22.672555    0.697221
  H     14.388432  -23.117431   -0.235260
  H     13.702820  -22.606012   -1.801365
  H     15.321762  -23.345126   -1.734494
  H     13.995973  -15.554189    0.620542
  H     14.697137  -16.137577    2.154572
  H     15.665040  -15.119729    1.058168
  H     16.434595  -18.760728   -4.047601
  H     15.103238  -19.478140   -3.113134
  H     14.766457  -18.679794   -4.675384
  H     19.190892  -19.138190    2.240833
  H      8.598058  -19.940297    1.957881
  H      8.892553  -21.089344   -0.047340
  H     13.978391  -22.073226    4.433164
  H     14.169760  -18.465222    5.211832
  H     15.907209  -18.470739    4.813508
  H     14.696516  -18.167491    3.535581

----------------------------
CARTESIAN COORDINATES (A.U.)
----------------------------
  NO LB      ZA    FRAG     MASS         X           Y           Z
   0 C     6.0000    0    12.011   27.645588  -38.632827   -0.804754
   1 C     6.0000    0    12.011   28.998001  -36.387212   -0.494713
   2 C     6.0000    0    12.011   27.827473  -34.322957    0.671547
   3 C     6.0000    0    12.011   25.374665  -34.540967    1.585183
   4 C     6.0000    0    12.011   24.035706  -36.783152    1.283268
   5 C     6.0000    0    12.011   25.181510  -38.830635    0.102980
   6 C     6.0000    0    12.011   21.291083  -36.894594    2.027625
   7 C     6.0000    0    12.011   19.616420  -35.361052    0.188711
   8 C     6.0000    0    12.011   19.695023  -36.375128   -2.561883
   9 C     6.0000    0    12.011   19.666540  -34.190420   -4.494895
  10 C     6.0000    0    12.011   22.007576  -32.565478   -4.432181
  11 C     6.0000    0    12.011   24.329017  -33.553552   -5.232181
  12 C     6.0000    0    12.011   26.503133  -32.096607   -5.165202
  13 C     6.0000    0    12.011   26.391393  -29.590100   -4.307204
  14 C     6.0000    0    12.011   24.109534  -28.603494   -3.506584
  15 C     6.0000    0    12.011   21.932599  -30.088135   -3.566805
  16 C     6.0000    0    12.011   16.970176  -34.945066    1.271414
  17 C     6.0000    0    12.011   17.610519  -38.252778   -3.262695
  18 O     8.0000    0    15.999   29.219134  -32.166323    0.812720
  19 O     8.0000    0    15.999   28.868663  -40.512351   -2.057285
  20 O     8.0000    0    15.999   31.370739  -36.246340   -1.527844
  21 O     8.0000    0    15.999   28.513168  -28.120380   -4.257689
  22 O     8.0000    0    15.999   28.857283  -32.880772   -5.888461
  23 C     6.0000    0    12.011   33.510334  -35.569496    0.016286
  24 C     6.0000    0    12.011   34.591301  -37.888874    1.386087
  25 C     6.0000    0    12.011   32.680819  -39.233978    3.017922
  26 C     6.0000    0    12.011   35.370821  -34.434096   -1.852745
  27 O     8.0000    0    15.999   34.311892  -32.312075   -3.126071
  28 C     6.0000    0    12.011   31.274337  -37.904415    4.821919
  29 C     6.0000    0    12.011   29.458209  -39.131206    6.246794
  30 C     6.0000    0    12.011   29.032160  -41.728557    5.902103
  31 C     6.0000    0    12.011   30.451345  -43.055564    4.155568
  32 C     6.0000    0    12.011   32.267455  -41.804516    2.719669
  33 C     6.0000    0    12.011   27.629955  -42.887552   -2.296906
  34 C     6.0000    0    12.011   28.172750  -30.044118    2.096923
  35 C     6.0000    0    12.011   29.076865  -35.264431   -7.136592
  36 O     8.0000    0    15.999   36.800412  -37.145167    2.788649
  37 O     8.0000    0    15.999   15.681823  -37.227592    2.027209
  38 O     8.0000    0    15.999   17.512322  -40.437329   -1.684220
  39 O     8.0000    0    15.999   27.927915  -38.028051    8.005670
  40 O     8.0000    0    15.999   27.213631  -42.935519    7.271879
  41 C     6.0000    0    12.011   28.168247  -35.374506    8.416058
  42 H     1.0000    0     1.008   24.463798  -32.937872    2.460000
  43 H     1.0000    0     1.008   24.125996  -40.558348   -0.147713
  44 H     1.0000    0     1.008   21.050104  -36.113085    3.928608
  45 H     1.0000    0     1.008   20.669800  -38.858088    2.089898
  46 H     1.0000    0     1.008   20.440621  -33.466314    0.130300
  47 H     1.0000    0     1.008   21.487817  -37.367002   -2.803381
  48 H     1.0000    0     1.008   18.003075  -33.007417   -4.172452
  49 H     1.0000    0     1.008   19.455430  -35.001336   -6.386397
  50 H     1.0000    0     1.008   24.420039  -35.484426   -5.893025
  51 H     1.0000    0     1.008   24.045458  -26.666821   -2.848074
  52 H     1.0000    0     1.008   20.156165  -29.286617   -2.940522
  53 H     1.0000    0     1.008   17.096684  -33.683412    2.901695
  54 H     1.0000    0     1.008   15.751733  -34.046097   -0.127646
  55 H     1.0000    0     1.008   15.765379  -37.307130   -3.279679
  56 H     1.0000    0     1.008   17.960759  -38.933233   -5.179442
  57 H     1.0000    0     1.008   29.892274  -29.063313   -5.003322
  58 H     1.0000    0     1.008   32.958593  -34.139248    1.391453
  59 H     1.0000    0     1.008   35.286902  -39.215261   -0.032430
  60 H     1.0000    0     1.008   37.055609  -33.783989   -0.869217
  61 H     1.0000    0     1.008   35.926428  -35.896975   -3.214522
  62 H     1.0000    0     1.008   32.623724  -32.791419   -3.654049
  63 H     1.0000    0     1.008   31.561166  -35.897211    5.066790
  64 H     1.0000    0     1.008   30.105455  -45.057034    3.909760
  65 H     1.0000    0     1.008   33.333657  -42.844919    1.317556
  66 H     1.0000    0     1.008   27.190196  -43.685614   -0.444577
  67 H     1.0000    0     1.008   25.894578  -42.719171   -3.404087
  68 H     1.0000    0     1.008   28.953933  -44.115895   -3.277719
  69 H     1.0000    0     1.008   26.448555  -29.393158    1.172654
  70 H     1.0000    0     1.008   27.773563  -30.495600    4.071551
  71 H     1.0000    0     1.008   29.602635  -28.572147    1.999648
  72 H     1.0000    0     1.008   31.056883  -35.452637   -7.648858
  73 H     1.0000    0     1.008   28.540984  -36.808350   -5.882972
  74 H     1.0000    0     1.008   27.904559  -35.299694   -8.835195
  75 H     1.0000    0     1.008   36.265531  -36.165938    4.234560
  76 H     1.0000    0     1.008   16.247976  -37.681701    3.699858
  77 H     1.0000    0     1.008   16.804491  -39.853085   -0.089460
  78 H     1.0000    0     1.008   26.415332  -41.712352    8.377466
  79 H     1.0000    0     1.008   26.776965  -34.894213    9.848935
  80 H     1.0000    0     1.008   30.060268  -34.904638    9.096212
  81 H     1.0000    0     1.008   27.772391  -34.331582    6.681280

--------------------------------
INTERNAL COORDINATES (ANGSTROEM)
--------------------------------
 C      0   0   0     0.000000000000     0.00000000     0.00000000
 C      1   0   0     1.396860806418     0.00000000     0.00000000
 C      2   1   0     1.399215435009   119.28437238     0.00000000
 C      3   2   1     1.389886726473   120.13512389     2.15965952
 C      4   3   2     1.391178201187   120.42939443   358.08381779
 C      5   4   3     1.389846798315   119.62345725     1.25189159
 C      5   4   3     1.506012581198   119.63943829   186.65934594
 C      7   5   4     1.546234563943   111.56573604    70.84548076
 C      8   7   5     1.551878924903   113.16834470    61.93616976
 C      9   8   7     1.543737769449   111.23928488   218.23014597
 C     10   9   8     1.508370469247   113.84901527    66.33180498
 C     11  10   9     1.400609185364   120.05839996    68.48048692
 C     12  11  10     1.385389467411   120.85636239   180.61843564
 C     13  12  11     1.403190579268   119.95581101   359.46730567
 C     14  13  12     1.382081360070   119.54359918     0.73840375
 C     11  10   9     1.389200848480   121.45038316   249.15818777
 C      8   7   5     1.528937526585   111.38605945   193.61832447
 C      9   8   7     1.530215639622   115.62767195    93.78466710
 O      3   2   1     1.360275916530   116.07462876   182.71170333
 O      1   2   3     1.359208528646   115.83758421   177.05911945
 O      2   1   3     1.371487111670   117.93483663   184.84615188
 O     14  13  12     1.366102928023   120.64547746   180.76594990
 O     13  12  11     1.367699011945   125.47895488   179.66130683
 C     21   2   1     1.441492874637   120.43934964   234.43415479
 C     24  21   2     1.535923012915   111.19199845    84.73633543
 C     25  24  21     1.508121019450   113.43603377   302.76825504
 C     24  21   2     1.519376708353   103.78131452   205.85579174
 O     27  24  21     1.424427448176   111.39284040    58.82203373
 C     26  25  24     1.400104814200   120.63627446   307.48639223
 C     29  26  25     1.383330990517   120.34007868   177.57316229
 C     30  29  26     1.404719772141   119.99420110     0.53161166
 C     31  30  29     1.382502187463   119.77627615     0.68499859
 C     26  25  24     1.386756444660   120.23422137   126.46384508
 C     20   1   2     1.423220804822   118.05833260   176.45863310
 C     19   3   2     1.424642069590   118.49790769   183.21061033
 C     23  13  12     1.428570137698   118.12254415     9.05605138
 O     25  24  21     1.439561952149   109.10471508   176.86847303
 O     17   8   7     1.443500477024   114.57775333   305.73137979
 O     18   9   8     1.427159680558   114.22759974   302.95993167
 O     30  29  26     1.364866365535   125.67471347   181.86639975
 O     31  30  29     1.363603820398   120.16827115   181.13605392
 C     40  30  29     1.426569901829   118.15888975     0.88624262
 H      4   3   2     1.079949222403   120.04764481   180.90866751
 H      6   5   4     1.079566453009   119.32160613   180.77338328
 H      7   5   4     1.095098042635   109.74119649   310.87117194
 H      7   5   4     1.090307969919   109.63476238   193.28606757
 H      8   7   5     1.093842496129   105.68443990   306.07137323
 H      9   8   7     1.091728081906   107.41745506   334.91653452
 H     10   9   8     1.093564781419   109.46196296   303.61870180
 H     10   9   8     1.094761482527   108.25690185   187.84870230
 H     12  11  10     1.081034392644   119.32125634     0.05645121
 H     15  14  13     1.082997681719   118.91164423   179.99476695
 H     16  11  10     1.083247765388   119.67847874   359.28795983
 H     17   8   7     1.092925712038   109.12603389    67.91617287
 H     17   8   7     1.090941945055   110.47422970   186.25242817
 H     18   9   8     1.097207869142   110.32435135    67.45948390
 H     18   9   8     1.092158481934   108.47119626   184.46153443
 H     22  14  13     0.968123100592   108.56110866     4.48203656
 H     24  21   2     1.089785359190   109.91640504   322.87302018
 H     25  24  21     1.091613768823   108.35284015    63.23459891
 H     27  24  21     1.088160735359   110.15581091   177.91663242
 H     27  24  21     1.097726937953   108.78499676   296.73773570
 H     28  27  24     0.969773226854   107.00606037   314.08678692
 H     29  26  25     1.080752940388   120.06393148   359.53746036
 H     32  31  30     1.082674027512   119.03684638   179.93364114
 H     33  26  25     1.082571026569   119.64643236     0.44263411
 H     34  20   1     1.092390732843   111.07499022   301.09340181
 H     34  20   1     1.092944164450   111.26906032    63.34176613
 H     34  20   1     1.087551259079   105.88150578   182.26167791
 H     35  19   3     1.091038443166   111.10528974   297.95009220
 H     35  19   3     1.092509504884   111.03900230    60.25870360
 H     35  19   3     1.087164178260   105.76479099   179.15737480
 H     36  23  13     1.086851932985   105.94062601   176.28398458
 H     36  23  13     1.089953279627   111.05686261   295.10704055
 H     36  23  13     1.092311837983   110.44739049    57.29468723
 H     37  25  24     0.966476067496   108.47717136    72.62580339
 H     38  17   8     0.964859960152   108.41638083    82.81737938
 H     39  18   9     0.973689934113   105.31251562    73.67081073
 H     41  31  30     0.969382853560   108.39769932     0.00000000
 H     42  40  30     1.087003034814   106.01911228   179.19575319
 H     42  40  30     1.092610557240   110.84486056   298.22257296
 H     42  40  30     1.091420472735   110.64516909    60.21544095

---------------------------
INTERNAL COORDINATES (A.U.)
---------------------------
 C      0   0   0     0.000000000000     0.00000000     0.00000000
 C      1   0   0     2.639684371339     0.00000000     0.00000000
 C      2   1   0     2.644133974523   119.28437238     0.00000000
 C      3   2   1     2.626505270206   120.13512389     2.15965952
 C      4   3   2     2.628945803724   120.42939443   358.08381779
 C      5   4   3     2.626429816922   119.62345725     1.25189159
 C      5   4   3     2.845951332705   119.63943829   186.65934594
 C      7   5   4     2.921959864655   111.56573604    70.84548076
 C      8   7   5     2.932626161071   113.16834470    61.93616976
 C      9   8   7     2.917241606849   111.23928488   218.23014597
 C     10   9   8     2.850407095371   113.84901527    66.33180498
 C     11  10   9     2.646767780993   120.05839996    68.48048692
 C     12  11  10     2.618006682225   120.85636239   180.61843564
 C     13  12  11     2.651645908515   119.95581101   359.46730567
 C     14  13  12     2.611755265330   119.54359918     0.73840375
 C     11  10   9     2.625209148638   121.45038316   249.15818777
 C      8   7   5     2.889273201120   111.38605945   193.61832447
 C      9   8   7     2.891688484729   115.62767195    93.78466710
 O      3   2   1     2.570548948810   116.07462876   182.71170333
 O      1   2   3     2.568531878031   115.83758421   177.05911945
 O      2   1   3     2.591735037258   117.93483663   184.84615188
 O     14  13  12     2.581560404711   120.64547746   180.76594990
 O     13  12  11     2.584576566210   125.47895488   179.66130683
 C     21   2   1     2.724026757063   120.43934964   234.43415479
 C     24  21   2     2.902473857197   111.19199845    84.73633543
 C     25  24  21     2.849935703571   113.43603377   302.76825504
 C     24  21   2     2.871205873045   103.78131452   205.85579174
 O     27  24  21     2.691777774693   111.39284040    58.82203373
 C     26  25  24     2.645814657622   120.63627446   307.48639223
 C     29  26  25     2.614116724643   120.34007868   177.57316229
 C     30  29  26     2.654535664251   119.99420110     0.53161166
 C     31  30  29     2.612550513853   119.77627615     0.68499859
 C     26  25  24     2.620589894857   120.23422137   126.46384508
 C     20   1   2     2.689497549212   118.05833260   176.45863310
 C     19   3   2     2.692183350388   118.49790769   183.21061033
 C     23  13  12     2.699606323347   118.12254415     9.05605138
 O     25  24  21     2.720377842375   109.10471508   176.86847303
 O     17   8   7     2.727820575760   114.57775333   305.73137979
 O     18   9   8     2.696940945629   114.22759974   302.95993167
 O     30  29  26     2.579223640261   125.67471347   181.86639975
 O     31  30  29     2.576837775722   120.16827115   181.13605392
 C     40  30  29     2.695826425352   118.15888975     0.88624262
 H      4   3   2     2.040808268884   120.04764481   180.90866751
 H      6   5   4     2.040084939556   119.32160613   180.77338328
 H      7   5   4     2.069435390374   109.74119649   310.87117194
 H      7   5   4     2.060383464778   109.63476238   193.28606757
 H      8   7   5     2.067062751329   105.68443990   306.07137323
 H      9   8   7     2.063067087514   107.41745506   334.91653452
 H     10   9   8     2.066537946584   109.46196296   303.61870180
 H     10   9   8     2.068799383941   108.25690185   187.84870230
 H     12  11  10     2.042858943446   119.32125634     0.05645121
 H     15  14  13     2.046569022121   118.91164423   179.99476695
 H     16  11  10     2.047041611765   119.67847874   359.28795983
 H     17   8   7     2.065330280473   109.12603389    67.91617287
 H     17   8   7     2.061581504162   110.47422970   186.25242817
 H     18   9   8     2.073422384662   110.32435135    67.45948390
 H     18   9   8     2.063880425694   108.47119626   184.46153443
 H     22  14  13     1.829487524041   108.56110866     4.48203656
 H     24  21   2     2.059395873626   109.91640504   322.87302018
 H     25  24  21     2.062851067093   108.35284015    63.23459891
 H     27  24  21     2.056325779515   110.15581091   177.91663242
 H     27  24  21     2.074403282559   108.78499676   296.73773570
 H     28  27  24     1.832605810764   107.00606037   314.08678692
 H     29  26  25     2.042327075763   120.06393148   359.53746036
 H     32  31  30     2.045957404307   119.03684638   179.93364114
 H     33  26  25     2.045762760734   119.64643236     0.44263411
 H     34  20   1     2.064319316308   111.07499022   301.09340181
 H     34  20   1     2.065365150478   111.26906032    63.34176613
 H     34  20   1     2.055174036261   105.88150578   182.26167791
 H     35  19   3     2.061763859163   111.10528974   297.95009220
 H     35  19   3     2.064543762936   111.03900230    60.25870360
 H     35  19   3     2.054442559521   105.76479099   179.15737480
 H     36  23  13     2.053852501465   105.94062601   176.28398458
 H     36  23  13     2.059713197264   111.05686261   295.10704055
 H     36  23  13     2.064170226629   110.44739049    57.29468723
 H     37  25  24     1.826375082557   108.47717136    72.62580339
 H     38  17   8     1.823321082273   108.41638083    82.81737938
 H     39  18   9     1.840007314830   105.31251562    73.67081073
 H     41  31  30     1.831868112147   108.39769932     0.00000000
 H     42  40  30     2.054138042539   106.01911228   179.19575319
 H     42  40  30     2.064734724215   110.84486056   298.22257296
 H     42  40  30     2.062485790424   110.64516909    60.21544095

---------------------
BASIS SET INFORMATION
---------------------
There are 3 groups of distinct atoms

 Group   1 Type C   : 11s7p2d1f contracted to 4s5p2d1f pattern {7211/31111/11/1}
 Group   2 Type O   : 11s7p2d1f contracted to 4s5p2d1f pattern {7211/31111/11/1}
 Group   3 Type H   : 6s3p1d contracted to 3s2p1d pattern {411/21/1}

Atom   0C    basis set group =>   1
Atom   1C    basis set group =>   1
Atom   2C    basis set group =>   1
Atom   3C    basis set group =>   1
Atom   4C    basis set group =>   1
Atom   5C    basis set group =>   1
Atom   6C    basis set group =>   1
Atom   7C    basis set group =>   1
Atom   8C    basis set group =>   1
Atom   9C    basis set group =>   1
Atom  10C    basis set group =>   1
Atom  11C    basis set group =>   1
Atom  12C    basis set group =>   1
Atom  13C    basis set group =>   1
Atom  14C    basis set group =>   1
Atom  15C    basis set group =>   1
Atom  16C    basis set group =>   1
Atom  17C    basis set group =>   1
Atom  18O    basis set group =>   2
Atom  19O    basis set group =>   2
Atom  20O    basis set group =>   2
Atom  21O    basis set group =>   2
Atom  22O    basis set group =>   2
Atom  23C    basis set group =>   1
Atom  24C    basis set group =>   1
Atom  25C    basis set group =>   1
Atom  26C    basis set group =>   1
Atom  27O    basis set group =>   2
Atom  28C    basis set group =>   1
Atom  29C    basis set group =>   1
Atom  30C    basis set group =>   1
Atom  31C    basis set group =>   1
Atom  32C    basis set group =>   1
Atom  33C    basis set group =>   1
Atom  34C    basis set group =>   1
Atom  35C    basis set group =>   1
Atom  36O    basis set group =>   2
Atom  37O    basis set group =>   2
Atom  38O    basis set group =>   2
Atom  39O    basis set group =>   2
Atom  40O    basis set group =>   2
Atom  41C    basis set group =>   1
Atom  42H    basis set group =>   3
Atom  43H    basis set group =>   3
Atom  44H    basis set group =>   3
Atom  45H    basis set group =>   3
Atom  46H    basis set group =>   3
Atom  47H    basis set group =>   3
Atom  48H    basis set group =>   3
Atom  49H    basis set group =>   3
Atom  50H    basis set group =>   3
Atom  51H    basis set group =>   3
Atom  52H    basis set group =>   3
Atom  53H    basis set group =>   3
Atom  54H    basis set group =>   3
Atom  55H    basis set group =>   3
Atom  56H    basis set group =>   3
Atom  57H    basis set group =>   3
Atom  58H    basis set group =>   3
Atom  59H    basis set group =>   3
Atom  60H    basis set group =>   3
Atom  61H    basis set group =>   3
Atom  62H    basis set group =>   3
Atom  63H    basis set group =>   3
Atom  64H    basis set group =>   3
Atom  65H    basis set group =>   3
Atom  66H    basis set group =>   3
Atom  67H    basis set group =>   3
Atom  68H    basis set group =>   3
Atom  69H    basis set group =>   3
Atom  70H    basis set group =>   3
Atom  71H    basis set group =>   3
Atom  72H    basis set group =>   3
Atom  73H    basis set group =>   3
Atom  74H    basis set group =>   3
Atom  75H    basis set group =>   3
Atom  76H    basis set group =>   3
Atom  77H    basis set group =>   3
Atom  78H    basis set group =>   3
Atom  79H    basis set group =>   3
Atom  80H    basis set group =>   3
Atom  81H    basis set group =>   3
---------------------------------
AUXILIARY/J BASIS SET INFORMATION
---------------------------------
There are 3 groups of distinct atoms

 Group   1 Type C   : 15s13p12d5f5g contracted to 15s13p12d5f5g pattern {111111111111111/1111111111111/111111111111/11111/11111}
 Group   2 Type O   : 15s13p12d5f5g contracted to 15s13p12d5f5g pattern {111111111111111/1111111111111/111111111111/11111/11111}
 Group   3 Type H   : 12s4p3d2f contracted to 12s4p3d2f pattern {111111111111/1111/111/11}

Atom   0C    basis set group =>   1
Atom   1C    basis set group =>   1
Atom   2C    basis set group =>   1
Atom   3C    basis set group =>   1
Atom   4C    basis set group =>   1
Atom   5C    basis set group =>   1
Atom   6C    basis set group =>   1
Atom   7C    basis set group =>   1
Atom   8C    basis set group =>   1
Atom   9C    basis set group =>   1
Atom  10C    basis set group =>   1
Atom  11C    basis set group =>   1
Atom  12C    basis set group =>   1
Atom  13C    basis set group =>   1
Atom  14C    basis set group =>   1
Atom  15C    basis set group =>   1
Atom  16C    basis set group =>   1
Atom  17C    basis set group =>   1
Atom  18O    basis set group =>   2
Atom  19O    basis set group =>   2
Atom  20O    basis set group =>   2
Atom  21O    basis set group =>   2
Atom  22O    basis set group =>   2
Atom  23C    basis set group =>   1
Atom  24C    basis set group =>   1
Atom  25C    basis set group =>   1
Atom  26C    basis set group =>   1
Atom  27O    basis set group =>   2
Atom  28C    basis set group =>   1
Atom  29C    basis set group =>   1
Atom  30C    basis set group =>   1
Atom  31C    basis set group =>   1
Atom  32C    basis set group =>   1
Atom  33C    basis set group =>   1
Atom  34C    basis set group =>   1
Atom  35C    basis set group =>   1
Atom  36O    basis set group =>   2
Atom  37O    basis set group =>   2
Atom  38O    basis set group =>   2
Atom  39O    basis set group =>   2
Atom  40O    basis set group =>   2
Atom  41C    basis set group =>   1
Atom  42H    basis set group =>   3
Atom  43H    basis set group =>   3
Atom  44H    basis set group =>   3
Atom  45H    basis set group =>   3
Atom  46H    basis set group =>   3
Atom  47H    basis set group =>   3
Atom  48H    basis set group =>   3
Atom  49H    basis set group =>   3
Atom  50H    basis set group =>   3
Atom  51H    basis set group =>   3
Atom  52H    basis set group =>   3
Atom  53H    basis set group =>   3
Atom  54H    basis set group =>   3
Atom  55H    basis set group =>   3
Atom  56H    basis set group =>   3
Atom  57H    basis set group =>   3
Atom  58H    basis set group =>   3
Atom  59H    basis set group =>   3
Atom  60H    basis set group =>   3
Atom  61H    basis set group =>   3
Atom  62H    basis set group =>   3
Atom  63H    basis set group =>   3
Atom  64H    basis set group =>   3
Atom  65H    basis set group =>   3
Atom  66H    basis set group =>   3
Atom  67H    basis set group =>   3
Atom  68H    basis set group =>   3
Atom  69H    basis set group =>   3
Atom  70H    basis set group =>   3
Atom  71H    basis set group =>   3
Atom  72H    basis set group =>   3
Atom  73H    basis set group =>   3
Atom  74H    basis set group =>   3
Atom  75H    basis set group =>   3
Atom  76H    basis set group =>   3
Atom  77H    basis set group =>   3
Atom  78H    basis set group =>   3
Atom  79H    basis set group =>   3
Atom  80H    basis set group =>   3
Atom  81H    basis set group =>   3
---------------------------------
AUXILIARY/C BASIS SET INFORMATION
---------------------------------
There are 3 groups of distinct atoms

 Group   1 Type C   : 15s13p12d5f5g contracted to 15s13p12d5f5g pattern {111111111111111/1111111111111/111111111111/11111/11111}
 Group   2 Type O   : 15s13p12d5f5g contracted to 15s13p12d5f5g pattern {111111111111111/1111111111111/111111111111/11111/11111}
 Group   3 Type H   : 12s4p3d2f contracted to 12s4p3d2f pattern {111111111111/1111/111/11}

Atom   0C    basis set group =>   1
Atom   1C    basis set group =>   1
Atom   2C    basis set group =>   1
Atom   3C    basis set group =>   1
Atom   4C    basis set group =>   1
Atom   5C    basis set group =>   1
Atom   6C    basis set group =>   1
Atom   7C    basis set group =>   1
Atom   8C    basis set group =>   1
Atom   9C    basis set group =>   1
Atom  10C    basis set group =>   1
Atom  11C    basis set group =>   1
Atom  12C    basis set group =>   1
Atom  13C    basis set group =>   1
Atom  14C    basis set group =>   1
Atom  15C    basis set group =>   1
Atom  16C    basis set group =>   1
Atom  17C    basis set group =>   1
Atom  18O    basis set group =>   2
Atom  19O    basis set group =>   2
Atom  20O    basis set group =>   2
Atom  21O    basis set group =>   2
Atom  22O    basis set group =>   2
Atom  23C    basis set group =>   1
Atom  24C    basis set group =>   1
Atom  25C    basis set group =>   1
Atom  26C    basis set group =>   1
Atom  27O    basis set group =>   2
Atom  28C    basis set group =>   1
Atom  29C    basis set group =>   1
Atom  30C    basis set group =>   1
Atom  31C    basis set group =>   1
Atom  32C    basis set group =>   1
Atom  33C    basis set group =>   1
Atom  34C    basis set group =>   1
Atom  35C    basis set group =>   1
Atom  36O    basis set group =>   2
Atom  37O    basis set group =>   2
Atom  38O    basis set group =>   2
Atom  39O    basis set group =>   2
Atom  40O    basis set group =>   2
Atom  41C    basis set group =>   1
Atom  42H    basis set group =>   3
Atom  43H    basis set group =>   3
Atom  44H    basis set group =>   3
Atom  45H    basis set group =>   3
Atom  46H    basis set group =>   3
Atom  47H    basis set group =>   3
Atom  48H    basis set group =>   3
Atom  49H    basis set group =>   3
Atom  50H    basis set group =>   3
Atom  51H    basis set group =>   3
Atom  52H    basis set group =>   3
Atom  53H    basis set group =>   3
Atom  54H    basis set group =>   3
Atom  55H    basis set group =>   3
Atom  56H    basis set group =>   3
Atom  57H    basis set group =>   3
Atom  58H    basis set group =>   3
Atom  59H    basis set group =>   3
Atom  60H    basis set group =>   3
Atom  61H    basis set group =>   3
Atom  62H    basis set group =>   3
Atom  63H    basis set group =>   3
Atom  64H    basis set group =>   3
Atom  65H    basis set group =>   3
Atom  66H    basis set group =>   3
Atom  67H    basis set group =>   3
Atom  68H    basis set group =>   3
Atom  69H    basis set group =>   3
Atom  70H    basis set group =>   3
Atom  71H    basis set group =>   3
Atom  72H    basis set group =>   3
Atom  73H    basis set group =>   3
Atom  74H    basis set group =>   3
Atom  75H    basis set group =>   3
Atom  76H    basis set group =>   3
Atom  77H    basis set group =>   3
Atom  78H    basis set group =>   3
Atom  79H    basis set group =>   3
Atom  80H    basis set group =>   3
Atom  81H    basis set group =>   3
----------------------------------
AUXILIARY/JK BASIS SET INFORMATION
----------------------------------
There are 3 groups of distinct atoms

 Group   1 Type C   : 15s13p12d5f5g contracted to 15s13p12d5f5g pattern {111111111111111/1111111111111/111111111111/11111/11111}
 Group   2 Type O   : 15s13p12d5f5g contracted to 15s13p12d5f5g pattern {111111111111111/1111111111111/111111111111/11111/11111}
 Group   3 Type H   : 12s4p3d2f contracted to 12s4p3d2f pattern {111111111111/1111/111/11}

Atom   0C    basis set group =>   1
Atom   1C    basis set group =>   1
Atom   2C    basis set group =>   1
Atom   3C    basis set group =>   1
Atom   4C    basis set group =>   1
Atom   5C    basis set group =>   1
Atom   6C    basis set group =>   1
Atom   7C    basis set group =>   1
Atom   8C    basis set group =>   1
Atom   9C    basis set group =>   1
Atom  10C    basis set group =>   1
Atom  11C    basis set group =>   1
Atom  12C    basis set group =>   1
Atom  13C    basis set group =>   1
Atom  14C    basis set group =>   1
Atom  15C    basis set group =>   1
Atom  16C    basis set group =>   1
Atom  17C    basis set group =>   1
Atom  18O    basis set group =>   2
Atom  19O    basis set group =>   2
Atom  20O    basis set group =>   2
Atom  21O    basis set group =>   2
Atom  22O    basis set group =>   2
Atom  23C    basis set group =>   1
Atom  24C    basis set group =>   1
Atom  25C    basis set group =>   1
Atom  26C    basis set group =>   1
Atom  27O    basis set group =>   2
Atom  28C    basis set group =>   1
Atom  29C    basis set group =>   1
Atom  30C    basis set group =>   1
Atom  31C    basis set group =>   1
Atom  32C    basis set group =>   1
Atom  33C    basis set group =>   1
Atom  34C    basis set group =>   1
Atom  35C    basis set group =>   1
Atom  36O    basis set group =>   2
Atom  37O    basis set group =>   2
Atom  38O    basis set group =>   2
Atom  39O    basis set group =>   2
Atom  40O    basis set group =>   2
Atom  41C    basis set group =>   1
Atom  42H    basis set group =>   3
Atom  43H    basis set group =>   3
Atom  44H    basis set group =>   3
Atom  45H    basis set group =>   3
Atom  46H    basis set group =>   3
Atom  47H    basis set group =>   3
Atom  48H    basis set group =>   3
Atom  49H    basis set group =>   3
Atom  50H    basis set group =>   3
Atom  51H    basis set group =>   3
Atom  52H    basis set group =>   3
Atom  53H    basis set group =>   3
Atom  54H    basis set group =>   3
Atom  55H    basis set group =>   3
Atom  56H    basis set group =>   3
Atom  57H    basis set group =>   3
Atom  58H    basis set group =>   3
Atom  59H    basis set group =>   3
Atom  60H    basis set group =>   3
Atom  61H    basis set group =>   3
Atom  62H    basis set group =>   3
Atom  63H    basis set group =>   3
Atom  64H    basis set group =>   3
Atom  65H    basis set group =>   3
Atom  66H    basis set group =>   3
Atom  67H    basis set group =>   3
Atom  68H    basis set group =>   3
Atom  69H    basis set group =>   3
Atom  70H    basis set group =>   3
Atom  71H    basis set group =>   3
Atom  72H    basis set group =>   3
Atom  73H    basis set group =>   3
Atom  74H    basis set group =>   3
Atom  75H    basis set group =>   3
Atom  76H    basis set group =>   3
Atom  77H    basis set group =>   3
Atom  78H    basis set group =>   3
Atom  79H    basis set group =>   3
Atom  80H    basis set group =>   3
Atom  81H    basis set group =>   3
---------------------------------
AUXILIARY/X BASIS SET INFORMATION
---------------------------------
There are 3 groups of distinct atoms

 Group   1 Type C   : 15s13p12d5f5g contracted to 15s13p12d5f5g pattern {111111111111111/1111111111111/111111111111/11111/11111}
 Group   2 Type O   : 15s13p12d5f5g contracted to 15s13p12d5f5g pattern {111111111111111/1111111111111/111111111111/11111/11111}
 Group   3 Type H   : 12s4p3d2f contracted to 12s4p3d2f pattern {111111111111/1111/111/11}

Atom   0C    basis set group =>   1
Atom   1C    basis set group =>   1
Atom   2C    basis set group =>   1
Atom   3C    basis set group =>   1
Atom   4C    basis set group =>   1
Atom   5C    basis set group =>   1
Atom   6C    basis set group =>   1
Atom   7C    basis set group =>   1
Atom   8C    basis set group =>   1
Atom   9C    basis set group =>   1
Atom  10C    basis set group =>   1
Atom  11C    basis set group =>   1
Atom  12C    basis set group =>   1
Atom  13C    basis set group =>   1
Atom  14C    basis set group =>   1
Atom  15C    basis set group =>   1
Atom  16C    basis set group =>   1
Atom  17C    basis set group =>   1
Atom  18O    basis set group =>   2
Atom  19O    basis set group =>   2
Atom  20O    basis set group =>   2
Atom  21O    basis set group =>   2
Atom  22O    basis set group =>   2
Atom  23C    basis set group =>   1
Atom  24C    basis set group =>   1
Atom  25C    basis set group =>   1
Atom  26C    basis set group =>   1
Atom  27O    basis set group =>   2
Atom  28C    basis set group =>   1
Atom  29C    basis set group =>   1
Atom  30C    basis set group =>   1
Atom  31C    basis set group =>   1
Atom  32C    basis set group =>   1
Atom  33C    basis set group =>   1
Atom  34C    basis set group =>   1
Atom  35C    basis set group =>   1
Atom  36O    basis set group =>   2
Atom  37O    basis set group =>   2
Atom  38O    basis set group =>   2
Atom  39O    basis set group =>   2
Atom  40O    basis set group =>   2
Atom  41C    basis set group =>   1
Atom  42H    basis set group =>   3
Atom  43H    basis set group =>   3
Atom  44H    basis set group =>   3
Atom  45H    basis set group =>   3
Atom  46H    basis set group =>   3
Atom  47H    basis set group =>   3
Atom  48H    basis set group =>   3
Atom  49H    basis set group =>   3
Atom  50H    basis set group =>   3
Atom  51H    basis set group =>   3
Atom  52H    basis set group =>   3
Atom  53H    basis set group =>   3
Atom  54H    basis set group =>   3
Atom  55H    basis set group =>   3
Atom  56H    basis set group =>   3
Atom  57H    basis set group =>   3
Atom  58H    basis set group =>   3
Atom  59H    basis set group =>   3
Atom  60H    basis set group =>   3
Atom  61H    basis set group =>   3
Atom  62H    basis set group =>   3
Atom  63H    basis set group =>   3
Atom  64H    basis set group =>   3
Atom  65H    basis set group =>   3
Atom  66H    basis set group =>   3
Atom  67H    basis set group =>   3
Atom  68H    basis set group =>   3
Atom  69H    basis set group =>   3
Atom  70H    basis set group =>   3
Atom  71H    basis set group =>   3
Atom  72H    basis set group =>   3
Atom  73H    basis set group =>   3
Atom  74H    basis set group =>   3
Atom  75H    basis set group =>   3
Atom  76H    basis set group =>   3
Atom  77H    basis set group =>   3
Atom  78H    basis set group =>   3
Atom  79H    basis set group =>   3
Atom  80H    basis set group =>   3
Atom  81H    basis set group =>   3
--------------------------------------------------------------------------
WARNING: There was an error initializing an OpenFabrics device.

  Local host:   c01b01n07
  Local device: mlx5_0
--------------------------------------------------------------------------
--------------------------------------------------------------------------
WARNING: There is at least one non-excluded one OpenFabrics device found,
but there are no active ports detected (or Open MPI was unable to use
them).  This is most certainly not what you wanted.  Check your
cables, subnet manager configuration, etc.  The openib BTL will be
ignored for this job.

  Local host: c01b01n07
--------------------------------------------------------------------------
[c01b01n07:52878] 51 more processes have sent help message help-mpi-btl-openib.txt / error in device init
[c01b01n07:52878] Set MCA parameter "orte_base_help_aggregate" to 0 to see all help / error messages
[c01b01n07:52878] 7 more processes have sent help message help-mpi-btl-openib.txt / no active ports found


           ************************************************************
           *        Program running with 60 parallel MPI-processes    *
           *              working on a common directory               *
           ************************************************************
------------------------------------------------------------------------------
                             ORCA STARTUP CALCULATIONS
                           -- RI-GTO INTEGRALS CHOSEN --
------------------------------------------------------------------------------
------------------------------------------------------------------------------
                   ___                                                        
                  /   \      - P O W E R E D   B Y -                         
                 /     \                                                     
                 |  |  |   _    _      __       _____    __    __             
                 |  |  |  | |  | |    /  \     |  _  \  |  |  /  |          
                  \  \/   | |  | |   /    \    | | | |  |  | /  /          
                 / \  \   | |__| |  /  /\  \   | |_| |  |  |/  /          
                |  |  |   |  __  | /  /__\  \  |    /   |      \           
                |  |  |   | |  | | |   __   |  |    \   |  |\   \          
                \     /   | |  | | |  |  |  |  | |\  \  |  | \   \       
                 \___/    |_|  |_| |__|  |__|  |_| \__\ |__|  \__/        
                                                                              
                      - O R C A' S   B I G   F R I E N D -                    
                                      &                                       
                       - I N T E G R A L  F E E D E R -                       
                                                                              
 v1 FN, 2020, v2 2021, v3 2022-2024                                           
------------------------------------------------------------------------------


----------------------
SHARK INTEGRAL PACKAGE
----------------------

Number of atoms                             ...     82
Number of basis functions                   ...   2072
Number of shells                            ...    744
Maximum angular momentum                    ...      3
Integral batch strategy                     ... SHARK/LIBINT Hybrid
RI-J (if used) integral strategy            ... SPLIT-RIJ (Revised 2003 algorithm where possible)
Printlevel                                  ...      1
Contraction scheme used                     ... SEGMENTED contraction
Prescreening option                         ... SCHWARTZ
   Thresh                                   ... 1.000e-10
   Tcut                                     ... 1.000e-11
   Tpresel                                  ... 1.000e-11 
Coulomb Range Separation                    ... NOT USED
Exchange Range Separation                   ... NOT USED
Multipole approximations                    ... NOT USED
Finite Nucleus Model                        ... NOT USED
CABS basis                                  ... NOT available
Auxiliary Coulomb fitting basis             ... AVAILABLE
   # of basis functions in Aux-J            ...  10268
   # of shells in Aux-J                     ...   2940
   Maximum angular momentum in Aux-J        ...      4
Auxiliary J/K fitting basis                 ... AVAILABLE
   # of basis functions in Aux-JK           ...  10268
   # of shells in Aux-JK                    ...   2940
   Maximum angular momentum in Aux-JK       ...      4
Auxiliary Correlation fitting basis         ... AVAILABLE
   # of basis functions in Aux-C            ...  10268
   # of shells in Aux-C                     ...   2940
   Maximum angular momentum in Aux-C        ...      4
Auxiliary 'external' fitting basis          ... NOT available

Checking pre-screening integrals            ... done (  0.0 sec) Dimension = 744
   => SHARK Basis and OBASIS are compatible. Storing Pre-screening
Shell pair information
Shell pair cut-off parameter TPreSel        ...   1.0e-11
Total number of shell pairs                 ...    277140
Shell pairs after pre-screening             ...    154058
Total number of primitive shell pairs       ...    823733
Primitive shell pairs kept                  ...    282402
          la=0 lb=0:  29325 shell pairs
          la=1 lb=0:  51203 shell pairs
          la=1 lb=1:  20861 shell pairs
          la=2 lb=0:  20212 shell pairs
          la=2 lb=1:  15265 shell pairs
          la=2 lb=2:   2723 shell pairs
          la=3 lb=0:   6966 shell pairs
          la=3 lb=1:   5255 shell pairs
          la=3 lb=2:   1879 shell pairs
          la=3 lb=3:    369 shell pairs

Checking whether 4 symmetric matrices of dimension 2072 fit in memory
:Max Core in MB      =   5000.00
 MB in use           =    190.09
 MB left             =   4809.91
 MB needed           =     65.54
 Data fit in memory  = YES
Calculating RI/J V-Matrix + Cholesky decomp.... done ( 10.0 sec)
Calculating RI/JK V-Matrix + Cholesky decomp.... done (  3.9 sec)
Calculating RI/C V-Matrix + Cholesky decomp.... done (  3.9 sec)
Calculating Nuclear repulsion               ... done (  0.0 sec) ENN=   5788.703012532852 Eh

Diagonalization of the overlap matrix:
Smallest eigenvalue                        ... 6.281e-06
Time for diagonalization                   ...    3.290 sec
Threshold for overlap eigenvalues          ... 1.000e-07
Number of eigenvalues below threshold      ... 0
Time for construction of square roots      ...    0.393 sec
Total time needed                          ...    3.713 sec

-------------------
DFT GRID GENERATION
-------------------

General Integration Accuracy     IntAcc      ... 4.388
Radial Grid Type                 RadialGrid  ... OptM3 with GC (2021)
Angular Grid (max. ang.)         AngularGrid ... 4 (Lebedev-302)
Angular grid pruning method      GridPruning ... 4 (adaptive)
Weight generation scheme         WeightScheme... mBecke (2022)
Basis function cutoff            BFCut       ... 1.0000e-10
Integration weight cutoff        WCut        ... 1.0000e-14
Partially contracted basis set               ... off
Rotationally invariant grid construction     ... off
Angular grids for H and He will be reduced by one unit
Diffuse basis detected: some atoms will have their outermost
                        angular grid increased by 1.

Total number of grid points                  ...   376702
Total number of batches                      ...     5931
Average number of points per batch           ...       63
Average number of grid points per atom       ...     4594
Grids setup in   5.6 sec
Initializing property integral containers    ... done (  0.1 sec)

SHARK setup successfully completed in  46.1 seconds

Maximum memory used throughout the entire STARTUP-calculation: 262.2 MB
--------------------------------------------------------------------------
WARNING: There was an error initializing an OpenFabrics device.

  Local host:   c01b01n07
  Local device: mlx5_0
--------------------------------------------------------------------------
--------------------------------------------------------------------------
WARNING: There is at least one non-excluded one OpenFabrics device found,
but there are no active ports detected (or Open MPI was unable to use
them).  This is most certainly not what you wanted.  Check your
cables, subnet manager configuration, etc.  The openib BTL will be
ignored for this job.

  Local host: c01b01n07
--------------------------------------------------------------------------


           ************************************************************
           *        Program running with 60 parallel MPI-processes    *
           *              working on a common directory               *
           ************************************************************
-------------------------------------------------------------------------------
                                 ORCA GUESS
                   Start orbitals & Density for SCF / CASSCF
-------------------------------------------------------------------------------

------------
SCF SETTINGS
------------
Hamiltonian:
 Density Functional     Method          .... DFT(GTOs)
 Exchange Functional    Exchange        .... TPSS
 Correlation Functional Correlation     .... TPSS
 LDA part of GGA corr.  LDAOpt          .... PW91-LDA
 Gradients option       PostSCFGGA      .... off
   NL short-range parameter             ....  5.000000
 RI-approximation to the Coulomb term is turned on
   Number of AuxJ basis functions       .... 10268


General Settings:
 Integral files         IntName         .... nmr-conf-5
 Hartree-Fock type      HFTyp           .... RHF
 Total Charge           Charge          ....    0
 Multiplicity           Mult            ....    1
 Number of Electrons    NEL             ....  314
 Basis Dimension        Dim             .... 2072
 Nuclear Repulsion      ENuc            ....   5788.7030125329 Eh

Convergence Acceleration:
 AO-DIIS                CNVDIIS         .... on
   Start iteration      DIISMaxIt       ....    12
   Startup error        DIISStart       ....  0.200000
   # of expansion vecs  DIISMaxEq       ....     5
   Bias factor          DIISBfac        ....   1.050
   Max. coefficient     DIISMaxC        ....  10.000
 MO-DIIS                CNVKDIIS        .... off
 Trust-Rad. Augm. Hess. CNVTRAH         .... auto
   Auto Start mean grad. ratio tolernc. ....  1.125000
   Auto Start start iteration           ....    50
   Auto Start num. interpolation iter.  ....    10
   Max. Number of Micro iterations      ....    24
   Max. Number of Macro iterations      .... Maxiter - #DIIS iter
   Number of Davidson start vectors     ....     2
   Converg. threshold    (grad. norm)   ....   5.000e-05
   Grad. Scal. Fac. for Micro threshold ....   0.100
   Minimum threshold for Micro iter.    ....   1.000e-02
   NR start threshold (gradient norm)   ....   1.000e-04
   Initial trust radius                 ....   0.400
   Minimum AH scaling param. (alpha)    ....   1.000
   Maximum AH scaling param. (alpha)    .... 1000.000
   Quad. conv. algorithm                .... NR
   White noise on init. David. guess    .... on
   Maximum white noise                  ....   0.010
   Pseudo random numbers                .... off
   Inactive MOs                         .... canonical
   Orbital update algorithm             .... Taylor
   Preconditioner                       .... Diag
   Full preconditioner red. dimension   ....   250
 SOSCF                 CNVSOSCF           .... on
   Start iteration     SOSCFMaxIt         ....   150
   Startup grad/error  SOSCFStart         ....  0.003300
   Hessian update      SOSCFHessUp        .... L-BFGS
   Autom. constraints  SOSCFAutoConstrain .... off
 Level Shifting         CNVShift        .... on
   Level shift para.    LevelShift      ....    0.2500
   Turn off err/grad.   ShiftErr        ....    0.0010
 Zerner damping         CNVZerner       .... off
 Static damping         CNVDamp         .... on
   Fraction old density DampFac         ....    0.7000
   Max. Damping (<1)    DampMax         ....    0.9800
   Min. Damping (>=0)   DampMin         ....    0.0000
   Turn off err/grad.   DampErr         ....    0.1000

SCF Procedure:
 Maximum # iterations   MaxIter         ....   125
 SCF integral mode      SCFMode         .... Direct
   Integral package                     .... SHARK and LIBINT hybrid scheme
 Reset frequency        DirectResetFreq ....    20
 Integral Threshold     Thresh          ....  1.000e-10 Eh
 Primitive CutOff       TCut            ....  1.000e-11 Eh

Convergence Tolerance:
 Convergence Check Mode ConvCheckMode   .... Total+1el-Energy
 Convergence forced     ConvForced      .... 0
 Energy Change          TolE            ....  1.000e-06 Eh
 1-El. energy change                    ....  1.000e-03 Eh
 Orbital Gradient       TolG            ....  5.000e-05
 Orbital Rotation angle TolX            ....  5.000e-05
 DIIS Error             TolErr          ....  1.000e-06

------------------------------
INITIAL GUESS: MODEL POTENTIAL
------------------------------
Loading Hartree-Fock densities                     ... done
Calculating cut-offs                               ... done
Initializing the effective Hamiltonian             ... done
Setting up the integral package (SHARK)            ... done
Starting the Coulomb interaction                   ... [c01b01n07:53326] 53 more processes have sent help message help-mpi-btl-openib.txt / error in device init
[c01b01n07:53326] Set MCA parameter "orte_base_help_aggregate" to 0 to see all help / error messages
[c01b01n07:53326] 5 more processes have sent help message help-mpi-btl-openib.txt / no active ports found
done (   4.7 sec)
Making the grid                                    ... done (   0.5 sec)
Mapping shells                                     ... done
Starting the XC term evaluation                    ... done (   1.2 sec)
  promolecular density results
     # of electrons  =    313.982023863
     EX              =   -260.290779952
     EC              =    -10.639187525
     EX+EC           =   -270.929967477
Transforming the Hamiltonian                       ... done (   0.3 sec)
Diagonalizing the Hamiltonian                      ... done (   0.5 sec)
Back transforming the eigenvectors                 ... done (   0.3 sec)
Now organizing SCF variables                       ... done
                      ------------------
                      INITIAL GUESS DONE (   8.7 sec)
                      ------------------
             **** ENERGY FILE WAS UPDATED (nmr-conf-5.en.tmp) ****
Finished Guess after  15.7 sec
Maximum memory used throughout the entire GUESS-calculation: 295.0 MB
--------------------------------------------------------------------------
WARNING: There was an error initializing an OpenFabrics device.

  Local host:   c01b01n07
  Local device: mlx5_0
--------------------------------------------------------------------------
--------------------------------------------------------------------------
WARNING: There is at least one non-excluded one OpenFabrics device found,
but there are no active ports detected (or Open MPI was unable to use
them).  This is most certainly not what you wanted.  Check your
cables, subnet manager configuration, etc.  The openib BTL will be
ignored for this job.

  Local host: c01b01n07
--------------------------------------------------------------------------


           ************************************************************
           *        Program running with 60 parallel MPI-processes    *
           *              working on a common directory               *
           ************************************************************

-------------------------------------------------------------------------------------------
                                      ORCA LEAN-SCF
                              memory conserving SCF solver
-------------------------------------------------------------------------------------------

--------------------
CPCM SOLVATION MODEL
--------------------
CPCM parameters:
  Epsilon                                         ...      33.4280
  Refrac                                          ...       1.3288
  Rsolv                                           ...       1.3000
  Surface type                                    ... GAUSSIAN VDW
  Discretization scheme                           ... Constant charge density
    Threshold for H atoms                         ...       5.0000 (charges/Ang^2)
    Threshold for non-H atoms                     ...       5.0000 (charges/Ang^2)
  Epsilon function type                           ...         CPCM
Solvent:                                          ... METHANOL
Radii:
  Scheme                                          ... Element-dependent radii
  Radius for C  used is    3.8550 Bohr (=   2.0400 Ang.)
  Radius for O  used is    3.4469 Bohr (=   1.8240 Ang.)
  Radius for H  used is    2.4944 Bohr (=   1.3200 Ang.)
Calculating surface                               ...        done! (  0.2s)
Cavity surface points                             ...         6107
Cavity Volume                                     ...    4546.8398
Cavity Surface-area                               ...    2032.3508
Calculating surface distance matrix               ...        done! (  0.2s)
Performing Cholesky decomposition & store         ...        [c01b01n07:53844] 53 more processes have sent help message help-mpi-btl-openib.txt / error in device init
[c01b01n07:53844] Set MCA parameter "orte_base_help_aggregate" to 0 to see all help / error messages
[c01b01n07:53844] 5 more processes have sent help message help-mpi-btl-openib.txt / no active ports found
done! (  0.6s)
Overall time for CPCM initialization              ...                 1.3s

----------------------------------------D-I-I-S--------------------------------------------
Iteration    Energy (Eh)           Delta-E    RMSDP     MaxDP     DIISErr   Damp  Time(sec)
-------------------------------------------------------------------------------------------
               ***  Starting incremental Fock matrix formation  ***
    1    -2033.0111542240256313     0.00e+00  8.34e-03  2.73e-01  2.40e-01  0.700  15.8
    2    -2033.4226523835723128    -4.11e-01  6.96e-03  2.14e-01  8.48e-02  0.700   9.5
                               ***Turning on AO-DIIS***
    3    -2033.5755167934485144    -1.53e-01  2.82e-03  6.95e-02  2.44e-02  0.700   8.3
    4    -2033.6680424615960874    -9.25e-02  4.79e-03  9.08e-02  1.13e-02  0.000   6.8
    5    -2033.8732857987797615    -2.05e-01  1.44e-03  4.38e-02  4.95e-03  0.000   7.1
                              *** Initializing SOSCF ***
---------------------------------------S-O-S-C-F--------------------------------------
Iteration    Energy (Eh)           Delta-E    RMSDP     MaxDP     MaxGrad    Time(sec)
--------------------------------------------------------------------------------------
    6    -2033.8746622660455614    -1.38e-03  4.55e-04  1.16e-02  1.42e-03     8.1
               *** Restarting incremental Fock matrix formation ***
    7    -2033.8747736857249038    -1.11e-04  3.50e-04  8.94e-03  1.34e-04     7.6
    8    -2033.8747464707803374     2.72e-05  8.48e-05  2.93e-03  7.17e-04     6.1
    9    -2033.8747897950352126    -4.33e-05  7.25e-05  1.76e-03  1.34e-04     7.2
   10    -2033.8747886391320208     1.16e-06  2.42e-05  8.55e-04  1.32e-04     6.9
   11    -2033.8747893396348445    -7.01e-07  4.57e-05  1.77e-03  2.92e-05     7.4
                 **** Energy Check signals convergence ****

               *****************************************************
               *                     SUCCESS                       *
               *           SCF CONVERGED AFTER  11 CYCLES          *
               *****************************************************

             **** ENERGY FILE WAS UPDATED (nmr-conf-5.en.tmp) ****

----------------
TOTAL SCF ENERGY
----------------

Total Energy       :      -2033.87478933029161 Eh          -55344.54668 eV

Components:
Nuclear Repulsion  :       5788.70301253285197 Eh          157518.61706 eV
Electronic Energy  :      -7822.52822870647105 Eh         -212861.81479 eV
One Electron Energy:     -14305.63634535591882 Eh         -389276.15537 eV
Two Electron Energy:       6483.10811664944777 Eh          176414.34059 eV
CPCM Dielectric    :         -0.04957315667291 Eh              -1.34895 eV

Virial components:
Potential Energy   :      -4061.11739794106234 Eh         -110508.62255 eV
Kinetic Energy     :       2027.24260861077050 Eh           55164.07587 eV
Virial Ratio       :          2.00327152788292

DFT components:
N(Alpha)           :      156.999933445391 electrons
N(Beta)            :      156.999933445391 electrons
N(Total)           :      313.999866890781 electrons
E(X)               :     -268.084112996574 Eh       
E(C)               :      -10.604300839334 Eh       
E(XC)              :     -278.688413835909 Eh       

CPCM Solvation Model Properties:
Surface-charge          :         -0.04259622549463
Corrected charge        :          0.00000000000000
Outlying charge corr.   :          0.00007882349146 Eh               0.00214 eV
Free-energy (cav+disp)  :  This term is not implemented in the current solvation scheme

---------------
SCF CONVERGENCE
---------------

  Last Energy change         ...    7.0050e-07  Tolerance :   1.0000e-06
  Last MAX-Density change    ...    1.7682e-03  Tolerance :   1.0000e-05
  Last RMS-Density change    ...    4.5690e-05  Tolerance :   1.0000e-06
  Last DIIS Error            ...    1.4240e-03  Tolerance :   1.0000e-06
  Last Orbital Gradient      ...    2.9243e-05  Tolerance :   5.0000e-05
  Last Orbital Rotation      ...    2.1179e-04  Tolerance :   5.0000e-05


----------------
ORBITAL ENERGIES
----------------

  NO   OCC          E(Eh)            E(eV) 
   0   2.0000     -18.918663      -514.8030 
   1   2.0000     -18.918138      -514.7887 
   2   2.0000     -18.911752      -514.6149 
   3   2.0000     -18.909494      -514.5535 
   4   2.0000     -18.908381      -514.5232 
   5   2.0000     -18.907561      -514.5009 
   6   2.0000     -18.900675      -514.3135 
   7   2.0000     -18.890869      -514.0467 
   8   2.0000     -18.884719      -513.8793 
   9   2.0000     -18.876223      -513.6481 
  10   2.0000     -18.864631      -513.3327 
  11   2.0000     -10.045010      -273.3386 
  12   2.0000     -10.044628      -273.3282 
  13   2.0000     -10.042235      -273.2631 
  14   2.0000     -10.041657      -273.2474 
  15   2.0000     -10.040531      -273.2167 
  16   2.0000     -10.039934      -273.2005 
  17   2.0000     -10.039373      -273.1852 
  18   2.0000     -10.038165      -273.1523 
  19   2.0000     -10.035966      -273.0925 
  20   2.0000     -10.033961      -273.0380 
  21   2.0000     -10.030929      -272.9555 
  22   2.0000     -10.030869      -272.9538 
  23   2.0000     -10.030635      -272.9475 
  24   2.0000     -10.030586      -272.9461 
  25   2.0000     -10.028016      -272.8762 
  26   2.0000     -10.020792      -272.6796 
  27   2.0000      -9.987738      -271.7802 
  28   2.0000      -9.987458      -271.7725 
  29   2.0000      -9.987240      -271.7666 
  30   2.0000      -9.985740      -271.7258 
  31   2.0000      -9.985668      -271.7239 
  32   2.0000      -9.983426      -271.6628 
  33   2.0000      -9.982133      -271.6277 
  34   2.0000      -9.982055      -271.6255 
  35   2.0000      -9.982015      -271.6244 
  36   2.0000      -9.981672      -271.6151 
  37   2.0000      -9.981237      -271.6033 
  38   2.0000      -9.980815      -271.5918 
  39   2.0000      -9.978005      -271.5153 
  40   2.0000      -9.973199      -271.3846 
  41   2.0000      -9.972315      -271.3605 
  42   2.0000      -1.012500       -27.5515 
  43   2.0000      -1.009821       -27.4786 
  44   2.0000      -1.006301       -27.3828 
  45   2.0000      -0.995238       -27.0818 
  46   2.0000      -0.985170       -26.8078 
  47   2.0000      -0.982434       -26.7334 
  48   2.0000      -0.980112       -26.6702 
  49   2.0000      -0.961734       -26.1701 
  50   2.0000      -0.956530       -26.0285 
  51   2.0000      -0.946652       -25.7597 
  52   2.0000      -0.937491       -25.5104 
  53   2.0000      -0.796542       -21.6750 
  54   2.0000      -0.795955       -21.6590 
  55   2.0000      -0.791865       -21.5477 
  56   2.0000      -0.758052       -20.6277 
  57   2.0000      -0.732734       -19.9387 
  58   2.0000      -0.716410       -19.4945 
  59   2.0000      -0.702059       -19.1040 
  60   2.0000      -0.698537       -19.0082 
  61   2.0000      -0.696607       -18.9556 
  62   2.0000      -0.694848       -18.9078 
  63   2.0000      -0.684906       -18.6372 
  64   2.0000      -0.670918       -18.2566 
  65   2.0000      -0.651658       -17.7325 
  66   2.0000      -0.647984       -17.6325 
  67   2.0000      -0.646500       -17.5922 
  68   2.0000      -0.641899       -17.4669 
  69   2.0000      -0.617673       -16.8077 
  70   2.0000      -0.616301       -16.7704 
  71   2.0000      -0.610712       -16.6183 
  72   2.0000      -0.577352       -15.7105 
  73   2.0000      -0.567449       -15.4411 
  74   2.0000      -0.559106       -15.2140 
  75   2.0000      -0.558203       -15.1895 
  76   2.0000      -0.547104       -14.8874 
  77   2.0000      -0.542694       -14.7674 
  78   2.0000      -0.536853       -14.6085 
  79   2.0000      -0.531746       -14.4695 
  80   2.0000      -0.509735       -13.8706 
  81   2.0000      -0.508958       -13.8494 
  82   2.0000      -0.503421       -13.6988 
  83   2.0000      -0.499998       -13.6056 
  84   2.0000      -0.483353       -13.1527 
  85   2.0000      -0.477598       -12.9961 
  86   2.0000      -0.469748       -12.7825 
  87   2.0000      -0.467257       -12.7147 
  88   2.0000      -0.466349       -12.6900 
  89   2.0000      -0.458078       -12.4649 
  90   2.0000      -0.450913       -12.2700 
  91   2.0000      -0.447819       -12.1858 
  92   2.0000      -0.445164       -12.1135 
  93   2.0000      -0.443472       -12.0675 
  94   2.0000      -0.440380       -11.9834 
  95   2.0000      -0.434959       -11.8358 
  96   2.0000      -0.427881       -11.6432 
  97   2.0000      -0.422420       -11.4946 
  98   2.0000      -0.420552       -11.4438 
  99   2.0000      -0.418829       -11.3969 
 100   2.0000      -0.417825       -11.3696 
 101   2.0000      -0.410718       -11.1762 
 102   2.0000      -0.404229       -10.9996 
 103   2.0000      -0.403016       -10.9666 
 104   2.0000      -0.399671       -10.8756 
 105   2.0000      -0.397297       -10.8110 
 106   2.0000      -0.394478       -10.7343 
 107   2.0000      -0.391614       -10.6564 
 108   2.0000      -0.387132       -10.5344 
 109   2.0000      -0.381812       -10.3896 
 110   2.0000      -0.380896       -10.3647 
 111   2.0000      -0.380132       -10.3439 
 112   2.0000      -0.380057       -10.3419 
 113   2.0000      -0.374329       -10.1860 
 114   2.0000      -0.372644       -10.1402 
 115   2.0000      -0.368890       -10.0380 
[...]
 
 sDSO           -23.969           -3.702           59.122  iso=      10.484
 sPSO            48.885           29.499          -26.613  iso=      17.257
        ---------------  ---------------  ---------------
 Total           24.916           25.797           32.510  iso=      27.741

 Orientation: 
  X           0.1676882   -0.7905137   -0.5890406
  Y           0.8886954   -0.1374220    0.4374193
  Z          -0.4267331   -0.5968277    0.6794818

 --------------
 Nucleus  73H :
 --------------

Diamagnetic contribution to the shielding tensor (ppm) : 
            40.688         34.976        -1.666
             7.191         71.112         6.390
           -68.760         66.991       -58.793

Paramagnetic contribution to the shielding tensor (ppm): 
           -16.438        -35.764         3.041
            -5.843        -39.927        -9.322
            68.353        -68.005        88.134

Total shielding tensor (ppm): 
            24.250         -0.789         1.375
             1.348         31.185        -2.932
            -0.407         -1.014        29.341


 Diagonalized sT*s matrix:
 
 sDSO            43.770            9.827           -0.589  iso=      17.669
 sPSO           -19.593           18.339           33.023  iso=      10.590
        ---------------  ---------------  ---------------
 Total           24.177           28.165           32.434  iso=      28.259

 Orientation: 
  X           0.9908550    0.1332686   -0.0211146
  Y          -0.0909788    0.5443033   -0.8339405
  Z          -0.0996454    0.8282351    0.5514503

 --------------
 Nucleus  74H :
 --------------

Diamagnetic contribution to the shielding tensor (ppm) : 
            47.299         33.943         8.837
            18.917         46.720        10.830
           -79.097        121.857         6.034

Paramagnetic contribution to the shielding tensor (ppm): 
           -22.254        -34.219        -7.936
           -17.042        -20.506        -7.890
            79.515       -118.470        27.926

Total shielding tensor (ppm): 
            25.045         -0.276         0.900
             1.874         26.214         2.940
             0.418          3.388        33.960


 Diagonalized sT*s matrix:
 
 sDSO            -3.640           54.542           49.151  iso=      33.351
 sPSO            28.135          -28.984          -13.985  iso=      -4.945
        ---------------  ---------------  ---------------
 Total           24.494           25.559           35.166  iso=      28.406

 Orientation: 
  X           0.7281631    0.6794933    0.0898186
  Y          -0.6634999    0.6659495    0.3409972
  Z           0.1718906   -0.3078962    0.9357636

 --------------
 Nucleus  75H :
 --------------

Diamagnetic contribution to the shielding tensor (ppm) : 
            37.472        -88.773        77.766
             0.252        -41.640        72.233
            34.682        -49.959       -13.758

Paramagnetic contribution to the shielding tensor (ppm): 
            -7.888         89.267       -78.042
            -1.170         67.961       -65.185
           -33.192         58.618        48.744

Total shielding tensor (ppm): 
            29.584          0.494        -0.276
            -0.917         26.321         7.048
             1.490          8.658        34.986


 Diagonalized sT*s matrix:
 
 sDSO           -49.310           40.217           -8.834  iso=      -5.975
 sPSO            70.971          -10.623           48.470  iso=      36.272
        ---------------  ---------------  ---------------
 Total           21.661           29.594           39.636  iso=      30.297

 Orientation: 
  X           0.0407701    0.9979831    0.0486566
  Y           0.8530034   -0.0601234    0.5184307
  Z          -0.5203105   -0.0203677    0.8537342

 --------------
 Nucleus  76H :
 --------------

Diamagnetic contribution to the shielding tensor (ppm) : 
           -16.213         36.579       -27.815
           -22.450         55.139       -23.993
            40.311        -70.710        83.781

Paramagnetic contribution to the shielding tensor (ppm): 
            42.363        -34.529        28.967
            23.505        -31.328        17.840
           -38.792         64.760       -45.342

Total shielding tensor (ppm): 
            26.149          2.049         1.153
             1.055         23.812        -6.153
             1.520         -5.950        38.438


 Diagonalized sT*s matrix:
 
 sDSO            16.187           -3.780          110.300  iso=      40.902
 sPSO             4.742           30.597          -69.646  iso=     -11.436
        ---------------  ---------------  ---------------
 Total           20.929           26.817           40.654  iso=      29.466

 Orientation: 
  X          -0.3534489    0.9337718    0.0560721
  Y           0.8754924    0.3513135   -0.3318011
  Z           0.3295254    0.0681841    0.9416815

 --------------
 Nucleus  77H :
 --------------

Diamagnetic contribution to the shielding tensor (ppm) : 
            -5.103         50.744        -7.643
           -18.861         67.009         3.618
            20.261        -37.897        52.316

Paramagnetic contribution to the shielding tensor (ppm): 
            26.015        -51.894        -0.858
            17.342        -41.150         2.625
           -28.856         45.439       -18.055

Total shielding tensor (ppm): 
            20.912         -1.150        -8.501
            -1.518         25.859         6.242
            -8.595          7.542        34.261


 Diagonalized sT*s matrix:
 
 sDSO            15.442           72.684           26.096  iso=      38.074
 sPSO             0.857          -49.361           15.314  iso=     -11.063
        ---------------  ---------------  ---------------
 Total           16.299           23.323           41.410  iso=      27.011

 Orientation: 
  X          -0.8409292    0.3885455   -0.3766569
  Y           0.2248712    0.8839994    0.4098513
  Z          -0.4922103   -0.2599566    0.8307536

 --------------
 Nucleus  78H :
 --------------

Diamagnetic contribution to the shielding tensor (ppm) : 
           -26.996        -15.319       -33.784
           -37.188         30.766        -8.342
            94.356        -41.805        69.825

Paramagnetic contribution to the shielding tensor (ppm): 
            48.995         13.620        26.404
            36.982         -1.023        11.246
          -101.763         45.167       -44.454

Total shielding tensor (ppm): 
            21.999         -1.699        -7.380
            -0.206         29.743         2.904
            -7.407          3.363        25.371


 Diagonalized sT*s matrix:
 
 sDSO            49.576           11.530           12.489  iso=      24.532
 sPSO           -33.584           15.917           21.185  iso=       1.173
        ---------------  ---------------  ---------------
 Total           15.992           27.447           33.674  iso=      25.704

 Orientation: 
  X          -0.7646448   -0.4639283   -0.4473129
  Y           0.1010093   -0.7717956    0.6277967
  Z          -0.6364868    0.4348587    0.6370106

 --------------
 Nucleus  79H :
 --------------

Diamagnetic contribution to the shielding tensor (ppm) : 
            31.940        -10.984        -0.771
             4.895         23.038        17.420
            88.945        -74.242        93.548

Paramagnetic contribution to the shielding tensor (ppm): 
            -6.750         10.278        -1.290
            -7.109          5.421       -14.041
           -91.879         76.977       -63.858

Total shielding tensor (ppm): 
            25.190         -0.706        -2.062
            -2.214         28.459         3.380
            -2.934          2.735        29.690


 Diagonalized sT*s matrix:
 
 sDSO            72.883           58.482           17.161  iso=      49.509
 sPSO           -48.807          -32.432           16.052  iso=     -21.729
        ---------------  ---------------  ---------------
 Total           24.077           26.050           33.212  iso=      27.780

 Orientation: 
  X           0.9156704    0.1980657   -0.3497394
  Y           0.0413063    0.8191700    0.5720615
  Z           0.3998018   -0.5382662    0.7419084

 --------------
 Nucleus  80H :
 --------------

Diamagnetic contribution to the shielding tensor (ppm) : 
            43.260        -65.931        42.846
            16.926        -27.350        34.375
           112.523        -90.260        47.060

Paramagnetic contribution to the shielding tensor (ppm): 
           -16.552         68.471       -40.554
           -13.032         55.463       -32.398
          -110.088         94.096       -17.576

Total shielding tensor (ppm): 
            26.708          2.540         2.292
             3.894         28.114         1.977
             2.435          3.836        29.484


 Diagonalized sT*s matrix:
 
 sDSO            39.905           -9.054           32.119  iso=      20.990
 sPSO           -15.787           35.353            1.769  iso=       7.112
        ---------------  ---------------  ---------------
 Total           24.118           26.299           33.888  iso=      28.102

 Orientation: 
  X           0.7728546    0.4087064    0.4854429
  Y          -0.6345476    0.4896444    0.5979947
  Z           0.0067098   -0.7701996    0.6377676

 --------------
 Nucleus  81H :
 --------------

Diamagnetic contribution to the shielding tensor (ppm) : 
            48.374        -18.793        30.897
            14.026         33.900        24.191
            96.655        -59.880       111.706

Paramagnetic contribution to the shielding tensor (ppm): 
           -24.063         16.820       -29.351
           -15.232         -4.313       -28.953
           -95.126         59.048       -80.649

Total shielding tensor (ppm): 
            24.312         -1.973         1.545
            -1.206         29.587        -4.762
             1.529         -0.832        31.057


 Diagonalized sT*s matrix:
 
 sDSO            32.631           40.100          121.249  iso=      64.660
 sPSO            -8.854          -12.639          -87.531  iso=     -36.342
        ---------------  ---------------  ---------------
 Total           23.777           27.461           33.717  iso=      28.319

 Orientation: 
  X           0.9725853   -0.0738083    0.2205227
  Y           0.1917732    0.7909411   -0.5810639
  Z          -0.1315331    0.6074245    0.7834121



--------------------------------
CHEMICAL SHIELDING SUMMARY (ppm)
--------------------------------


  Nucleus  Element    Isotropic     Anisotropy
  -------  -------  ------------   ------------
      0       C           26.746        127.453 
      1       C           45.642         98.014 
      2       C           25.487        125.218 
      3       C           77.604        141.358 
      4       C           42.253        194.989 
      5       C           75.072        132.197 
      6       C          139.979         23.144 
      7       C          134.207         16.292 
      8       C          136.471         23.641 
      9       C          142.535         26.893 
     10       C           44.572        184.810 
     11       C           69.611        156.477 
     12       C           30.150        121.389 
     13       C           32.822        123.881 
     14       C           68.075        141.131 
     15       C           57.876        146.858 
     16       C          112.186         66.137 
     17       C          109.246         66.784 
     23       C           95.497         48.960 
     24       C           98.284         35.137 
     25       C           46.343        179.183 
     26       C          110.690         60.074 
     28       C           73.143        165.563 
     29       C           31.865        121.225 
     30       C           30.147        127.094 
     31       C           68.502        143.527 
     32       C           55.875        153.463 
     33       C          124.655         74.904 
     34       C          125.322         75.827 
     35       C          124.300         74.363 
     41       C          124.250         75.586 
     42       H           26.183          7.343 
     43       H           25.831          8.858 
     44       H           29.140          6.070 
     45       H           29.284          4.254 
     46       H           30.156          7.202 
     47       H           29.857          8.787 
     48       H           29.916          7.424 
     49       H           29.478          7.287 
     50       H           25.821          8.178 
     51       H           24.898          4.097 
     52       H           25.196          6.204 
     53       H           27.604          7.165 
     54       H           27.471          6.259 
     55       H           27.738          5.651 
     56       H           28.108          5.739 
     57       H           25.858         13.072 
     58       H           26.284          4.587 
     59       H           27.461          2.749 
     60       H           27.328          5.699 
     61       H           27.697          7.003 
     62       H           28.387         19.938 
     63       H           25.249          7.697 
     64       H           24.799          2.904 
     65       H           24.765          5.042 
     66       H           28.535          6.030 
     67       H           28.057          9.069 
     68       H           27.844          9.475 
     69       H           28.428          6.350 
     70       H           28.216          8.359 
     71       H           27.671          8.370 
     72       H           27.741          7.153 
     73       H           28.259          6.264 
     74       H           28.406         10.140 
     75       H           30.297         14.008 
     76       H           29.466         16.782 
     77       H           27.011         21.600 
     78       H           25.704         11.954 
     79       H           27.780          8.149 
     80       H           28.102          8.680 
     81       H           28.319          8.098 


NMR shielding tensor and spin rotation calculation done in   3.5 sec 

Maximum memory used throughout the entire PROP-calculation: 371.1 MB
--------------------------------------------------------------------------
WARNING: There was an error initializing an OpenFabrics device.

  Local host:   c01b01n07
  Local device: mlx5_0
--------------------------------------------------------------------------
--------------------------------------------------------------------------
WARNING: There is at least one non-excluded one OpenFabrics device found,
but there are no active ports detected (or Open MPI was unable to use
them).  This is most certainly not what you wanted.  Check your
cables, subnet manager configuration, etc.  The openib BTL will be
ignored for this job.

  Local host: c01b01n07
--------------------------------------------------------------------------
[c01b01n07:55349] 52 more processes have sent help message help-mpi-btl-openib.txt / error in device init
[c01b01n07:55349] Set MCA parameter "orte_base_help_aggregate" to 0 to see all help / error messages
[c01b01n07:55349] 6 more processes have sent help message help-mpi-btl-openib.txt / no active ports found

--------------------------------
SUGGESTED CITATIONS FOR THIS RUN
--------------------------------

Below you find a list of papers that are relevant to this ORCA run
We neither can nor want to force you to cite these papers, but we appreciate if you do
You receive ORCA, which is the product of decades of hard work by many enthusiastic individuals, for free
The only thing we kindly ask in return is that you cite our papers,
We deeply appreciate it, if you show your appreciation for ORCA by not just citing the generic ORCA reference.

Please note that relegating all ORCA citations to the supporting information does *not* help us.
SI sections are not indexed - citations you put there will not count into any citation statistics
But we need these citations in order to attract the funding resources that allow us to do what we are doing

Therefore, if you are a happy ORCA user, please consider citing a few of the papers listed below in the main body of your paper

In addition to the list printed below, the program has created the file nmr-conf-5.bibtex that contains the list in bibtex format
You can import this file easily into all common literature databanks and citation aid programs


List of essential papers. We consider these as the minimum necessary citations

  1. Neese, F.
     Software update: the ORCA program system, version 6.0
     WIRES Comput. Molec. Sci. 2025 15(1), e70019
     doi.org/10.1002/wcms.7019

List of papers to cite with high priority. The work reported in these papers was absolutely
necessary for this run to complete.
Our perspective: the developers of density functionals and basis sets usually get cited in chemistry papers
Good! But without the algorithms to do something with them, the functionals or basis sets would not do anything.
Hence, in our opinion, the algorithm design and method developments papers are equally worthy of getting cited

  1. Neese, F.
     An improvement of the resolution of the identity approximation for the formation of the Coulomb matrix
     J. Comp. Chem. 2003 24(14), 1740-1747
     doi.org/10.1002/jcc.10318
  2. Stoychev, G.L.; Auer, A.A.; Neese, F.
     Automatic Generation of Auxiliary Basis Sets
     J. Theo. Comp. Chem. 2017 13 , 554-562
     doi.org/10.1021/acs.jctc.6b01041
  3. Stoychev, G.L.; Auer, A.A.; Izsak, R.; Neese, F.
     Self-Consistent Field Calculation of Nuclear Magnetic Resonance Chemical Shielding Constants Using Gauge-Including Atomic Orbitals and Approximate Two-Electron Integrals
     J. Chem. Theory Comput. 2018 14(2), 619-637
     doi.org/10.1021/acs.jctc.7b01006
  4. Garcia-Rates, M.; Neese, F.
     Effect of the Solute Cavity on the Solvation Energy and its Derivatives within the Framework of the Gaussian Charge Scheme
     J. Comput. Chem. 2020 41 , 922-939
     doi.org/10.1002/jcc.26139
  5. Neese, F.
     The SHARK Integral Generation and Digestion System
     J. Comp. Chem. 2022 44(3), 381
     doi.org/10.1002/jcc.26942

List of suggested additional citations. These are papers that are important in the 'surrounding' of 
of this run, or papers that preceded the highly important papers. If you like your results we are grateful for a citation.

  1. Neese, F.
     The ORCA program system
     WIRES Comput. Molec. Sci. 2012 2(1), 73-78
     doi.org/10.1002/wcms.81
  2. Neese, F.
     Software update: the ORCA program system, version 4.0
     WIRES Comput. Molec. Sci. 2018 8(1), 1-6
     doi.org/10.1002/wcms.1327
  3. Neese, F.; Wennmohs, F.; Becker, U.; Riplinger, C.
     The ORCA quantum chemistry program package
     J. Chem. Phys. 2020 152(22), 224108
     doi.org/10.1063/5.0004608
  4. Neese, F.
     Software update: The ORCA program system—Version 5.0
     WIRES Comput. Molec. Sci. 2022 12(1), e1606
     doi.org/10.1002/wcms.1606

List of optional additional citations

  1. Neese, F.
     Approximate second-order SCF convergence for spin unrestricted wavefunctions
     Chem. Phys. Lett. 2000 325(1-3), 93-98
     doi.org/10.1016/s0009-2614(00)00662-x

Timings for individual modules:

Sum of individual times          ...      314.090 sec (=   5.235 min)
Startup calculation              ...      108.672 sec (=   1.811 min)  34.6 %
SCF iterations                   ...      128.108 sec (=   2.135 min)  40.8 %
Property integrals               ...       50.604 sec (=   0.843 min)  16.1 %
SCF Response                     ...       16.405 sec (=   0.273 min)   5.2 %
Property calculations            ...       10.302 sec (=   0.172 min)   3.3 %
                             ****ORCA TERMINATED NORMALLY****
TOTAL RUN TIME: 0 days 0 hours 5 minutes 42 seconds 209 msec
