
                                 *****************
                                 * O   R   C   A *
                                 *****************

                                            #,                                       
                                            ###                                      
                                            ####                                     
                                            #####                                    
                                            ######                                   
                                           ########,                                 
                                     ,,################,,,,,                         
                               ,,#################################,,                 
                          ,,##########################################,,             
                       ,#########################################, ''#####,          
                    ,#############################################,,   '####,        
                  ,##################################################,,,,####,       
                ,###########''''           ''''###############################       
              ,#####''   ,,,,##########,,,,          '''####'''          '####       
            ,##' ,,,,###########################,,,                        '##       
           ' ,,###''''                  '''############,,,                           
         ,,##''                                '''############,,,,        ,,,,,,###''
      ,#''                                            '''#######################'''  
     '                                                          ''''####''''         
             ,#######,   #######,   ,#######,      ##                                
            ,#'     '#,  ##    ##  ,#'     '#,    #''#        ,####,    ,#,          
            ##       ##  ##   ,#'  ##            #'  '#       #'       ,# #          
            ##       ##  #######   ##           ,######,      #####,      #          
            '#,     ,#'  ##    ##  '#,     ,#' ,#      #,     #,   #      #          
             '#######'   ##     ##  '#######'  #'      '#     '####' #    #          



                #########################################################
                #                        -***-                          #
                #          Department of theory and spectroscopy        #
                #                                                       #
                #                      Frank Neese                      #
                #                                                       #
                #     Directorship, Architecture, Infrastructure        #
                #                    SHARK, DRIVERS                     #
                #        Core code/Algorithms in most modules           #
                #                                                       #
                #        Max Planck Institute fuer Kohlenforschung      #
                #                Kaiser Wilhelm Platz 1                 #
                #                 D-45470 Muelheim/Ruhr                 #
                #                      Germany                          #
                #                                                       #
                #                  All rights reserved                  #
                #                        -***-                          #
                #########################################################


                         Program Version 6.1.0-f.0  -   RELEASE   -


 With contributions from (in alphabetic order):
[Max-Planck-Institut fuer Kohlenforschung]                               
  Daniel Aravena         : Magnetic Suceptibility                        
  Michael Atanasov       : Ab Initio Ligand Field Theory (pilot matlab implementation)
  Alexander A. Auer      : GIAO ZORA, VPT2 properties, NMR spectrum      
  Ute Becker             : All parallelization in ORCA, NUMFREQ, NUMCALC 
  Giovanni Bistoni       : ED, misc. LED, open-shell LED, HFLD           
  Dmytro Bykov           : pre 5.0 version of the SCF Hessian            
  Marcos Casanova-Páez   : Triplet and SCS-CIS(D). UHF-(DLPNO)-IP/EA/STEOM-CCSD. UHF-CVS-IP/STEOM-CCSD   
  Vijay G. Chilkuri      : MRCI spin determinant printing, contributions to CSF-ICE 
  Pauline Colinet        : FMM embedding                                 
  Dipayan Datta          : RHF DLPNO-CCSD density                        
  Achintya Kumar Dutta   : EOM-CC, STEOM-CC                              
  Nicolas Foglia         : Exact transition moments, OPA infrastructure, MCD improvements    
  Dmitry Ganyushin       : Spin-Orbit,Spin-Spin,Magnetic field MRCI      
  Miquel Garcia-Rates    : C-PCM and meta-GGA Hessian, CCSD/C-PCM, Gaussian charge scheme 
  Tiago L. C. Gouveia    : GS-ROHF, GS-ROCIS                             
  Yang Guo               : DLPNO-NEVPT2, F12-NEVPT2, CIM, IAO-localization        
  Andreas Hansen         : Spin unrestricted coupled pair/coupled cluster methods 
  Ingolf Harden          : AUTO-CI MPn and infrastructure                
  Benjamin Helmich-Paris : MC-RPA, TRAH-(SCF,CASSCF), AVAS, COSX integrals, SCF dyn. polar., MC-PDFT, srDFT 
  Lee Huntington         : MR-EOM, pCC                                   
  Robert Izsak           : Overlap fitted RIJCOSX, COSX-SCS-MP3, EOM     
  Riya Kayal             : Wick's Theorem for AUTO-CI, AUTO-CI UHF-CCSDT 
  Emily Kempfer          : AUTO-CI RHF CISDT and CCSDT, approximate NEVPT4
  Christian Kollmar      : KDIIS, OOCD, Brueckner-CCSD(T), CCSD density, CASPT2, CASPT2-K, improved NEVPT2 
  Axel Koslowski         : Symmetry handling                             
  Simone Kossmann        : meta-GGA functionals, TD-DFT gradient, OOMP2, (MP2 Hessian; deprecated post 5.0) 
  Lucas Lang             : DCDCAS, Hyperfine gauge corrections, ICE-SOC+SSC
  Marvin Lechner         : AUTO-CI (C++ implementation), FIC-MRCC        
  Spencer Leger          : CASSCF response                               
  Dagmar Lenk            : GEPOL surface, SMD, ORCA-2-JSON               
  Dimitrios Liakos       : Extrapolation schemes; Compound Job, Property file
  Dimitrios Manganas     : Further ROCIS development; embedding schemes. LFT, Crystal Embedding 
  Dimitrios Pantazis     : SARC Basis sets                               
  Anastasios Papadopoulos: AUTO-CI, single reference methods and gradients 
  Taras Petrenko         : pre 6.0 DFT Hessian and TD-DFT gradient,  ECA, NRVS 
  Petra Pikulova         : Analytic Raman intensities                    
  Peter Pinski           : DLPNO-MP2, DLPNO-MP2 Gradient                 
  Shashank Vittal Rao    : ES-AILFT, MagRelax                            
  Christoph Reimann      : Effective Core Potentials                     
  Marius Retegan         : Local ZFS, SOC                                
  Christoph Riplinger    : Optimizer, TS searches, QM/MM, DLPNO-CCSD(T), (RO)-DLPNO pert. Triples 
  Michael Roemelt        : Original ROCIS implementation, recursive CI coupling coefficients
  Masaaki Saitow         : Open-shell DLPNO-CCSD energy and density      
  Barbara Sandhoefer     : DKH picture change effects                    
  Yorick L. A. Schmerwitz: GMF and freeze-and-release deltaSCF, NEB S-IDPP initial path                    
  Kantharuban Sivalingam : CASSCF convergence/infrastructure, NEVPT2, NEVPT3, NEVPT4(SD), FIC-MRCI and CEPA variants
  Bernardo de Souza      : ESD, SOC TD-DFT                               
  Georgi L. Stoychev     : AutoAux, RI-MP2 NMR, DLPNO-MP2 response, X2C  
  Van Anh Tran           : RI-MP2 g-tensors                              
  Willem Van den Heuvel  : Paramagnetic NMR                              
  Zikuan Wang            : NOTCH, Electric field optimization            
  Frank Wennmohs         : Technical directorship and infrastructure     
  Hang Xu                : AUTO-CI-Response properties                   
                                                                         
[FACCTs GmbH]                                                            
  Markus Bursch, Nicolas Foglia, Miquel Garcia-Rates, Ingolf Harden, Hagen Neugebauer, Anastasios Papadopoulos, 
  Christoph Riplinger, Bernardo de Souza, Georgi L. Stoychev                                                    
                                                                 
  APM, various basis sets, CI-OPT, improved COSX, DLPNO-Multilevel,           
  DOCKER, DRACO, updates on ESD, Fragmentator, GOAT, IRC, LR-CPCM, L-BFGS, MBIS, meta-GGA TD-DFT gradient, ML-optimized integration grids, 
  MM, NACMEs, nearIR, NEB, NEB-TS, NL-DFT gradient (VV10), 2- and 3-layer-ONIOM, interface openCOSMO-RS, QMMM,   
  Crystal-QMMM, RESP, rigid body optimization, SF, symmetry and pop. for TD-DFT, various functionals, SOLVATOR                                   
                                                                         
[Other institutions]                                                     
  V. Asgeirsson          : NEB                                           
  Christoph Bannwarth    : sTDA-DFT, sTD-DFT, PBEh-3c, B97-3c, D3        
  Giovanni Bistoni       : ETS/NOCV, ADLD/ADEX, COVALED                  
  Martin Brehm           : Molecular dynamics                            
  Ronald Cardenas        : ETS/NOCV                                      
  Martina Colucci        : COVALED                                       
  Sebastian Ehlert       : rSCAN, r2SCAN, r2SCAN-3c, D4, dhf basis sets  
  Marvin Friede          : D4 for Fr, Ra, Ac-Lr                          
  Lars Goerigk           : TD-DFT with DH, B97 family of functionals     
  Stefan Grimme          : VdW corrections, initial TS optimization, DFT functionals, gCP, sTDA/sTD-DF 
  Waldemar Hujo          : DFT-NL                                        
  H. Jonsson             : NEB                                           
  Holger Kruse           : gCP                                           
  Marcel Mueller         : wB97X-3c, vDZP basis set                      
  Hagen Neugebauer       : wr2SCAN, Native XTB                           
  Gianluca Regni         : ADLD/ADEX                                     
  Tobias Risthaus        : pre 6.0 range-separated hybrid DFT and stability analysis
  Lukas Wittmann         : regularized MP2, r2SCAN double-hybrids, wr2SCAN        
                                                                         
We gratefully acknowledge several colleagues who have allowed us to      
interface, adapt or use parts of their codes:                            
  Ed Valeev, F. Pavosevic, A. Kumar             : LibInt (2-el integral package), F12 methods 
  Garnet Chan, S. Sharma, J. Yang, R. Olivares  : DMRG                   
  Ulf Ekstrom                                   : XCFun DFT Library      
  Mihaly Kallay                                 : mrcc  (arbitrary order and MRCC methods)
  Frank Weinhold                                : gennbo (NPA and NBO analysis)           
  Simon Mueller                                 : openCOSMO-RS                            
  Christopher J. Cramer and Donald G. Truhlar   : smd solvation model                     
  S Lehtola, MJT Oliveira, MAL Marques          : LibXC Library                           
  Liviu Ungur et al                             : ANISO software                          


 Your calculation uses the libint2 library for the computation of 2-el integrals
 For citations please refer to: http://libint.valeyev.net

 Your ORCA version has been built with support for libXC version: 7.0.0
 For citations please refer to: https://libxc.gitlab.io

 This ORCA versions uses:
   CBLAS   interface :  Fast vector & matrix operations
   LAPACKE interface :  Fast linear algebra routines
   SCALAPACK package :  Parallel linear algebra routines
   Shared memory     :  Shared parallel matrices
   BLAS/LAPACK       :  OpenBLAS 0.3.29  USE64BITINT DYNAMIC_ARCH NO_AFFINITY Cooperlake SINGLE_THREADED
        Core in use  :  Cooperlake
   Copyright (c) 2011-2014, The OpenBLAS Project


  ***********************************
  * Starting time: Tue Mar  3 21:05:09 2026
  * Host name:     c01b01n05
  * Process ID:    2599226
  * Working dir.:  /lustre1/jiangy/jiangy_liuxy/NMR/B9D7C2-SSRS-NMR/opt_conf
  ***********************************

NOTE: MaxCore=5000 MB was set to SCF,MP2,MDCI,CIPSI,MRCI,RASCI and CIS
      => If you want to overwrite this, your respective input block should be placed after the MaxCore statement


***************************************
The coordinates will be read from file: opt-conf-0.xyz
***************************************



Warning: The global flag for NMR shieldings has been found
         but shieldings for certain elements have also been explicitly requested in the EPRNMR block
         ==>> only the requested shieldings will be calculated

================================================================================

----- Orbital basis set information -----
Your calculation utilizes the basis: pcSseg-2
   F. Jensen, J. Chem. Theory Comput. 11, 132 (2015).

----- AuxJ basis set information -----
Your calculation utilizes the AutoAux generation procedure.
  G. L. Stoychev, A. A. Auer, F. Neese, J. Chem. Theory Comput. 13, 554 (2017)

----- AuxC basis set information -----
Your calculation utilizes the AutoAux generation procedure.
  G. L. Stoychev, A. A. Auer, F. Neese, J. Chem. Theory Comput. 13, 554 (2017)

----- AuxJK basis set information -----
Your calculation utilizes the AutoAux generation procedure.
  G. L. Stoychev, A. A. Auer, F. Neese, J. Chem. Theory Comput. 13, 554 (2017)

----- AuxX basis set information -----
Your calculation utilizes the AutoAux generation procedure.
  G. L. Stoychev, A. A. Auer, F. Neese, J. Chem. Theory Comput. 13, 554 (2017)

================================================================================
                                        WARNINGS
                       Please study these warnings very carefully!
================================================================================


================================================================================
                                       INPUT FILE
================================================================================
NAME = nmr-conf-0.inp
|  1> !TPSS PCSSEG-2 AUTOAUX NMR CPCM(Methanol)
|  2> 
|  3> %pal nprocs 60 end
|  4> %maxcore 5000
|  5> 
|  6> *XYZFILE 0 1 opt-conf-0.xyz
|  7> 
|  8> %EPRNMR
|  9>    NUCLEI = ALL C {SHIFT}
| 10>    NUCLEI = ALL H {SHIFT}
| 11>    TAU DOBSON
| 12> END
| 13> 
| 14> 
| 15>                          ****END OF INPUT****
================================================================================

                       ****************************
                       * Single Point Calculation *
                       ****************************

---------------------------------
CARTESIAN COORDINATES (ANGSTROEM)
---------------------------------
  C     14.639603  -18.141775    0.597601
  C     15.232218  -19.194892   -0.110611
  C     14.469045  -20.339721   -0.370571
  C     13.142981  -20.423614    0.045769
  C     12.560328  -19.370169    0.740290
  C     13.324172  -18.248145    1.033929
  C     11.093210  -19.375392    1.082262
  C     10.302091  -18.392807    0.188941
  C     10.306462  -18.796901   -1.310439
  C     10.481309  -17.557917   -2.216184
  C     11.870859  -16.972494   -2.168799
  C     12.938702  -17.688364   -2.719002
  C     14.233885  -17.195438   -2.682821
  C     14.498364  -15.964075   -2.057862
  C     13.439394  -15.246759   -1.527842
  C     12.137531  -15.741499   -1.584070
  C      8.926928  -18.082336    0.780026
  C      9.090052  -19.592666   -1.788251
  O     15.107101  -21.327267   -1.062174
  O     15.397863  -17.031513    0.802412
  O     16.476268  -19.163204   -0.681911
  O     15.753603  -15.428574   -1.991152
  O     15.310597  -17.830488   -3.242132
  C     17.634115  -18.575888   -0.065089
  C     18.273399  -19.568100    0.919452
  C     17.301439  -19.951745    2.009923
  C     18.542756  -18.231331   -1.234079
  O     17.879696  -17.387908   -2.178475
  C     16.742702  -21.230314    2.015590
  C     15.750481  -21.559041    2.926115
  C     15.318026  -20.608011    3.861640
  C     15.896041  -19.349826    3.880186
  C     16.879833  -19.022342    2.954416
  C     14.895645  -16.007787    1.652271
  C     14.340160  -22.449373   -1.485101
  C     15.092797  -19.081355   -3.896793
  O     19.504678  -19.032717    1.421020
  O      8.121582  -19.244400    1.072225
  O      8.872138  -20.809810   -1.075992
  O     15.109611  -22.761211    3.003919
  O     14.330823  -20.916018    4.751243
  C     15.555207  -23.819167    2.156545
  H     12.552386  -21.297063   -0.186640
  H     12.870902  -17.424173    1.564640
  H     10.960271  -19.074878    2.127149
  H     10.691917  -20.384639    0.983348
  H     10.837077  -17.440751    0.249616
  H     11.177136  -19.435656   -1.473676
  H      9.750244  -16.794266   -1.936817
  H     10.253075  -17.846950   -3.247166
  H     12.743714  -18.645168   -3.181987
  H     13.648665  -14.294031   -1.057376
  H     11.328953  -15.161097   -1.156290
  H      9.055911  -17.505359    1.699323
  H      8.338829  -17.478930    0.087240
  H      8.186949  -18.970209   -1.755410
  H      9.249458  -19.871062   -2.832214
  H     16.447762  -16.114212   -2.015761
  H     17.362004  -17.665547    0.462381
  H     18.558794  -20.465007    0.366254
  H     19.416679  -17.691401   -0.876891
  H     18.876606  -19.150692   -1.728127
  H     17.113244  -17.877184   -2.522208
  H     17.061792  -21.951162    1.276591
  H     15.554438  -18.626780    4.610104
  H     17.286358  -18.018681    2.960136
  H     14.674793  -16.400404    2.647842
  H     15.686772  -15.264497    1.718977
  H     13.999963  -15.546624    1.231975
  H     15.027758  -23.090617   -2.031854
  H     13.929256  -22.998957   -0.634923
  H     13.523269  -22.141840   -2.143220
  H     14.396671  -18.964888   -4.729952
  H     16.064687  -19.392242   -4.272773
  H     14.715562  -19.827526   -3.197274
  H     19.314419  -18.244780    1.946686
  H      8.410723  -19.611118    1.916868
  H      8.531791  -20.541392   -0.203550
  H     14.060736  -21.834978    4.602695
  H     16.605096  -24.052625    2.349070
  H     14.935600  -24.678679    2.398962
  H     15.426424  -23.557877    1.105074

----------------------------
CARTESIAN COORDINATES (A.U.)
----------------------------
  NO LB      ZA    FRAG     MASS         X           Y           Z
   0 C     6.0000    0    12.011   27.664840  -34.282986    1.129302
   1 C     6.0000    0    12.011   28.784721  -36.273090   -0.209024
   2 C     6.0000    0    12.011   27.342533  -38.436502   -0.700278
   3 C     6.0000    0    12.011   24.836635  -38.595037    0.086491
   4 C     6.0000    0    12.011   23.735580  -36.604314    1.398946
   5 C     6.0000    0    12.011   25.179037  -34.483996    1.953843
   6 C     6.0000    0    12.011   20.963129  -36.614184    2.045179
   7 C     6.0000    0    12.011   19.468130  -34.757367    0.357046
   8 C     6.0000    0    12.011   19.476390  -35.520996   -2.476371
   9 C     6.0000    0    12.011   19.806803  -33.179654   -4.187981
  10 C     6.0000    0    12.011   22.432673  -32.073366   -4.098436
  11 C     6.0000    0    12.011   24.450603  -33.426163   -5.138169
  12 C     6.0000    0    12.011   26.898145  -32.494668   -5.069797
  13 C     6.0000    0    12.011   27.397937  -30.167730   -3.888796
  14 C     6.0000    0    12.011   25.396774  -28.812199   -2.887203
  15 C     6.0000    0    12.011   22.936610  -29.747121   -2.993458
  16 C     6.0000    0    12.011   16.869449  -34.170663    1.474035
  17 C     6.0000    0    12.011   17.177708  -37.024774   -3.379305
  18 O     8.0000    0    15.999   28.548283  -40.302694   -2.007218
  19 O     8.0000    0    15.999   29.097744  -32.184895    1.516339
  20 O     8.0000    0    15.999   31.135633  -36.213208   -1.288625
  21 O     8.0000    0    15.999   29.769996  -29.155780   -3.762731
  22 O     8.0000    0    15.999   28.932835  -33.694739   -6.126742
  23 C     6.0000    0    12.011   33.323647  -35.103341   -0.123000
  24 C     6.0000    0    12.011   34.531720  -36.978350    1.737512
  25 C     6.0000    0    12.011   32.694982  -37.703333    3.798203
  26 C     6.0000    0    12.011   35.040731  -34.452222   -2.332072
  27 O     8.0000    0    15.999   33.787730  -32.858384   -4.116721
  28 C     6.0000    0    12.011   31.639122  -40.119479    3.808912
  29 C     6.0000    0    12.011   29.764096  -40.740683    5.529556
  30 C     6.0000    0    12.011   28.946874  -38.943496    7.297443
  31 C     6.0000    0    12.011   30.039163  -36.565872    7.332488
  32 C     6.0000    0    12.011   31.898262  -35.947018    5.583038
  33 C     6.0000    0    12.011   28.148690  -30.250333    3.122340
  34 C     6.0000    0    12.011   27.098975  -42.423168   -2.806434
  35 C     6.0000    0    12.011   28.521252  -36.058535   -7.363871
  36 O     8.0000    0    15.999   36.858501  -35.966623    2.685339
  37 O     8.0000    0    15.999   15.347566  -36.366645    2.026211
  38 O     8.0000    0    15.999   16.765910  -39.324841   -2.033331
  39 O     8.0000    0    15.999   28.553027  -43.012455    5.676584
  40 O     8.0000    0    15.999   27.081330  -39.525545    8.978549
  41 C     6.0000    0    12.011   29.395081  -45.011702    4.075280
  42 H     1.0000    0     1.008   23.720572  -40.245616   -0.352699
  43 H     1.0000    0     1.008   24.322481  -32.926915    2.956740
  44 H     1.0000    0     1.008   20.711911  -36.046296    4.019729
  45 H     1.0000    0     1.008   20.204796  -38.521386    1.858259
  46 H     1.0000    0     1.008   20.479107  -32.958244    0.471706
  47 H     1.0000    0     1.008   21.121727  -36.728066   -2.784844
  48 H     1.0000    0     1.008   18.425290  -31.736564   -3.660054
  49 H     1.0000    0     1.008   19.375505  -33.725847   -6.136254
  50 H     1.0000    0     1.008   24.082129  -35.234262   -6.013083
  51 H     1.0000    0     1.008   25.792240  -27.011805   -1.998152
  52 H     1.0000    0     1.008   21.408618  -28.650322   -2.185071
  53 H     1.0000    0     1.008   17.113191  -33.080334    3.211254
  54 H     1.0000    0     1.008   15.758102  -33.030391    0.164860
  55 H     1.0000    0     1.008   15.471092  -35.848500   -3.317244
  56 H     1.0000    0     1.008   17.478942  -37.550866   -5.352109
  57 H     1.0000    0     1.008   31.081766  -30.451448   -3.809237
  58 H     1.0000    0     1.008   32.809432  -33.383046    0.873774
  59 H     1.0000    0     1.008   35.071038  -38.673259    0.692121
  60 H     1.0000    0     1.008   36.692206  -33.431902   -1.657085
  61 H     1.0000    0     1.008   35.671616  -36.189562   -3.265687
  62 H     1.0000    0     1.008   32.339345  -33.782983   -4.766283
  63 H     1.0000    0     1.008   32.242115  -41.481685    2.412408
  64 H     1.0000    0     1.008   29.393628  -35.199513    8.711834
  65 H     1.0000    0     1.008   32.666483  -34.050372    5.593846
  66 H     1.0000    0     1.008   27.731341  -30.992272    5.003697
  67 H     1.0000    0     1.008   29.643703  -28.845719    3.248396
  68 H     1.0000    0     1.008   26.456096  -29.378862    2.328095
  69 H     1.0000    0     1.008   28.398347  -43.634942   -3.839648
  70 H     1.0000    0     1.008   26.322479  -43.461730   -1.199830
  71 H     1.0000    0     1.008   25.555274  -41.842015   -4.050099
  72 H     1.0000    0     1.008   27.205766  -35.838444   -8.938315
  73 H     1.0000    0     1.008   30.357860  -36.646027   -8.074371
  74 H     1.0000    0     1.008   27.808381  -37.468595   -6.041972
  75 H     1.0000    0     1.008   36.498963  -34.477637    3.678703
  76 H     1.0000    0     1.008   15.893962  -37.059642    3.622355
  77 H     1.0000    0     1.008   16.122749  -38.817606   -0.384653
  78 H     1.0000    0     1.008   26.570941  -41.262129    8.697832
  79 H     1.0000    0     1.008   31.379084  -45.452873    4.439098
  80 H     1.0000    0     1.008   28.224194  -46.635944    4.533381
  81 H     1.0000    0     1.008   29.151717  -44.517936    2.088287

--------------------------------
INTERNAL COORDINATES (ANGSTROEM)
--------------------------------
 C      0   0   0     0.000000000000     0.00000000     0.00000000
 C      1   0   0     1.400647804393     0.00000000     0.00000000
 C      2   1   0     1.400230327365   118.55519356     0.00000000
 C      3   2   1     1.392416318118   120.85119310     1.02299675
 C      4   3   2     1.389817007683   120.19895689   359.38426427
 C      5   4   3     1.388747820069   119.17459813   358.78819732
 C      5   4   3     1.506454955695   121.27149554   173.84307492
 C      7   5   4     1.545757470978   111.41018420   254.09309310
 C      8   7   5     1.552884782676   113.02614338    64.87430588
 C      9   8   7     1.544677921789   110.96248137   220.76975564
 C     10   9   8     1.508580457841   113.39749405    71.58129117
 C     11  10   9     1.398385022696   119.49558271    68.79125323
 C     12  11  10     1.386284684745   121.40921913   180.79261731
 C     13  12  11     1.405978797661   119.91813607     1.37061880
 C     14  13  12     1.384514673656   118.68790773   357.86041640
 C     11  10   9     1.388658518537   122.28375781   249.33904488
 C      8   7   5     1.528674748036   111.47199124   196.76868372
 C      9   8   7     1.530097888624   115.76068481    96.00782725
 O      3   2   1     1.364066487012   115.53770833   180.09394238
 O      1   2   3     1.359995602915   117.00451303   181.65730396
 O      2   1   3     1.369323401397   125.30649302   174.01572276
 O     14  13  12     1.366322400088   122.53208579   179.99617130
 O     13  12  11     1.369461993706   123.98770614   182.18962943
 C     21   2   1     1.437365659956   124.21183144    41.12753462
 C     24  21   2     1.537039342101   110.25181367    82.67366354
 C     25  24  21     1.510303064181   111.02635755   299.90136883
 C     24  21   2     1.520160476346   104.12886787   204.12999823
 O     27  24  21     1.429298420576   111.38082564    55.98798294
 C     26  25  24     1.395334678164   119.56383572   107.97420058
 C     29  26  25     1.386225095538   120.43628909   186.45802810
 C     30  29  26     1.402385153084   119.87314754   359.04307152
 C     31  30  29     1.384728470481   119.76161684   359.26659685
 C     32  31  30     1.390015473019   120.03836523     1.46044564
 C     20   1   2     1.422145832931   118.73533966   187.52717507
 C     19   3   2     1.423441913282   117.99064651   186.88404235
 C     23  13  12     1.428525538325   118.25177770   359.59760564
 O     25  24  21     1.433267244551   109.89685977   173.79753455
 O     17   8   7     1.443729418485   114.61942346   305.86165957
 O     18   9   8     1.426967728567   114.15054534   302.22624621
 O     30  29  26     1.364543917096   125.62943312   178.27628454
 O     31  30  29     1.364123110936   120.33708841   179.19439943
 C     40  30  29     1.426838926887   118.20987538     5.33629182
 H      4   3   2     1.079689475965   120.35238966   178.02682146
 H      6   5   4     1.079831436439   119.31056068   179.38234872
 H      7   5   4     1.095340089467   109.49931144   134.25612607
 H      7   5   4     1.090596557066   109.93590333    16.72804117
 H      8   7   5     1.093755313468   105.71886578   309.13964541
 H      9   8   7     1.092120695790   107.38310960   337.30499798
 H     10   9   8     1.093464162977   109.55308357   308.68694109
 H     10   9   8     1.094784444438   108.47150347   192.69945356
 H     12  11  10     1.080671088765   118.94907202     0.86601144
 H     15  14  13     1.082969300654   118.31341534   180.65402595
 H     16  11  10     1.083356009143   119.85830155   359.00407915
 H     17   8   7     1.092998651206   109.04253976    67.94294451
 H     17   8   7     1.090830538452   110.59531948   186.32030634
 H     18   9   8     1.097326890331   110.48241200    66.90757412
 H     18   9   8     1.092141454126   108.36303972   183.90269847
 H     22  14  13     0.975992392296   112.13857451   332.92164875
 H     24  21   2     1.086733216056   110.41837272   321.52770743
 H     25  24  21     1.091750823180   108.32970452    59.54425516
 H     27  24  21     1.087588742763   109.89329778   174.71625185
 H     27  24  21     1.095793605802   109.79456288   294.16617213
 H     28  27  24     0.972107471667   107.60149312   298.51232982
 H     29  26  25     1.080536756541   119.35806058     3.96847339
 H     32  31  30     1.082713715921   118.95424676   180.19912804
 H     33  32  31     1.082881491905   118.72088514   177.34143639
 H     34  20   1     1.092742366619   110.92739991    57.46123724
 H     34  20   1     1.087571150883   105.76789682   176.31321837
 H     34  20   1     1.091588774091   111.33281006   295.02238086
 H     35  19   3     1.087622874077   105.87299595   178.53156406
 H     35  19   3     1.092559898801   111.59052421   297.48844239
 H     35  19   3     1.093164733189   111.08355341    59.60977212
 H     36  23  13     1.091929504696   110.70004620    60.45018477
 H     36  23  13     1.087466767570   105.81380072   179.19061199
 H     36  23  13     1.090139861250   110.97999276   298.00656360
 H     37  25  24     0.966109658594   109.01887056    65.34959268
 H     38  17   8     0.965145579856   108.41160002    80.66893141
 H     39  18   9     0.974186795369   105.38761864    73.23400099
 H     41  31  30     0.969279088078   108.40781529     1.11660970
 H     42  40  30     1.092627815828   110.72378509    59.34196635
 H     42  40  30     1.086939733945   106.01274247   178.43365300
 H     42  40  30     1.091077167894   110.97108599   297.47834186

---------------------------
INTERNAL COORDINATES (A.U.)
---------------------------
 C      0   0   0     0.000000000000     0.00000000     0.00000000
 C      1   0   0     2.646840760381     0.00000000     0.00000000
 C      2   1   0     2.646051843131   118.55519356     0.00000000
 C      3   2   1     2.631285505647   120.85119310     1.02299675
 C      4   3   2     2.626373520787   120.19895689   359.38426427
 C      5   4   3     2.624353049011   119.17459813   358.78819732
 C      5   4   3     2.846787299351   121.27149554   173.84307492
 C      7   5   4     2.921058289610   111.41018420   254.09309310
 C      8   7   5     2.934526956792   113.02614338    64.87430588
 C      9   8   7     2.919018237296   110.96248137   220.76975564
 C     10   9   8     2.850803916304   113.39749405    71.58129117
 C     11  10   9     2.642564722672   119.49558271    68.79125323
 C     12  11  10     2.619698397818   121.40921913   180.79261731
 C     13  12  11     2.656914877680   119.91813607     1.37061880
 C     14  13  12     2.616353561605   118.68790773   357.86041640
 C     11  10   9     2.624184293571   122.28375781   249.33904488
 C      8   7   5     2.888776621630   111.47199124   196.76868372
 C      9   8   7     2.891465967590   115.76068481    96.00782725
 O      3   2   1     2.577712088913   115.53770833   180.09394238
 O      1   2   3     2.570019232846   117.00451303   181.65730396
 O      2   1   3     2.587646217410   125.30649302   174.01572276
 O     14  13  12     2.581975146809   122.53208579   179.99617130
 O     13  12  11     2.587908118917   123.98770614   182.18962943
 C     21   2   1     2.716227451621   124.21183144    41.12753462
 C     24  21   2     2.904583413633   110.25181367    82.67366354
 C     25  24  21     2.854059170523   111.02635755   299.90136883
 C     24  21   2     2.872686979905   104.12886787   204.12999823
 O     27  24  21     2.700982578535   111.38082564    55.98798294
 C     26  25  24     2.636800406894   119.56383572   107.97420058
 C     29  26  25     2.619585790536   120.43628909   186.45802810
 C     30  29  26     2.650123873606   119.87314754   359.04307152
 C     31  30  29     2.616757579053   119.76161684   359.26659685
 C     32  31  30     2.626748565918   120.03836523     1.46044564
 C     20   1   2     2.687466146737   118.73533966   187.52717507
 C     19   3   2     2.689915383647   117.99064651   186.88404235
 C     23  13  12     2.699522042747   118.25177770   359.59760564
 O     25  24  21     2.708482568921   109.89685977   173.79753455
 O     17   8   7     2.728253212423   114.61942346   305.86165957
 O     18   9   8     2.696578208936   114.15054534   302.22624621
 O     30  29  26     2.578614301020   125.62943312   178.27628454
 O     31  30  29     2.577819092621   120.33708841   179.19439943
 C     40  30  29     2.696334809035   118.20987538     5.33629182
 H      4   3   2     2.040317419251   120.35238966   178.02682146
 H      6   5   4     2.040585685668   119.31056068   179.38234872
 H      7   5   4     2.069892792597   109.49931144   134.25612607
 H      7   5   4     2.060928815453   109.93590333    16.72804117
 H      8   7   5     2.066897999976   105.71886578   309.13964541
 H      9   8   7     2.063809020231   107.38310960   337.30499798
 H     10   9   8     2.066347805284   109.55308357   308.68694109
 H     10   9   8     2.068842775665   108.47150347   192.69945356
 H     12  11  10     2.042172398612   118.94907202     0.86601144
 H     15  14  13     2.046515389681   118.31341534   180.65402595
 H     16  11  10     2.047246162819   119.85830155   359.00407915
 H     17   8   7     2.065468115524   109.04253976    67.94294451
 H     17   8   7     2.061370976191   110.59531948   186.32030634
 H     18   9   8     2.073647302113   110.48241200    66.90757412
 H     18   9   8     2.063848247801   108.36303972   183.90269847
 H     22  14  13     1.844358330230   112.13857451   332.92164875
 H     24  21   2     2.053628158982   110.41837272   321.52770743
 H     25  24  21     2.063110062294   108.32970452    59.54425516
 H     27  24  21     2.055244870158   109.89329778   174.71625185
 H     27  24  21     2.070749814269   109.79456288   294.16617213
 H     28  27  24     1.837016894190   107.60149312   298.51232982
 H     29  26  25     2.041918547498   119.35806058     3.96847339
 H     32  31  30     2.046032404532   118.95424676   180.19912804
 H     33  32  31     2.046349455192   118.72088514   177.34143639
 H     34  20   1     2.064983807842   110.92739991    57.46123724
 H     34  20   1     2.055211626323   105.76789682   176.31321837
 H     34  20   1     2.062803833894   111.33281006   295.02238086
 H     35  19   3     2.055309368994   105.87299595   178.53156406
 H     35  19   3     2.064638993639   111.59052421   297.48844239
 H     35  19   3     2.065781964988   111.08355341    59.60977212
 H     36  23  13     2.063447721424   110.70004620    60.45018477
 H     36  23  13     2.055014370448   105.81380072   179.19061199
 H     36  23  13     2.060065785434   110.97999276   298.00656360
 H     37  25  24     1.825682670080   109.01887056    65.34959268
 H     38  17   8     1.823860825292   108.41160002    80.66893141
 H     39  18   9     1.840946246529   105.38761864    73.23400099
 H     41  31  30     1.831672023804   108.40781529     1.11660970
 H     42  40  30     2.064767338219   110.72378509    59.34196635
 H     42  40  30     2.054018421233   106.01274247   178.43365300
 H     42  40  30     2.061837038294   110.97108599   297.47834186

---------------------
BASIS SET INFORMATION
---------------------
There are 3 groups of distinct atoms

 Group   1 Type C   : 11s7p2d1f contracted to 4s5p2d1f pattern {7211/31111/11/1}
 Group   2 Type O   : 11s7p2d1f contracted to 4s5p2d1f pattern {7211/31111/11/1}
 Group   3 Type H   : 6s3p1d contracted to 3s2p1d pattern {411/21/1}

Atom   0C    basis set group =>   1
Atom   1C    basis set group =>   1
Atom   2C    basis set group =>   1
Atom   3C    basis set group =>   1
Atom   4C    basis set group =>   1
Atom   5C    basis set group =>   1
Atom   6C    basis set group =>   1
Atom   7C    basis set group =>   1
Atom   8C    basis set group =>   1
Atom   9C    basis set group =>   1
Atom  10C    basis set group =>   1
Atom  11C    basis set group =>   1
Atom  12C    basis set group =>   1
Atom  13C    basis set group =>   1
Atom  14C    basis set group =>   1
Atom  15C    basis set group =>   1
Atom  16C    basis set group =>   1
Atom  17C    basis set group =>   1
Atom  18O    basis set group =>   2
Atom  19O    basis set group =>   2
Atom  20O    basis set group =>   2
Atom  21O    basis set group =>   2
Atom  22O    basis set group =>   2
Atom  23C    basis set group =>   1
Atom  24C    basis set group =>   1
Atom  25C    basis set group =>   1
Atom  26C    basis set group =>   1
Atom  27O    basis set group =>   2
Atom  28C    basis set group =>   1
Atom  29C    basis set group =>   1
Atom  30C    basis set group =>   1
Atom  31C    basis set group =>   1
Atom  32C    basis set group =>   1
Atom  33C    basis set group =>   1
Atom  34C    basis set group =>   1
Atom  35C    basis set group =>   1
Atom  36O    basis set group =>   2
Atom  37O    basis set group =>   2
Atom  38O    basis set group =>   2
Atom  39O    basis set group =>   2
Atom  40O    basis set group =>   2
Atom  41C    basis set group =>   1
Atom  42H    basis set group =>   3
Atom  43H    basis set group =>   3
Atom  44H    basis set group =>   3
Atom  45H    basis set group =>   3
Atom  46H    basis set group =>   3
Atom  47H    basis set group =>   3
Atom  48H    basis set group =>   3
Atom  49H    basis set group =>   3
Atom  50H    basis set group =>   3
Atom  51H    basis set group =>   3
Atom  52H    basis set group =>   3
Atom  53H    basis set group =>   3
Atom  54H    basis set group =>   3
Atom  55H    basis set group =>   3
Atom  56H    basis set group =>   3
Atom  57H    basis set group =>   3
Atom  58H    basis set group =>   3
Atom  59H    basis set group =>   3
Atom  60H    basis set group =>   3
Atom  61H    basis set group =>   3
Atom  62H    basis set group =>   3
Atom  63H    basis set group =>   3
Atom  64H    basis set group =>   3
Atom  65H    basis set group =>   3
Atom  66H    basis set group =>   3
Atom  67H    basis set group =>   3
Atom  68H    basis set group =>   3
Atom  69H    basis set group =>   3
Atom  70H    basis set group =>   3
Atom  71H    basis set group =>   3
Atom  72H    basis set group =>   3
Atom  73H    basis set group =>   3
Atom  74H    basis set group =>   3
Atom  75H    basis set group =>   3
Atom  76H    basis set group =>   3
Atom  77H    basis set group =>   3
Atom  78H    basis set group =>   3
Atom  79H    basis set group =>   3
Atom  80H    basis set group =>   3
Atom  81H    basis set group =>   3
---------------------------------
AUXILIARY/J BASIS SET INFORMATION
---------------------------------
There are 3 groups of distinct atoms

 Group   1 Type C   : 15s13p12d5f5g contracted to 15s13p12d5f5g pattern {111111111111111/1111111111111/111111111111/11111/11111}
 Group   2 Type O   : 15s13p12d5f5g contracted to 15s13p12d5f5g pattern {111111111111111/1111111111111/111111111111/11111/11111}
 Group   3 Type H   : 12s4p3d2f contracted to 12s4p3d2f pattern {111111111111/1111/111/11}

Atom   0C    basis set group =>   1
Atom   1C    basis set group =>   1
Atom   2C    basis set group =>   1
Atom   3C    basis set group =>   1
Atom   4C    basis set group =>   1
Atom   5C    basis set group =>   1
Atom   6C    basis set group =>   1
Atom   7C    basis set group =>   1
Atom   8C    basis set group =>   1
Atom   9C    basis set group =>   1
Atom  10C    basis set group =>   1
Atom  11C    basis set group =>   1
Atom  12C    basis set group =>   1
Atom  13C    basis set group =>   1
Atom  14C    basis set group =>   1
Atom  15C    basis set group =>   1
Atom  16C    basis set group =>   1
Atom  17C    basis set group =>   1
Atom  18O    basis set group =>   2
Atom  19O    basis set group =>   2
Atom  20O    basis set group =>   2
Atom  21O    basis set group =>   2
Atom  22O    basis set group =>   2
Atom  23C    basis set group =>   1
Atom  24C    basis set group =>   1
Atom  25C    basis set group =>   1
Atom  26C    basis set group =>   1
Atom  27O    basis set group =>   2
Atom  28C    basis set group =>   1
Atom  29C    basis set group =>   1
Atom  30C    basis set group =>   1
Atom  31C    basis set group =>   1
Atom  32C    basis set group =>   1
Atom  33C    basis set group =>   1
Atom  34C    basis set group =>   1
Atom  35C    basis set group =>   1
Atom  36O    basis set group =>   2
Atom  37O    basis set group =>   2
Atom  38O    basis set group =>   2
Atom  39O    basis set group =>   2
Atom  40O    basis set group =>   2
Atom  41C    basis set group =>   1
Atom  42H    basis set group =>   3
Atom  43H    basis set group =>   3
Atom  44H    basis set group =>   3
Atom  45H    basis set group =>   3
Atom  46H    basis set group =>   3
Atom  47H    basis set group =>   3
Atom  48H    basis set group =>   3
Atom  49H    basis set group =>   3
Atom  50H    basis set group =>   3
Atom  51H    basis set group =>   3
Atom  52H    basis set group =>   3
Atom  53H    basis set group =>   3
Atom  54H    basis set group =>   3
Atom  55H    basis set group =>   3
Atom  56H    basis set group =>   3
Atom  57H    basis set group =>   3
Atom  58H    basis set group =>   3
Atom  59H    basis set group =>   3
Atom  60H    basis set group =>   3
Atom  61H    basis set group =>   3
Atom  62H    basis set group =>   3
Atom  63H    basis set group =>   3
Atom  64H    basis set group =>   3
Atom  65H    basis set group =>   3
Atom  66H    basis set group =>   3
Atom  67H    basis set group =>   3
Atom  68H    basis set group =>   3
Atom  69H    basis set group =>   3
Atom  70H    basis set group =>   3
Atom  71H    basis set group =>   3
Atom  72H    basis set group =>   3
Atom  73H    basis set group =>   3
Atom  74H    basis set group =>   3
Atom  75H    basis set group =>   3
Atom  76H    basis set group =>   3
Atom  77H    basis set group =>   3
Atom  78H    basis set group =>   3
Atom  79H    basis set group =>   3
Atom  80H    basis set group =>   3
Atom  81H    basis set group =>   3
---------------------------------
AUXILIARY/C BASIS SET INFORMATION
---------------------------------
There are 3 groups of distinct atoms

 Group   1 Type C   : 15s13p12d5f5g contracted to 15s13p12d5f5g pattern {111111111111111/1111111111111/111111111111/11111/11111}
 Group   2 Type O   : 15s13p12d5f5g contracted to 15s13p12d5f5g pattern {111111111111111/1111111111111/111111111111/11111/11111}
 Group   3 Type H   : 12s4p3d2f contracted to 12s4p3d2f pattern {111111111111/1111/111/11}

Atom   0C    basis set group =>   1
Atom   1C    basis set group =>   1
Atom   2C    basis set group =>   1
Atom   3C    basis set group =>   1
Atom   4C    basis set group =>   1
Atom   5C    basis set group =>   1
Atom   6C    basis set group =>   1
Atom   7C    basis set group =>   1
Atom   8C    basis set group =>   1
Atom   9C    basis set group =>   1
Atom  10C    basis set group =>   1
Atom  11C    basis set group =>   1
Atom  12C    basis set group =>   1
Atom  13C    basis set group =>   1
Atom  14C    basis set group =>   1
Atom  15C    basis set group =>   1
Atom  16C    basis set group =>   1
Atom  17C    basis set group =>   1
Atom  18O    basis set group =>   2
Atom  19O    basis set group =>   2
Atom  20O    basis set group =>   2
Atom  21O    basis set group =>   2
Atom  22O    basis set group =>   2
Atom  23C    basis set group =>   1
Atom  24C    basis set group =>   1
Atom  25C    basis set group =>   1
Atom  26C    basis set group =>   1
Atom  27O    basis set group =>   2
Atom  28C    basis set group =>   1
Atom  29C    basis set group =>   1
Atom  30C    basis set group =>   1
Atom  31C    basis set group =>   1
Atom  32C    basis set group =>   1
Atom  33C    basis set group =>   1
Atom  34C    basis set group =>   1
Atom  35C    basis set group =>   1
Atom  36O    basis set group =>   2
Atom  37O    basis set group =>   2
Atom  38O    basis set group =>   2
Atom  39O    basis set group =>   2
Atom  40O    basis set group =>   2
Atom  41C    basis set group =>   1
Atom  42H    basis set group =>   3
Atom  43H    basis set group =>   3
Atom  44H    basis set group =>   3
Atom  45H    basis set group =>   3
Atom  46H    basis set group =>   3
Atom  47H    basis set group =>   3
Atom  48H    basis set group =>   3
Atom  49H    basis set group =>   3
Atom  50H    basis set group =>   3
Atom  51H    basis set group =>   3
Atom  52H    basis set group =>   3
Atom  53H    basis set group =>   3
Atom  54H    basis set group =>   3
Atom  55H    basis set group =>   3
Atom  56H    basis set group =>   3
Atom  57H    basis set group =>   3
Atom  58H    basis set group =>   3
Atom  59H    basis set group =>   3
Atom  60H    basis set group =>   3
Atom  61H    basis set group =>   3
Atom  62H    basis set group =>   3
Atom  63H    basis set group =>   3
Atom  64H    basis set group =>   3
Atom  65H    basis set group =>   3
Atom  66H    basis set group =>   3
Atom  67H    basis set group =>   3
Atom  68H    basis set group =>   3
Atom  69H    basis set group =>   3
Atom  70H    basis set group =>   3
Atom  71H    basis set group =>   3
Atom  72H    basis set group =>   3
Atom  73H    basis set group =>   3
Atom  74H    basis set group =>   3
Atom  75H    basis set group =>   3
Atom  76H    basis set group =>   3
Atom  77H    basis set group =>   3
Atom  78H    basis set group =>   3
Atom  79H    basis set group =>   3
Atom  80H    basis set group =>   3
Atom  81H    basis set group =>   3
----------------------------------
AUXILIARY/JK BASIS SET INFORMATION
----------------------------------
There are 3 groups of distinct atoms

 Group   1 Type C   : 15s13p12d5f5g contracted to 15s13p12d5f5g pattern {111111111111111/1111111111111/111111111111/11111/11111}
 Group   2 Type O   : 15s13p12d5f5g contracted to 15s13p12d5f5g pattern {111111111111111/1111111111111/111111111111/11111/11111}
 Group   3 Type H   : 12s4p3d2f contracted to 12s4p3d2f pattern {111111111111/1111/111/11}

Atom   0C    basis set group =>   1
Atom   1C    basis set group =>   1
Atom   2C    basis set group =>   1
Atom   3C    basis set group =>   1
Atom   4C    basis set group =>   1
Atom   5C    basis set group =>   1
Atom   6C    basis set group =>   1
Atom   7C    basis set group =>   1
Atom   8C    basis set group =>   1
Atom   9C    basis set group =>   1
Atom  10C    basis set group =>   1
Atom  11C    basis set group =>   1
Atom  12C    basis set group =>   1
Atom  13C    basis set group =>   1
Atom  14C    basis set group =>   1
Atom  15C    basis set group =>   1
Atom  16C    basis set group =>   1
Atom  17C    basis set group =>   1
Atom  18O    basis set group =>   2
Atom  19O    basis set group =>   2
Atom  20O    basis set group =>   2
Atom  21O    basis set group =>   2
Atom  22O    basis set group =>   2
Atom  23C    basis set group =>   1
Atom  24C    basis set group =>   1
Atom  25C    basis set group =>   1
Atom  26C    basis set group =>   1
Atom  27O    basis set group =>   2
Atom  28C    basis set group =>   1
Atom  29C    basis set group =>   1
Atom  30C    basis set group =>   1
Atom  31C    basis set group =>   1
Atom  32C    basis set group =>   1
Atom  33C    basis set group =>   1
Atom  34C    basis set group =>   1
Atom  35C    basis set group =>   1
Atom  36O    basis set group =>   2
Atom  37O    basis set group =>   2
Atom  38O    basis set group =>   2
Atom  39O    basis set group =>   2
Atom  40O    basis set group =>   2
Atom  41C    basis set group =>   1
Atom  42H    basis set group =>   3
Atom  43H    basis set group =>   3
Atom  44H    basis set group =>   3
Atom  45H    basis set group =>   3
Atom  46H    basis set group =>   3
Atom  47H    basis set group =>   3
Atom  48H    basis set group =>   3
Atom  49H    basis set group =>   3
Atom  50H    basis set group =>   3
Atom  51H    basis set group =>   3
Atom  52H    basis set group =>   3
Atom  53H    basis set group =>   3
Atom  54H    basis set group =>   3
Atom  55H    basis set group =>   3
Atom  56H    basis set group =>   3
Atom  57H    basis set group =>   3
Atom  58H    basis set group =>   3
Atom  59H    basis set group =>   3
Atom  60H    basis set group =>   3
Atom  61H    basis set group =>   3
Atom  62H    basis set group =>   3
Atom  63H    basis set group =>   3
Atom  64H    basis set group =>   3
Atom  65H    basis set group =>   3
Atom  66H    basis set group =>   3
Atom  67H    basis set group =>   3
Atom  68H    basis set group =>   3
Atom  69H    basis set group =>   3
Atom  70H    basis set group =>   3
Atom  71H    basis set group =>   3
Atom  72H    basis set group =>   3
Atom  73H    basis set group =>   3
Atom  74H    basis set group =>   3
Atom  75H    basis set group =>   3
Atom  76H    basis set group =>   3
Atom  77H    basis set group =>   3
Atom  78H    basis set group =>   3
Atom  79H    basis set group =>   3
Atom  80H    basis set group =>   3
Atom  81H    basis set group =>   3
---------------------------------
AUXILIARY/X BASIS SET INFORMATION
---------------------------------
There are 3 groups of distinct atoms

 Group   1 Type C   : 15s13p12d5f5g contracted to 15s13p12d5f5g pattern {111111111111111/1111111111111/111111111111/11111/11111}
 Group   2 Type O   : 15s13p12d5f5g contracted to 15s13p12d5f5g pattern {111111111111111/1111111111111/111111111111/11111/11111}
 Group   3 Type H   : 12s4p3d2f contracted to 12s4p3d2f pattern {111111111111/1111/111/11}

Atom   0C    basis set group =>   1
Atom   1C    basis set group =>   1
Atom   2C    basis set group =>   1
Atom   3C    basis set group =>   1
Atom   4C    basis set group =>   1
Atom   5C    basis set group =>   1
Atom   6C    basis set group =>   1
Atom   7C    basis set group =>   1
Atom   8C    basis set group =>   1
Atom   9C    basis set group =>   1
Atom  10C    basis set group =>   1
Atom  11C    basis set group =>   1
Atom  12C    basis set group =>   1
Atom  13C    basis set group =>   1
Atom  14C    basis set group =>   1
Atom  15C    basis set group =>   1
Atom  16C    basis set group =>   1
Atom  17C    basis set group =>   1
Atom  18O    basis set group =>   2
Atom  19O    basis set group =>   2
Atom  20O    basis set group =>   2
Atom  21O    basis set group =>   2
Atom  22O    basis set group =>   2
Atom  23C    basis set group =>   1
Atom  24C    basis set group =>   1
Atom  25C    basis set group =>   1
Atom  26C    basis set group =>   1
Atom  27O    basis set group =>   2
Atom  28C    basis set group =>   1
Atom  29C    basis set group =>   1
Atom  30C    basis set group =>   1
Atom  31C    basis set group =>   1
Atom  32C    basis set group =>   1
Atom  33C    basis set group =>   1
Atom  34C    basis set group =>   1
Atom  35C    basis set group =>   1
Atom  36O    basis set group =>   2
Atom  37O    basis set group =>   2
Atom  38O    basis set group =>   2
Atom  39O    basis set group =>   2
Atom  40O    basis set group =>   2
Atom  41C    basis set group =>   1
Atom  42H    basis set group =>   3
Atom  43H    basis set group =>   3
Atom  44H    basis set group =>   3
Atom  45H    basis set group =>   3
Atom  46H    basis set group =>   3
Atom  47H    basis set group =>   3
Atom  48H    basis set group =>   3
Atom  49H    basis set group =>   3
Atom  50H    basis set group =>   3
Atom  51H    basis set group =>   3
Atom  52H    basis set group =>   3
Atom  53H    basis set group =>   3
Atom  54H    basis set group =>   3
Atom  55H    basis set group =>   3
Atom  56H    basis set group =>   3
Atom  57H    basis set group =>   3
Atom  58H    basis set group =>   3
Atom  59H    basis set group =>   3
Atom  60H    basis set group =>   3
Atom  61H    basis set group =>   3
Atom  62H    basis set group =>   3
Atom  63H    basis set group =>   3
Atom  64H    basis set group =>   3
Atom  65H    basis set group =>   3
Atom  66H    basis set group =>   3
Atom  67H    basis set group =>   3
Atom  68H    basis set group =>   3
Atom  69H    basis set group =>   3
Atom  70H    basis set group =>   3
Atom  71H    basis set group =>   3
Atom  72H    basis set group =>   3
Atom  73H    basis set group =>   3
Atom  74H    basis set group =>   3
Atom  75H    basis set group =>   3
Atom  76H    basis set group =>   3
Atom  77H    basis set group =>   3
Atom  78H    basis set group =>   3
Atom  79H    basis set group =>   3
Atom  80H    basis set group =>   3
Atom  81H    basis set group =>   3
--------------------------------------------------------------------------
WARNING: There was an error initializing an OpenFabrics device.

  Local host:   c01b01n05
  Local device: mlx5_0
--------------------------------------------------------------------------
--------------------------------------------------------------------------
WARNING: There is at least one non-excluded one OpenFabrics device found,
but there are no active ports detected (or Open MPI was unable to use
them).  This is most certainly not what you wanted.  Check your
cables, subnet manager configuration, etc.  The openib BTL will be
ignored for this job.

  Local host: c01b01n05
--------------------------------------------------------------------------


[c01b01n05:2599236] 49 more processes have sent help message help-mpi-btl-openib.txt / error in device init
[c01b01n05:2599236] Set MCA parameter "orte_base_help_aggregate" to 0 to see all help / error messages
[c01b01n05:2599236] 9 more processes have sent help message help-mpi-btl-openib.txt / no active ports found
           ************************************************************
           *        Program running with 60 parallel MPI-processes    *
           *              working on a common directory               *
           ************************************************************
------------------------------------------------------------------------------
                             ORCA STARTUP CALCULATIONS
                           -- RI-GTO INTEGRALS CHOSEN --
------------------------------------------------------------------------------
------------------------------------------------------------------------------
                   ___                                                        
                  /   \      - P O W E R E D   B Y -                         
                 /     \                                                     
                 |  |  |   _    _      __       _____    __    __             
                 |  |  |  | |  | |    /  \     |  _  \  |  |  /  |          
                  \  \/   | |  | |   /    \    | | | |  |  | /  /          
                 / \  \   | |__| |  /  /\  \   | |_| |  |  |/  /          
                |  |  |   |  __  | /  /__\  \  |    /   |      \           
                |  |  |   | |  | | |   __   |  |    \   |  |\   \          
                \     /   | |  | | |  |  |  |  | |\  \  |  | \   \       
                 \___/    |_|  |_| |__|  |__|  |_| \__\ |__|  \__/        
                                                                              
                      - O R C A' S   B I G   F R I E N D -                    
                                      &                                       
                       - I N T E G R A L  F E E D E R -                       
                                                                              
 v1 FN, 2020, v2 2021, v3 2022-2024                                           
------------------------------------------------------------------------------


----------------------
SHARK INTEGRAL PACKAGE
----------------------

Number of atoms                             ...     82
Number of basis functions                   ...   2072
Number of shells                            ...    744
Maximum angular momentum                    ...      3
Integral batch strategy                     ... SHARK/LIBINT Hybrid
RI-J (if used) integral strategy            ... SPLIT-RIJ (Revised 2003 algorithm where possible)
Printlevel                                  ...      1
Contraction scheme used                     ... SEGMENTED contraction
Prescreening option                         ... SCHWARTZ
   Thresh                                   ... 1.000e-10
   Tcut                                     ... 1.000e-11
   Tpresel                                  ... 1.000e-11 
Coulomb Range Separation                    ... NOT USED
Exchange Range Separation                   ... NOT USED
Multipole approximations                    ... NOT USED
Finite Nucleus Model                        ... NOT USED
CABS basis                                  ... NOT available
Auxiliary Coulomb fitting basis             ... AVAILABLE
   # of basis functions in Aux-J            ...  10268
   # of shells in Aux-J                     ...   2940
   Maximum angular momentum in Aux-J        ...      4
Auxiliary J/K fitting basis                 ... AVAILABLE
   # of basis functions in Aux-JK           ...  10268
   # of shells in Aux-JK                    ...   2940
   Maximum angular momentum in Aux-JK       ...      4
Auxiliary Correlation fitting basis         ... AVAILABLE
   # of basis functions in Aux-C            ...  10268
   # of shells in Aux-C                     ...   2940
   Maximum angular momentum in Aux-C        ...      4
Auxiliary 'external' fitting basis          ... NOT available

Checking pre-screening integrals            ... done (  0.0 sec) Dimension = 744
   => SHARK Basis and OBASIS are compatible. Storing Pre-screening
Shell pair information
Shell pair cut-off parameter TPreSel        ...   1.0e-11
Total number of shell pairs                 ...    277140
Shell pairs after pre-screening             ...    154101
Total number of primitive shell pairs       ...    823733
Primitive shell pairs kept                  ...    282379
          la=0 lb=0:  29310 shell pairs
          la=1 lb=0:  51196 shell pairs
          la=1 lb=1:  20852 shell pairs
          la=2 lb=0:  20181 shell pairs
          la=2 lb=1:  15290 shell pairs
          la=2 lb=2:   2728 shell pairs
          la=3 lb=0:   7022 shell pairs
          la=3 lb=1:   5262 shell pairs
          la=3 lb=2:   1892 shell pairs
          la=3 lb=3:    368 shell pairs

Checking whether 4 symmetric matrices of dimension 2072 fit in memory
:Max Core in MB      =   5000.00
 MB in use           =    190.11
 MB left             =   4809.89
 MB needed           =     65.54
 Data fit in memory  = YES
Calculating RI/J V-Matrix + Cholesky decomp.... done (  7.3 sec)
Calculating RI/JK V-Matrix + Cholesky decomp.... done (  4.0 sec)
Calculating RI/C V-Matrix + Cholesky decomp.... done (  3.9 sec)
Calculating Nuclear repulsion               ... done (  0.0 sec) ENN=   5808.181660917361 Eh

Diagonalization of the overlap matrix:
Smallest eigenvalue                        ... 5.838e-06
Time for diagonalization                   ...    3.408 sec
Threshold for overlap eigenvalues          ... 1.000e-07
Number of eigenvalues below threshold      ... 0
Time for construction of square roots      ...    0.387 sec
Total time needed                          ...    3.900 sec

-------------------
DFT GRID GENERATION
-------------------

General Integration Accuracy     IntAcc      ... 4.388
Radial Grid Type                 RadialGrid  ... OptM3 with GC (2021)
Angular Grid (max. ang.)         AngularGrid ... 4 (Lebedev-302)
Angular grid pruning method      GridPruning ... 4 (adaptive)
Weight generation scheme         WeightScheme... mBecke (2022)
Basis function cutoff            BFCut       ... 1.0000e-10
Integration weight cutoff        WCut        ... 1.0000e-14
Partially contracted basis set               ... off
Rotationally invariant grid construction     ... off
Angular grids for H and He will be reduced by one unit
Diffuse basis detected: some atoms will have their outermost
                        angular grid increased by 1.

Total number of grid points                  ...   376777
Total number of batches                      ...     5933
Average number of points per batch           ...       63
Average number of grid points per atom       ...     4595
Grids setup in   4.2 sec
Initializing property integral containers    ... done (  0.2 sec)

SHARK setup successfully completed in  41.5 seconds

Maximum memory used throughout the entire STARTUP-calculation: 262.2 MB
--------------------------------------------------------------------------
WARNING: There was an error initializing an OpenFabrics device.

  Local host:   c01b01n05
  Local device: mlx5_0
--------------------------------------------------------------------------
--------------------------------------------------------------------------
WARNING: There is at least one non-excluded one OpenFabrics device found,
but there are no active ports detected (or Open MPI was unable to use
them).  This is most certainly not what you wanted.  Check your
cables, subnet manager configuration, etc.  The openib BTL will be
ignored for this job.

  Local host: c01b01n05
--------------------------------------------------------------------------
[c01b01n05:2599633] [[61350,0],0] ORTE_ERROR_LOG: Data unpack would read past end of buffer in file util/show_help.c at line 501


           ************************************************************
           *        Program running with 60 parallel MPI-processes    *
           *              working on a common directory               *
           ************************************************************
-------------------------------------------------------------------------------
                                 ORCA GUESS
                   Start orbitals & Density for SCF / CASSCF
-------------------------------------------------------------------------------

------------
SCF SETTINGS
------------
Hamiltonian:
 Density Functional     Method          .... DFT(GTOs)
 Exchange Functional    Exchange        .... TPSS
 Correlation Functional Correlation     .... TPSS
 LDA part of GGA corr.  LDAOpt          .... PW91-LDA
 Gradients option       PostSCFGGA      .... off
   NL short-range parameter             ....  5.000000
 RI-approximation to the Coulomb term is turned on
   Number of AuxJ basis functions       .... 10268


General Settings:
 Integral files         IntName         .... nmr-conf-0
 Hartree-Fock type      HFTyp           .... RHF
 Total Charge           Charge          ....    0
 Multiplicity           Mult            ....    1
 Number of Electrons    NEL             ....  314
 Basis Dimension        Dim             .... 2072
 Nuclear Repulsion      ENuc            ....   5808.1816609174 Eh

Convergence Acceleration:
 AO-DIIS                CNVDIIS         .... on
   Start iteration      DIISMaxIt       ....    12
   Startup error        DIISStart       ....  0.200000
   # of expansion vecs  DIISMaxEq       ....     5
   Bias factor          DIISBfac        ....   1.050
   Max. coefficient     DIISMaxC        ....  10.000
 MO-DIIS                CNVKDIIS        .... off
 Trust-Rad. Augm. Hess. CNVTRAH         .... auto
   Auto Start mean grad. ratio tolernc. ....  1.125000
   Auto Start start iteration           ....    50
   Auto Start num. interpolation iter.  ....    10
   Max. Number of Micro iterations      ....    24
   Max. Number of Macro iterations      .... Maxiter - #DIIS iter
   Number of Davidson start vectors     ....     2
   Converg. threshold    (grad. norm)   ....   5.000e-05
   Grad. Scal. Fac. for Micro threshold ....   0.100
   Minimum threshold for Micro iter.    ....   1.000e-02
   NR start threshold (gradient norm)   ....   1.000e-04
   Initial trust radius                 ....   0.400
   Minimum AH scaling param. (alpha)    ....   1.000
   Maximum AH scaling param. (alpha)    .... 1000.000
   Quad. conv. algorithm                .... NR
   White noise on init. David. guess    .... on
   Maximum white noise                  ....   0.010
   Pseudo random numbers                .... off
   Inactive MOs                         .... canonical
   Orbital update algorithm             .... Taylor
   Preconditioner                       .... Diag
   Full preconditioner red. dimension   ....   250
 SOSCF                 CNVSOSCF           .... on
   Start iteration     SOSCFMaxIt         ....   150
   Startup grad/error  SOSCFStart         ....  0.003300
   Hessian update      SOSCFHessUp        .... L-BFGS
   Autom. constraints  SOSCFAutoConstrain .... off
 Level Shifting         CNVShift        .... on
   Level shift para.    LevelShift      ....    0.2500
   Turn off err/grad.   ShiftErr        ....    0.0010
 Zerner damping         CNVZerner       .... off
 Static damping         CNVDamp         .... on
   Fraction old density DampFac         ....    0.7000
   Max. Damping (<1)    DampMax         ....    0.9800
   Min. Damping (>=0)   DampMin         ....    0.0000
   Turn off err/grad.   DampErr         ....    0.1000

SCF Procedure:
 Maximum # iterations   MaxIter         ....   125
 SCF integral mode      SCFMode         .... Direct
   Integral package                     .... SHARK and LIBINT hybrid scheme
 Reset frequency        DirectResetFreq ....    20
 Integral Threshold     Thresh          ....  1.000e-10 Eh
 Primitive CutOff       TCut            ....  1.000e-11 Eh

Convergence Tolerance:
 Convergence Check Mode ConvCheckMode   .... Total+1el-Energy
 Convergence forced     ConvForced      .... 0
 Energy Change          TolE            ....  1.000e-06 Eh
 1-El. energy change                    ....  1.000e-03 Eh
 Orbital Gradient       TolG            ....  5.000e-05
 Orbital Rotation angle TolX            ....  5.000e-05
 DIIS Error             TolErr          ....  1.000e-06

------------------------------
INITIAL GUESS: MODEL POTENTIAL
------------------------------
Loading Hartree-Fock densities                     ... done
Calculating cut-offs                               ... done
Initializing the effective Hamiltonian             ... done
Setting up the integral package (SHARK)            ... done
Starting the Coulomb interaction                   ... [c01b01n05:2599633] 51 more processes have sent help message help-mpi-btl-openib.txt / error in device init
[c01b01n05:2599633] Set MCA parameter "orte_base_help_aggregate" to 0 to see all help / error messages
[c01b01n05:2599633] 6 more processes have sent help message help-mpi-btl-openib.txt / no active ports found
done (   3.4 sec)
Making the grid                                    ... done (   0.5 sec)
Mapping shells                                     ... done
Starting the XC term evaluation                    ... done (   0.7 sec)
  promolecular density results
     # of electrons  =    313.980620484
     EX              =   -260.299310447
     EC              =    -10.644064216
     EX+EC           =   -270.943374664
Transforming the Hamiltonian                       ... done (   0.3 sec)
Diagonalizing the Hamiltonian                      ... done (   0.5 sec)
Back transforming the eigenvectors                 ... done (   0.3 sec)
Now organizing SCF variables                       ... done
                      ------------------
                      INITIAL GUESS DONE (   6.6 sec)
                      ------------------
             **** ENERGY FILE WAS UPDATED (nmr-conf-0.en.tmp) ****
Finished Guess after  12.8 sec
Maximum memory used throughout the entire GUESS-calculation: 296.2 MB
--------------------------------------------------------------------------
WARNING: There was an error initializing an OpenFabrics device.

  Local host:   c01b01n05
  Local device: mlx5_0
--------------------------------------------------------------------------
--------------------------------------------------------------------------
WARNING: There is at least one non-excluded one OpenFabrics device found,
but there are no active ports detected (or Open MPI was unable to use
them).  This is most certainly not what you wanted.  Check your
cables, subnet manager configuration, etc.  The openib BTL will be
ignored for this job.

  Local host: c01b01n05
--------------------------------------------------------------------------


           ************************************************************
           *        Program running with 60 parallel MPI-processes    *
           *              working on a common directory               *
           ************************************************************

-------------------------------------------------------------------------------------------
                                      ORCA LEAN-SCF
                              memory conserving SCF solver
-------------------------------------------------------------------------------------------

--------------------
CPCM SOLVATION MODEL
--------------------
CPCM parameters:
  Epsilon                                         ...      33.4280
  Refrac                                          ...       1.3288
  Rsolv                                           ...       1.3000
  Surface type                                    ... GAUSSIAN VDW
  Discretization scheme                           ... Constant charge density
    Threshold for H atoms                         ...       5.0000 (charges/Ang^2)
    Threshold for non-H atoms                     ...       5.0000 (charges/Ang^2)
  Epsilon function type                           ...         CPCM
Solvent:                                          ... METHANOL
Radii:
  Scheme                                          ... Element-dependent radii
  Radius for C  used is    3.8550 Bohr (=   2.0400 Ang.)
  Radius for O  used is    3.4469 Bohr (=   1.8240 Ang.)
  Radius for H  used is    2.4944 Bohr (=   1.3200 Ang.)
Calculating surface                               ...        done! (  0.2s)
Cavity surface points                             ...         6090
Cavity Volume                                     ...    4512.4260
Cavity Surface-area                               ...    2016.2931
Calculating surface distance matrix               ...        done! (  0.2s)
Performing Cholesky decomposition & store         ...        [c01b01n05:2600075] 50 more processes have sent help message help-mpi-btl-openib.txt / error in device init
[c01b01n05:2600075] Set MCA parameter "orte_base_help_aggregate" to 0 to see all help / error messages
[c01b01n05:2600075] 8 more processes have sent help message help-mpi-btl-openib.txt / no active ports found
done! (  0.6s)
Overall time for CPCM initialization              ...                 1.2s

----------------------------------------D-I-I-S--------------------------------------------
Iteration    Energy (Eh)           Delta-E    RMSDP     MaxDP     DIISErr   Damp  Time(sec)
-------------------------------------------------------------------------------------------
               ***  Starting incremental Fock matrix formation  ***
    1    -2033.0118145105561780     0.00e+00  8.11e-03  2.47e-01  2.39e-01  0.700  14.8
    2    -2033.4214781007012789    -4.10e-01  6.81e-03  2.20e-01  8.46e-02  0.700   8.7
                               ***Turning on AO-DIIS***
    3    -2033.5738565277533780    -1.52e-01  2.88e-03  7.61e-02  2.39e-02  0.700   7.8
    4    -2033.6659726925809082    -9.21e-02  4.98e-03  1.02e-01  1.13e-02  0.000   6.5
    5    -2033.8702787535594325    -2.04e-01  1.43e-03  4.68e-02  4.94e-03  0.000   6.6
                              *** Initializing SOSCF ***
---------------------------------------S-O-S-C-F--------------------------------------
Iteration    Energy (Eh)           Delta-E    RMSDP     MaxDP     MaxGrad    Time(sec)
--------------------------------------------------------------------------------------
    6    -2033.8716506393611780    -1.37e-03  4.49e-04  1.11e-02  1.42e-03     8.6
               *** Restarting incremental Fock matrix formation ***
    7    -2033.8717635159746351    -1.13e-04  3.63e-04  1.01e-02  1.48e-04     7.4
    8    -2033.8717365403726944     2.70e-05  8.23e-05  2.44e-03  7.67e-04     7.2
    9    -2033.8717787443410998    -4.22e-05  7.15e-05  1.28e-03  1.57e-04     5.7
   10    -2033.8717776946805316     1.05e-06  2.68e-05  7.04e-04  1.60e-04     8.7
   11    -2033.8717786933266325    -9.99e-07  4.09e-05  9.09e-04  3.94e-05     6.5
                 **** Energy Check signals convergence ****

               *****************************************************
               *                     SUCCESS                       *
               *           SCF CONVERGED AFTER  11 CYCLES          *
               *****************************************************

             **** ENERGY FILE WAS UPDATED (nmr-conf-0.en.tmp) ****

----------------
TOTAL SCF ENERGY
----------------

Total Energy       :      -2033.87177849782984 Eh          -55344.46475 eV

Components:
Nuclear Repulsion  :       5808.18166091736111 Eh          158048.65803 eV
Electronic Energy  :      -7842.00427104801383 Eh         -213391.78484 eV
One Electron Energy:     -14345.28057208821156 Eh         -390354.92963 eV
Two Electron Energy:       6503.27630104019772 Eh          176963.14478 eV
CPCM Dielectric    :         -0.04916836717733 Eh              -1.33794 eV

Virial components:
Potential Energy   :      -4061.12497189320402 Eh         -110508.82865 eV
Kinetic Energy     :       2027.25319339537441 Eh           55164.36389 eV
Virial Ratio       :          2.00326480437866

DFT components:
N(Alpha)           :      157.000466602007 electrons
N(Beta)            :      157.000466602007 electrons
N(Total)           :      314.000933204013 electrons
E(X)               :     -268.090233152817 Eh       
E(C)               :      -10.607176187483 Eh       
E(XC)              :     -278.697409340301 Eh       

CPCM Solvation Model Properties:
Surface-charge          :         -0.04276462467102
Corrected charge        :         -0.00000000000000
Outlying charge corr.   :          0.00007949623743 Eh               0.00216 eV
Free-energy (cav+disp)  :  This term is not implemented in the current solvation scheme

---------------
SCF CONVERGENCE
---------------

  Last Energy change         ...    9.9865e-07  Tolerance :   1.0000e-06
  Last MAX-Density change    ...    9.0932e-04  Tolerance :   1.0000e-05
  Last RMS-Density change    ...    4.0864e-05  Tolerance :   1.0000e-06
  Last DIIS Error            ...    1.4185e-03  Tolerance :   1.0000e-06
  Last Orbital Gradient      ...    3.9369e-05  Tolerance :   5.0000e-05
  Last Orbital Rotation      ...    2.6108e-04  Tolerance :   5.0000e-05


----------------
ORBITAL ENERGIES
----------------

  NO   OCC          E(Eh)            E(eV) 
   0   2.0000     -18.918818      -514.8072 
   1   2.0000     -18.917895      -514.7821 
   2   2.0000     -18.911645      -514.6120 
   3   2.0000     -18.907629      -514.5027 
   4   2.0000     -18.906941      -514.4840 
   5   2.0000     -18.902300      -514.3577 
   6   2.0000     -18.896350      -514.1958 
   7   2.0000     -18.891016      -514.0507 
   8   2.0000     -18.886077      -513.9163 
   9   2.0000     -18.885614      -513.9037 
  10   2.0000     -18.863988      -513.3152 
  11   2.0000     -10.044830      -273.3337 
  12   2.0000     -10.044408      -273.3222 
  13   2.0000     -10.042693      -273.2756 
  14   2.0000     -10.041406      -273.2406 
  15   2.0000     -10.039486      -273.1883 
  16   2.0000     -10.037464      -273.1333 
  17   2.0000     -10.037461      -273.1332 
  18   2.0000     -10.037327      -273.1296 
  19   2.0000     -10.036529      -273.1078 
  20   2.0000     -10.034468      -273.0518 
  21   2.0000     -10.033774      -273.0329 
  22   2.0000     -10.031844      -272.9804 
  23   2.0000     -10.031813      -272.9795 
  24   2.0000     -10.030727      -272.9500 
  25   2.0000     -10.030532      -272.9447 
  26   2.0000     -10.020571      -272.6736 
  27   2.0000      -9.987698      -271.7791 
  28   2.0000      -9.986666      -271.7510 
  29   2.0000      -9.985290      -271.7135 
  30   2.0000      -9.985043      -271.7068 
  31   2.0000      -9.984326      -271.6873 
  32   2.0000      -9.984088      -271.6809 
  33   2.0000      -9.983329      -271.6602 
  34   2.0000      -9.981573      -271.6124 
  35   2.0000      -9.981496      -271.6103 
  36   2.0000      -9.980726      -271.5894 
  37   2.0000      -9.979134      -271.5460 
  38   2.0000      -9.978075      -271.5172 
  39   2.0000      -9.975968      -271.4599 
  40   2.0000      -9.972012      -271.3522 
  41   2.0000      -9.969988      -271.2972 
  42   2.0000      -1.012384       -27.5484 
  43   2.0000      -1.007579       -27.4176 
  44   2.0000      -1.004225       -27.3263 
  45   2.0000      -0.994409       -27.0592 
  46   2.0000      -0.985122       -26.8065 
  47   2.0000      -0.981246       -26.7011 
  48   2.0000      -0.974132       -26.5075 
  49   2.0000      -0.961874       -26.1739 
  50   2.0000      -0.958997       -26.0956 
  51   2.0000      -0.953658       -25.9504 
  52   2.0000      -0.936922       -25.4949 
  53   2.0000      -0.796591       -21.6763 
  54   2.0000      -0.794924       -21.6310 
  55   2.0000      -0.790000       -21.4970 
  56   2.0000      -0.757547       -20.6139 
  57   2.0000      -0.734184       -19.9782 
  58   2.0000      -0.715698       -19.4751 
  59   2.0000      -0.701877       -19.0990 
  60   2.0000      -0.699174       -19.0255 
  61   2.0000      -0.695527       -18.9262 
  62   2.0000      -0.693246       -18.8642 
  63   2.0000      -0.685381       -18.6502 
  64   2.0000      -0.669791       -18.2259 
  65   2.0000      -0.649923       -17.6853 
  66   2.0000      -0.646770       -17.5995 
  67   2.0000      -0.645703       -17.5705 
  68   2.0000      -0.641575       -17.4581 
  69   2.0000      -0.622584       -16.9414 
  70   2.0000      -0.618032       -16.8175 
  71   2.0000      -0.609793       -16.5933 
  72   2.0000      -0.578903       -15.7527 
  73   2.0000      -0.566342       -15.4109 
  74   2.0000      -0.560499       -15.2519 
  75   2.0000      -0.555064       -15.1041 
  76   2.0000      -0.547425       -14.8962 
  77   2.0000      -0.542557       -14.7637 
  78   2.0000      -0.536240       -14.5918 
  79   2.0000      -0.531915       -14.4741 
  80   2.0000      -0.511278       -13.9126 
  81   2.0000      -0.509527       -13.8649 
  82   2.0000      -0.501781       -13.6542 
  83   2.0000      -0.498132       -13.5549 
  84   2.0000      -0.482096       -13.1185 
  85   2.0000      -0.476458       -12.9651 
  86   2.0000      -0.472659       -12.8617 
  87   2.0000      -0.469926       -12.7873 
  88   2.0000      -0.465032       -12.6542 
  89   2.0000      -0.457244       -12.4422 
  90   2.0000      -0.451379       -12.2827 
  91   2.0000      -0.450590       -12.2612 
  92   2.0000      -0.447946       -12.1892 
  93   2.0000      -0.444310       -12.0903 
  94   2.0000      -0.438044       -11.9198 
  95   2.0000      -0.435475       -11.8499 
  96   2.0000      -0.428407       -11.6575 
  97   2.0000      -0.422905       -11.5078 
  98   2.0000      -0.420481       -11.4419 
  99   2.0000      -0.420184       -11.4338 
 100   2.0000      -0.416036       -11.3209 
 101   2.0000      -0.409701       -11.1485 
 102   2.0000      -0.404974       -11.0199 
 103   2.0000      -0.402900       -10.9635 
 104   2.0000      -0.400642       -10.9020 
 105   2.0000      -0.396706       -10.7949 
 106   2.0000      -0.394435       -10.7331 
 107   2.0000      -0.390798       -10.6342 
 108   2.0000      -0.384298       -10.4573 
 109   2.0000      -0.382331       -10.4038 
 110   2.0000      -0.381241       -10.3741 
 111   2.0000      -0.380814       -10.3625 
 112   2.0000      -0.376938       -10.2570 
[...]
  X           0.3796790    0.8897360    0.2534044
  Y          -0.9015305    0.2943875    0.3171415
  Z           0.2075731   -0.3488637    0.9138969

 --------------
 Nucleus  73H :
 --------------

Diamagnetic contribution to the shielding tensor (ppm) : 
            49.643        -15.780         0.803
             6.971         16.915        18.454
           -71.100         95.369       -37.349

Paramagnetic contribution to the shielding tensor (ppm): 
           -22.862         15.247        -1.945
            -8.944         10.445       -14.981
            67.832        -91.296        66.260

Total shielding tensor (ppm): 
            26.780         -0.533        -1.142
            -1.973         27.360         3.473
            -3.269          4.073        28.911


 Diagonalized sT*s matrix:
 
 sDSO           -69.608           36.193           62.623  iso=       9.736
 sPSO            93.793          -10.320          -29.630  iso=      17.948
        ---------------  ---------------  ---------------
 Total           24.185           25.873           32.993  iso=      27.684

 Orientation: 
  X          -0.2184565    0.8926063   -0.3943738
  Y           0.7026969    0.4243114    0.5711190
  Z          -0.6771217    0.1523606    0.7199253

 --------------
 Nucleus  74H :
 --------------

Diamagnetic contribution to the shielding tensor (ppm) : 
            47.381         28.908        -6.888
            11.908         64.065         1.730
           -62.207         77.774       -39.941

Paramagnetic contribution to the shielding tensor (ppm): 
           -23.052        -27.765         7.487
            -9.412        -32.567        -4.993
            61.923        -78.472        68.999

Total shielding tensor (ppm): 
            24.330          1.143         0.599
             2.497         31.498        -3.263
            -0.284         -0.698        29.058


 Diagonalized sT*s matrix:
 
 sDSO            46.566            3.039           21.901  iso=      23.835
 sPSO           -22.747           25.154           10.973  iso=       4.460
        ---------------  ---------------  ---------------
 Total           23.819           28.193           32.874  iso=      28.295

 Orientation: 
  X           0.9563356    0.2206062   -0.1917163
  Y          -0.2710391    0.4239598   -0.8641735
  Z          -0.1093620    0.8784025    0.4652408

 --------------
 Nucleus  75H :
 --------------

Diamagnetic contribution to the shielding tensor (ppm) : 
            71.002        -77.112        68.378
            29.504        -23.981        62.851
            22.836         -1.597       -38.856

Paramagnetic contribution to the shielding tensor (ppm): 
           -42.885         78.598       -67.834
           -28.806         56.689       -54.347
           -21.797         11.352        67.181

Total shielding tensor (ppm): 
            28.116          1.486         0.545
             0.698         32.708         8.504
             1.038          9.755        28.326


 Diagonalized sT*s matrix:
 
 sDSO           -61.243           66.491            2.917  iso=       2.722
 sPSO            82.373          -38.527           37.138  iso=      26.995
        ---------------  ---------------  ---------------
 Total           21.130           27.964           40.055  iso=      29.717

 Orientation: 
  X          -0.0163127    0.9937757    0.1101990
  Y           0.6114755   -0.0772858    0.7874799
  Z          -0.7910952   -0.0802299    0.6064088

 --------------
 Nucleus  76H :
 --------------

Diamagnetic contribution to the shielding tensor (ppm) : 
           -18.455         43.222       -35.506
           -24.728         59.830       -29.779
            34.438        -76.157        88.796

Paramagnetic contribution to the shielding tensor (ppm): 
            45.123        -41.516        36.496
            25.286        -34.854        22.077
           -33.273         68.738       -52.045

Total shielding tensor (ppm): 
            26.668          1.706         0.990
             0.558         24.976        -7.702
             1.165         -7.418        36.751


 Diagonalized sT*s matrix:
 
 sDSO            16.519          -10.561          124.213  iso=      43.390
 sPSO             4.377           37.598          -83.751  iso=     -13.925
        ---------------  ---------------  ---------------
 Total           20.896           27.037           40.461  iso=      29.465

 Orientation: 
  X          -0.2600527    0.9647926    0.0393423
  Y           0.8651505    0.2509022   -0.4342381
  Z           0.4288208    0.0788877    0.8999386

 --------------
 Nucleus  77H :
 --------------

Diamagnetic contribution to the shielding tensor (ppm) : 
             0.377         54.099       -10.806
           -15.157         66.628         0.808
            10.943        -41.926        65.644

Paramagnetic contribution to the shielding tensor (ppm): 
            19.973        -53.677         2.885
            15.159        -42.305         5.670
           -19.011         49.737       -29.855

Total shielding tensor (ppm): 
            20.350          0.423        -7.920
             0.002         24.323         6.479
            -8.068          7.811        35.790


 Diagonalized sT*s matrix:
 
 sDSO            19.498           72.162           40.988  iso=      44.216
 sPSO            -3.838          -49.024            0.676  iso=     -17.396
        ---------------  ---------------  ---------------
 Total           15.660           23.138           41.664  iso=      26.821

 Orientation: 
  X          -0.7990484    0.5041861   -0.3275943
  Y           0.3850665    0.8475552    0.3652040
  Z          -0.4617851   -0.1656701    0.8713828

 --------------
 Nucleus  78H :
 --------------

Diamagnetic contribution to the shielding tensor (ppm) : 
           -48.690         31.638       -46.174
           -50.697         63.023       -31.426
            64.039        -58.769        23.458

Paramagnetic contribution to the shielding tensor (ppm): 
            69.704        -27.124        41.730
            54.616        -30.352        34.047
           -68.925         59.992         0.337

Total shielding tensor (ppm): 
            21.014          4.514        -4.445
             3.919         32.671         2.622
            -4.886          1.224        23.795


 Diagonalized sT*s matrix:
 
 sDSO             7.248          -13.104           43.647  iso=      12.597
 sPSO             9.031           40.252           -9.594  iso=      13.230
        ---------------  ---------------  ---------------
 Total           16.278           27.148           34.053  iso=      25.827

 Orientation: 
  X          -0.7857865   -0.5473419   -0.2880215
  Y           0.2707033    0.1143517   -0.9558470
  Z          -0.5561108    0.8290600   -0.0583113

 --------------
 Nucleus  79H :
 --------------

Diamagnetic contribution to the shielding tensor (ppm) : 
           -43.233        -62.899       -28.267
           -72.912         -4.112       -36.885
            -1.750        -23.340      -121.497

Paramagnetic contribution to the shielding tensor (ppm): 
            71.711         58.738        28.019
            67.619         34.847        37.253
             0.783         22.015       146.565

Total shielding tensor (ppm): 
            28.478         -4.162        -0.247
            -5.293         30.735         0.367
            -0.966         -1.324        25.068


 Diagonalized sT*s matrix:
 
 sDSO          -135.593          -79.860           46.611  iso=     -56.281
 sPSO           159.712          105.556          -12.145  iso=      84.374
        ---------------  ---------------  ---------------
 Total           24.118           25.697           34.466  iso=      28.094

 Orientation: 
  X           0.5991765   -0.4983653   -0.6265936
  Y           0.4750714   -0.4086469    0.7793041
  Z           0.6444336    0.7646174    0.0080925

 --------------
 Nucleus  80H :
 --------------

Diamagnetic contribution to the shielding tensor (ppm) : 
           -59.857         14.953       -37.378
           -60.464         50.111       -33.530
             4.107        -21.775       -58.762

Paramagnetic contribution to the shielding tensor (ppm): 
            84.297        -14.396        36.209
            62.672        -16.823        33.600
            -4.548         22.568        83.868

Total shielding tensor (ppm): 
            24.440          0.557        -1.170
             2.208         33.288         0.070
            -0.440          0.793        25.106


 Diagonalized sT*s matrix:
 
 sDSO           -61.237          -45.326           38.056  iso=     -22.836
 sPSO            84.937           70.952           -4.548  iso=      50.447
        ---------------  ---------------  ---------------
 Total           23.700           25.626           33.508  iso=      27.611

 Orientation: 
  X          -0.8388301    0.5197986   -0.1617821
  Y           0.1536202   -0.0590890   -0.9863617
  Z          -0.5222689   -0.8522429   -0.0302860

 --------------
 Nucleus  81H :
 --------------

Diamagnetic contribution to the shielding tensor (ppm) : 
           -40.313         -3.749       -41.642
           -62.130         45.475       -38.260
           -49.462         27.573       -58.611

Paramagnetic contribution to the shielding tensor (ppm): 
            64.067          3.562        42.531
            61.003        -17.407        40.560
            50.573        -28.415        90.197

Total shielding tensor (ppm): 
            23.754         -0.187         0.889
            -1.127         28.068         2.300
             1.111         -0.842        31.585


 Diagonalized sT*s matrix:
 
 sDSO           -37.358           52.092          -68.184  iso=     -17.816
 sPSO            60.865          -24.012          100.004  iso=      45.619
        ---------------  ---------------  ---------------
 Total           23.507           28.080           31.820  iso=      27.803

 Orientation: 
  X           0.9759749    0.1906191    0.1055337
  Y           0.1742978   -0.9736876    0.1468085
  Z          -0.1307414    0.1248871    0.9835191



--------------------------------
CHEMICAL SHIELDING SUMMARY (ppm)
--------------------------------


  Nucleus  Element    Isotropic     Anisotropy
  -------  -------  ------------   ------------
      0       C           27.224        119.870 
      1       C           46.629        103.331 
      2       C           28.243        123.099 
      3       C           76.042        130.613 
      4       C           45.261        190.478 
      5       C           76.635        142.800 
      6       C          139.966         20.936 
      7       C          133.442         13.678 
      8       C          135.281         23.661 
      9       C          142.007         23.755 
     10       C           44.309        185.906 
     11       C           69.075        154.138 
     12       C           29.332        120.002 
     13       C           32.305        122.910 
     14       C           65.040        142.669 
     15       C           58.297        146.816 
     16       C          111.882         65.314 
     17       C          109.433         67.572 
     23       C           96.191         40.815 
     24       C           98.598         38.402 
     25       C           44.609        179.366 
     26       C          110.900         59.057 
     28       C           68.938        144.955 
     29       C           31.937        119.876 
     30       C           31.085        126.135 
     31       C           67.099        148.199 
     32       C           62.490        176.906 
     33       C          126.290         73.896 
     34       C          124.009         76.179 
     35       C          124.970         74.035 
     41       C          124.101         78.892 
     42       H           25.655          8.501 
     43       H           26.411          8.463 
     44       H           29.173          6.255 
     45       H           29.377          4.345 
     46       H           30.177          6.859 
     47       H           29.852          7.693 
     48       H           30.001          7.134 
     49       H           29.510          7.418 
     50       H           25.686          8.972 
     51       H           25.028          3.891 
     52       H           25.257          5.658 
     53       H           27.655          7.145 
     54       H           27.478          6.188 
     55       H           27.704          5.526 
     56       H           28.092          5.646 
     57       H           24.341         23.701 
     58       H           25.609          5.078 
     59       H           27.564          3.291 
     60       H           27.431          5.714 
     61       H           27.742          6.651 
     62       H           26.940         22.801 
     63       H           24.872          7.310 
     64       H           25.031          3.860 
     65       H           24.787          5.269 
     66       H           28.542          8.072 
     67       H           27.723          8.791 
     68       H           28.307          6.172 
     69       H           27.565          9.356 
     70       H           27.818          7.841 
     71       H           27.994          8.281 
     72       H           28.227         10.102 
     73       H           27.684          7.964 
     74       H           28.295          6.868 
     75       H           29.717         15.508 
     76       H           29.465         16.495 
     77       H           26.821         22.265 
     78       H           25.827         12.340 
     79       H           28.094          9.558 
     80       H           27.611          8.845 
     81       H           27.803          6.027 


NMR shielding tensor and spin rotation calculation done in   2.5 sec 

Maximum memory used throughout the entire PROP-calculation: 371.1 MB
[c01b01n05:2601332] 49 more processes have sent help message help-mpi-btl-openib.txt / error in device init
[c01b01n05:2601332] Set MCA parameter "orte_base_help_aggregate" to 0 to see all help / error messages
[c01b01n05:2601332] 9 more processes have sent help message help-mpi-btl-openib.txt / no active ports found
--------------------------------------------------------------------------
WARNING: There was an error initializing an OpenFabrics device.

  Local host:   c01b01n05
  Local device: mlx5_0
--------------------------------------------------------------------------
--------------------------------------------------------------------------
WARNING: There is at least one non-excluded one OpenFabrics device found,
but there are no active ports detected (or Open MPI was unable to use
them).  This is most certainly not what you wanted.  Check your
cables, subnet manager configuration, etc.  The openib BTL will be
ignored for this job.

  Local host: c01b01n05
--------------------------------------------------------------------------
[c01b01n05:2601786] 51 more processes have sent help message help-mpi-btl-openib.txt / error in device init
[c01b01n05:2601786] Set MCA parameter "orte_base_help_aggregate" to 0 to see all help / error messages
[c01b01n05:2601786] 7 more processes have sent help message help-mpi-btl-openib.txt / no active ports found

--------------------------------
SUGGESTED CITATIONS FOR THIS RUN
--------------------------------

Below you find a list of papers that are relevant to this ORCA run
We neither can nor want to force you to cite these papers, but we appreciate if you do
You receive ORCA, which is the product of decades of hard work by many enthusiastic individuals, for free
The only thing we kindly ask in return is that you cite our papers,
We deeply appreciate it, if you show your appreciation for ORCA by not just citing the generic ORCA reference.

Please note that relegating all ORCA citations to the supporting information does *not* help us.
SI sections are not indexed - citations you put there will not count into any citation statistics
But we need these citations in order to attract the funding resources that allow us to do what we are doing

Therefore, if you are a happy ORCA user, please consider citing a few of the papers listed below in the main body of your paper

In addition to the list printed below, the program has created the file nmr-conf-0.bibtex that contains the list in bibtex format
You can import this file easily into all common literature databanks and citation aid programs


List of essential papers. We consider these as the minimum necessary citations

  1. Neese, F.
     Software update: the ORCA program system, version 6.0
     WIRES Comput. Molec. Sci. 2025 15(1), e70019
     doi.org/10.1002/wcms.7019

List of papers to cite with high priority. The work reported in these papers was absolutely
necessary for this run to complete.
Our perspective: the developers of density functionals and basis sets usually get cited in chemistry papers
Good! But without the algorithms to do something with them, the functionals or basis sets would not do anything.
Hence, in our opinion, the algorithm design and method developments papers are equally worthy of getting cited

  1. Neese, F.
     An improvement of the resolution of the identity approximation for the formation of the Coulomb matrix
     J. Comp. Chem. 2003 24(14), 1740-1747
     doi.org/10.1002/jcc.10318
  2. Stoychev, G.L.; Auer, A.A.; Neese, F.
     Automatic Generation of Auxiliary Basis Sets
     J. Theo. Comp. Chem. 2017 13 , 554-562
     doi.org/10.1021/acs.jctc.6b01041
  3. Stoychev, G.L.; Auer, A.A.; Izsak, R.; Neese, F.
     Self-Consistent Field Calculation of Nuclear Magnetic Resonance Chemical Shielding Constants Using Gauge-Including Atomic Orbitals and Approximate Two-Electron Integrals
     J. Chem. Theory Comput. 2018 14(2), 619-637
     doi.org/10.1021/acs.jctc.7b01006
  4. Garcia-Rates, M.; Neese, F.
     Effect of the Solute Cavity on the Solvation Energy and its Derivatives within the Framework of the Gaussian Charge Scheme
     J. Comput. Chem. 2020 41 , 922-939
     doi.org/10.1002/jcc.26139
  5. Neese, F.
     The SHARK Integral Generation and Digestion System
     J. Comp. Chem. 2022 44(3), 381
     doi.org/10.1002/jcc.26942

List of suggested additional citations. These are papers that are important in the 'surrounding' of 
of this run, or papers that preceded the highly important papers. If you like your results we are grateful for a citation.

  1. Neese, F.
     The ORCA program system
     WIRES Comput. Molec. Sci. 2012 2(1), 73-78
     doi.org/10.1002/wcms.81
  2. Neese, F.
     Software update: the ORCA program system, version 4.0
     WIRES Comput. Molec. Sci. 2018 8(1), 1-6
     doi.org/10.1002/wcms.1327
  3. Neese, F.; Wennmohs, F.; Becker, U.; Riplinger, C.
     The ORCA quantum chemistry program package
     J. Chem. Phys. 2020 152(22), 224108
     doi.org/10.1063/5.0004608
  4. Neese, F.
     Software update: The ORCA program system—Version 5.0
     WIRES Comput. Molec. Sci. 2022 12(1), e1606
     doi.org/10.1002/wcms.1606

List of optional additional citations

  1. Neese, F.
     Approximate second-order SCF convergence for spin unrestricted wavefunctions
     Chem. Phys. Lett. 2000 325(1-3), 93-98
     doi.org/10.1016/s0009-2614(00)00662-x

Timings for individual modules:

Sum of individual times          ...      286.992 sec (=   4.783 min)
Startup calculation              ...       91.434 sec (=   1.524 min)  31.9 %
SCF iterations                   ...      123.200 sec (=   2.053 min)  42.9 %
Property integrals               ...       50.703 sec (=   0.845 min)  17.7 %
SCF Response                     ...       14.585 sec (=   0.243 min)   5.1 %
Property calculations            ...        7.071 sec (=   0.118 min)   2.5 %
                             ****ORCA TERMINATED NORMALLY****
TOTAL RUN TIME: 0 days 0 hours 5 minutes 9 seconds 817 msec
