
                                 *****************
                                 * O   R   C   A *
                                 *****************

                                            #,                                       
                                            ###                                      
                                            ####                                     
                                            #####                                    
                                            ######                                   
                                           ########,                                 
                                     ,,################,,,,,                         
                               ,,#################################,,                 
                          ,,##########################################,,             
                       ,#########################################, ''#####,          
                    ,#############################################,,   '####,        
                  ,##################################################,,,,####,       
                ,###########''''           ''''###############################       
              ,#####''   ,,,,##########,,,,          '''####'''          '####       
            ,##' ,,,,###########################,,,                        '##       
           ' ,,###''''                  '''############,,,                           
         ,,##''                                '''############,,,,        ,,,,,,###''
      ,#''                                            '''#######################'''  
     '                                                          ''''####''''         
             ,#######,   #######,   ,#######,      ##                                
            ,#'     '#,  ##    ##  ,#'     '#,    #''#        ,####,    ,#,          
            ##       ##  ##   ,#'  ##            #'  '#       #'       ,# #          
            ##       ##  #######   ##           ,######,      #####,      #          
            '#,     ,#'  ##    ##  '#,     ,#' ,#      #,     #,   #      #          
             '#######'   ##     ##  '#######'  #'      '#     '####' #    #          



                #########################################################
                #                        -***-                          #
                #          Department of theory and spectroscopy        #
                #                                                       #
                #                      Frank Neese                      #
                #                                                       #
                #     Directorship, Architecture, Infrastructure        #
                #                    SHARK, DRIVERS                     #
                #        Core code/Algorithms in most modules           #
                #                                                       #
                #        Max Planck Institute fuer Kohlenforschung      #
                #                Kaiser Wilhelm Platz 1                 #
                #                 D-45470 Muelheim/Ruhr                 #
                #                      Germany                          #
                #                                                       #
                #                  All rights reserved                  #
                #                        -***-                          #
                #########################################################


                         Program Version 6.1.0-f.0  -   RELEASE   -


 With contributions from (in alphabetic order):
[Max-Planck-Institut fuer Kohlenforschung]                               
  Daniel Aravena         : Magnetic Suceptibility                        
  Michael Atanasov       : Ab Initio Ligand Field Theory (pilot matlab implementation)
  Alexander A. Auer      : GIAO ZORA, VPT2 properties, NMR spectrum      
  Ute Becker             : All parallelization in ORCA, NUMFREQ, NUMCALC 
  Giovanni Bistoni       : ED, misc. LED, open-shell LED, HFLD           
  Dmytro Bykov           : pre 5.0 version of the SCF Hessian            
  Marcos Casanova-Páez   : Triplet and SCS-CIS(D). UHF-(DLPNO)-IP/EA/STEOM-CCSD. UHF-CVS-IP/STEOM-CCSD   
  Vijay G. Chilkuri      : MRCI spin determinant printing, contributions to CSF-ICE 
  Pauline Colinet        : FMM embedding                                 
  Dipayan Datta          : RHF DLPNO-CCSD density                        
  Achintya Kumar Dutta   : EOM-CC, STEOM-CC                              
  Nicolas Foglia         : Exact transition moments, OPA infrastructure, MCD improvements    
  Dmitry Ganyushin       : Spin-Orbit,Spin-Spin,Magnetic field MRCI      
  Miquel Garcia-Rates    : C-PCM and meta-GGA Hessian, CCSD/C-PCM, Gaussian charge scheme 
  Tiago L. C. Gouveia    : GS-ROHF, GS-ROCIS                             
  Yang Guo               : DLPNO-NEVPT2, F12-NEVPT2, CIM, IAO-localization        
  Andreas Hansen         : Spin unrestricted coupled pair/coupled cluster methods 
  Ingolf Harden          : AUTO-CI MPn and infrastructure                
  Benjamin Helmich-Paris : MC-RPA, TRAH-(SCF,CASSCF), AVAS, COSX integrals, SCF dyn. polar., MC-PDFT, srDFT 
  Lee Huntington         : MR-EOM, pCC                                   
  Robert Izsak           : Overlap fitted RIJCOSX, COSX-SCS-MP3, EOM     
  Riya Kayal             : Wick's Theorem for AUTO-CI, AUTO-CI UHF-CCSDT 
  Emily Kempfer          : AUTO-CI RHF CISDT and CCSDT, approximate NEVPT4
  Christian Kollmar      : KDIIS, OOCD, Brueckner-CCSD(T), CCSD density, CASPT2, CASPT2-K, improved NEVPT2 
  Axel Koslowski         : Symmetry handling                             
  Simone Kossmann        : meta-GGA functionals, TD-DFT gradient, OOMP2, (MP2 Hessian; deprecated post 5.0) 
  Lucas Lang             : DCDCAS, Hyperfine gauge corrections, ICE-SOC+SSC
  Marvin Lechner         : AUTO-CI (C++ implementation), FIC-MRCC        
  Spencer Leger          : CASSCF response                               
  Dagmar Lenk            : GEPOL surface, SMD, ORCA-2-JSON               
  Dimitrios Liakos       : Extrapolation schemes; Compound Job, Property file
  Dimitrios Manganas     : Further ROCIS development; embedding schemes. LFT, Crystal Embedding 
  Dimitrios Pantazis     : SARC Basis sets                               
  Anastasios Papadopoulos: AUTO-CI, single reference methods and gradients 
  Taras Petrenko         : pre 6.0 DFT Hessian and TD-DFT gradient,  ECA, NRVS 
  Petra Pikulova         : Analytic Raman intensities                    
  Peter Pinski           : DLPNO-MP2, DLPNO-MP2 Gradient                 
  Shashank Vittal Rao    : ES-AILFT, MagRelax                            
  Christoph Reimann      : Effective Core Potentials                     
  Marius Retegan         : Local ZFS, SOC                                
  Christoph Riplinger    : Optimizer, TS searches, QM/MM, DLPNO-CCSD(T), (RO)-DLPNO pert. Triples 
  Michael Roemelt        : Original ROCIS implementation, recursive CI coupling coefficients
  Masaaki Saitow         : Open-shell DLPNO-CCSD energy and density      
  Barbara Sandhoefer     : DKH picture change effects                    
  Yorick L. A. Schmerwitz: GMF and freeze-and-release deltaSCF, NEB S-IDPP initial path                    
  Kantharuban Sivalingam : CASSCF convergence/infrastructure, NEVPT2, NEVPT3, NEVPT4(SD), FIC-MRCI and CEPA variants
  Bernardo de Souza      : ESD, SOC TD-DFT                               
  Georgi L. Stoychev     : AutoAux, RI-MP2 NMR, DLPNO-MP2 response, X2C  
  Van Anh Tran           : RI-MP2 g-tensors                              
  Willem Van den Heuvel  : Paramagnetic NMR                              
  Zikuan Wang            : NOTCH, Electric field optimization            
  Frank Wennmohs         : Technical directorship and infrastructure     
  Hang Xu                : AUTO-CI-Response properties                   
                                                                         
[FACCTs GmbH]                                                            
  Markus Bursch, Nicolas Foglia, Miquel Garcia-Rates, Ingolf Harden, Hagen Neugebauer, Anastasios Papadopoulos, 
  Christoph Riplinger, Bernardo de Souza, Georgi L. Stoychev                                                    
                                                                 
  APM, various basis sets, CI-OPT, improved COSX, DLPNO-Multilevel,           
  DOCKER, DRACO, updates on ESD, Fragmentator, GOAT, IRC, LR-CPCM, L-BFGS, MBIS, meta-GGA TD-DFT gradient, ML-optimized integration grids, 
  MM, NACMEs, nearIR, NEB, NEB-TS, NL-DFT gradient (VV10), 2- and 3-layer-ONIOM, interface openCOSMO-RS, QMMM,   
  Crystal-QMMM, RESP, rigid body optimization, SF, symmetry and pop. for TD-DFT, various functionals, SOLVATOR                                   
                                                                         
[Other institutions]                                                     
  V. Asgeirsson          : NEB                                           
  Christoph Bannwarth    : sTDA-DFT, sTD-DFT, PBEh-3c, B97-3c, D3        
  Giovanni Bistoni       : ETS/NOCV, ADLD/ADEX, COVALED                  
  Martin Brehm           : Molecular dynamics                            
  Ronald Cardenas        : ETS/NOCV                                      
  Martina Colucci        : COVALED                                       
  Sebastian Ehlert       : rSCAN, r2SCAN, r2SCAN-3c, D4, dhf basis sets  
  Marvin Friede          : D4 for Fr, Ra, Ac-Lr                          
  Lars Goerigk           : TD-DFT with DH, B97 family of functionals     
  Stefan Grimme          : VdW corrections, initial TS optimization, DFT functionals, gCP, sTDA/sTD-DF 
  Waldemar Hujo          : DFT-NL                                        
  H. Jonsson             : NEB                                           
  Holger Kruse           : gCP                                           
  Marcel Mueller         : wB97X-3c, vDZP basis set                      
  Hagen Neugebauer       : wr2SCAN, Native XTB                           
  Gianluca Regni         : ADLD/ADEX                                     
  Tobias Risthaus        : pre 6.0 range-separated hybrid DFT and stability analysis
  Lukas Wittmann         : regularized MP2, r2SCAN double-hybrids, wr2SCAN        
                                                                         
We gratefully acknowledge several colleagues who have allowed us to      
interface, adapt or use parts of their codes:                            
  Ed Valeev, F. Pavosevic, A. Kumar             : LibInt (2-el integral package), F12 methods 
  Garnet Chan, S. Sharma, J. Yang, R. Olivares  : DMRG                   
  Ulf Ekstrom                                   : XCFun DFT Library      
  Mihaly Kallay                                 : mrcc  (arbitrary order and MRCC methods)
  Frank Weinhold                                : gennbo (NPA and NBO analysis)           
  Simon Mueller                                 : openCOSMO-RS                            
  Christopher J. Cramer and Donald G. Truhlar   : smd solvation model                     
  S Lehtola, MJT Oliveira, MAL Marques          : LibXC Library                           
  Liviu Ungur et al                             : ANISO software                          


 Your calculation uses the libint2 library for the computation of 2-el integrals
 For citations please refer to: http://libint.valeyev.net

 Your ORCA version has been built with support for libXC version: 7.0.0
 For citations please refer to: https://libxc.gitlab.io

 This ORCA versions uses:
   CBLAS   interface :  Fast vector & matrix operations
   LAPACKE interface :  Fast linear algebra routines
   SCALAPACK package :  Parallel linear algebra routines
   Shared memory     :  Shared parallel matrices
   BLAS/LAPACK       :  OpenBLAS 0.3.29  USE64BITINT DYNAMIC_ARCH NO_AFFINITY Cooperlake SINGLE_THREADED
        Core in use  :  Cooperlake
   Copyright (c) 2011-2014, The OpenBLAS Project


  ***********************************
  * Starting time: Tue Mar  3 21:10:37 2026
  * Host name:     c01b01n05
  * Process ID:    2602257
  * Working dir.:  /lustre1/jiangy/jiangy_liuxy/NMR/B9D7C2-SSRS-NMR/opt_conf
  ***********************************

NOTE: MaxCore=5000 MB was set to SCF,MP2,MDCI,CIPSI,MRCI,RASCI and CIS
      => If you want to overwrite this, your respective input block should be placed after the MaxCore statement


***************************************
The coordinates will be read from file: opt-conf-4.xyz
***************************************



Warning: The global flag for NMR shieldings has been found
         but shieldings for certain elements have also been explicitly requested in the EPRNMR block
         ==>> only the requested shieldings will be calculated

================================================================================

----- Orbital basis set information -----
Your calculation utilizes the basis: pcSseg-2
   F. Jensen, J. Chem. Theory Comput. 11, 132 (2015).

----- AuxJ basis set information -----
Your calculation utilizes the AutoAux generation procedure.
  G. L. Stoychev, A. A. Auer, F. Neese, J. Chem. Theory Comput. 13, 554 (2017)

----- AuxC basis set information -----
Your calculation utilizes the AutoAux generation procedure.
  G. L. Stoychev, A. A. Auer, F. Neese, J. Chem. Theory Comput. 13, 554 (2017)

----- AuxJK basis set information -----
Your calculation utilizes the AutoAux generation procedure.
  G. L. Stoychev, A. A. Auer, F. Neese, J. Chem. Theory Comput. 13, 554 (2017)

----- AuxX basis set information -----
Your calculation utilizes the AutoAux generation procedure.
  G. L. Stoychev, A. A. Auer, F. Neese, J. Chem. Theory Comput. 13, 554 (2017)

================================================================================
                                        WARNINGS
                       Please study these warnings very carefully!
================================================================================


================================================================================
                                       INPUT FILE
================================================================================
NAME = nmr-conf-4.inp
|  1> !TPSS PCSSEG-2 AUTOAUX NMR CPCM(Methanol)
|  2> 
|  3> %pal nprocs 60 end
|  4> %maxcore 5000
|  5> 
|  6> *XYZFILE 0 1 opt-conf-4.xyz
|  7> 
|  8> %EPRNMR
|  9>    NUCLEI = ALL C {SHIFT}
| 10>    NUCLEI = ALL H {SHIFT}
| 11>    TAU DOBSON
| 12> END
| 13> 
| 14> 
| 15>                          ****END OF INPUT****
================================================================================

                       ****************************
                       * Single Point Calculation *
                       ****************************

---------------------------------
CARTESIAN COORDINATES (ANGSTROEM)
---------------------------------
  C     14.561265  -19.460883    3.372937
  C     15.356169  -20.280869    2.567342
  C     14.822858  -20.795541    1.380810
  C     13.522542  -20.472705    0.997404
  C     12.726032  -19.673083    1.814351
  C     13.249231  -19.171161    3.002291
  C     11.304213  -19.367981    1.412700
  C     11.155495  -18.326539    0.280218
  C      9.721229  -18.420682   -0.310100
  C      9.574989  -19.601320   -1.323146
  C     10.784807  -19.942493   -2.161197
  C     11.421143  -18.971024   -2.940447
  C     12.582754  -19.265091   -3.629350
  C     13.111108  -20.562731   -3.609242
  C     12.473337  -21.538319   -2.863598
  C     11.328450  -21.222698   -2.133605
  C     11.583245  -16.945751    0.769125
  C      9.096142  -17.118510   -0.828561
  O     15.646488  -21.609834    0.669415
  O     15.158465  -18.981725    4.498248
  O     16.596102  -20.636177    3.035593
  O     14.241215  -20.866253   -4.310516
  O     13.325358  -18.343634   -4.329018
  C     17.809629  -20.353450    2.312113
  C     17.987739  -18.847833    2.053423
  C     17.028333  -18.302927    1.025984
  C     18.897537  -20.940640    3.196484
  O     18.962221  -20.317578    4.476902
  C     17.040168  -18.812804   -0.276229
  C     16.132571  -18.356674   -1.215534
  C     15.194723  -17.376802   -0.856164
  C     15.215512  -16.833284    0.414943
  C     16.131239  -17.297988    1.354097
  C     14.405925  -18.111130    5.338674
  C     15.176675  -22.110895   -0.578941
  C     12.650232  -17.176963   -4.815893
  O     19.349063  -18.691005    1.618683
  O     11.896818  -16.039775   -0.305613
  O      9.743762  -16.496662   -1.937040
  O     16.045360  -18.785948   -2.505828
  O     14.261488  -16.948433   -1.760752
  C     17.082769  -19.632292   -2.999802
  H     13.114729  -20.860307    0.075202
  H     12.629592  -18.549804    3.631569
  H     10.744197  -19.019317    2.285417
  H     10.825405  -20.293635    1.085614
  H     11.872116  -18.598633   -0.495574
  H      9.063640  -18.672848    0.531270
  H      8.727623  -19.372563   -1.976806
  H      9.293588  -20.501241   -0.773826
  H     11.016910  -17.970132   -2.956650
  H     12.884324  -22.539893   -2.848050
  H     10.859842  -21.990448   -1.529682
  H     10.800120  -16.462218    1.354818
  H     12.459676  -17.049209    1.412018
  H      8.078115  -17.343012   -1.154308
  H      9.017389  -16.404100   -0.001602
  H     14.532028  -20.066950   -4.774694
  H     17.810560  -20.885871    1.359479
  H     17.836858  -18.318330    2.998461
  H     18.708434  -22.014791    3.300157
  H     19.868322  -20.803046    2.726384
  H     18.086448  -20.394254    4.878306
  H     17.751084  -19.580606   -0.542914
  H     14.510500  -16.052663    0.668147
  H     16.123674  -16.889991    2.356615
  H     13.523954  -18.614721    5.742189
  H     15.071924  -17.836000    6.153085
  H     14.095941  -17.212655    4.799353
  H     15.997094  -22.689415   -0.996499
  H     14.305182  -22.755077   -0.440822
  H     14.917353  -21.296512   -1.256468
  H     12.363668  -16.516017   -3.996043
  H     13.361544  -16.668238   -5.461706
  H     11.762657  -17.460753   -5.384513
  H     19.447064  -17.789865    1.285678
  H     12.649498  -16.399540   -0.806734
  H     10.589639  -16.165706   -1.578901
  H     14.331910  -17.469050   -2.580285
  H     17.064009  -20.605203   -2.505389
  H     16.889505  -19.759795   -4.060978
  H     18.059863  -19.165796   -2.855234

----------------------------
CARTESIAN COORDINATES (A.U.)
----------------------------
  NO LB      ZA    FRAG     MASS         X           Y           Z
   0 C     6.0000    0    12.011   27.516804  -36.775739    6.373928
   1 C     6.0000    0    12.011   29.018954  -38.325289    4.851573
   2 C     6.0000    0    12.011   28.011142  -39.297878    2.609353
   3 C     6.0000    0    12.011   25.553901  -38.687806    1.884820
   4 C     6.0000    0    12.011   24.048715  -37.176740    3.428627
   5 C     6.0000    0    12.011   25.037418  -36.228244    5.673508
   6 C     6.0000    0    12.011   21.361867  -36.600179    2.669617
   7 C     6.0000    0    12.011   21.080830  -34.632140    0.529535
   8 C     6.0000    0    12.011   18.370460  -34.810044   -0.586004
   9 C     6.0000    0    12.011   18.094107  -37.041127   -2.500384
  10 C     6.0000    0    12.011   20.380332  -37.685851   -4.084070
  11 C     6.0000    0    12.011   21.582832  -35.850040   -5.556639
  12 C     6.0000    0    12.011   23.777960  -36.405747   -6.858477
  13 C     6.0000    0    12.011   24.776403  -38.857930   -6.820479
  14 C     6.0000    0    12.011   23.571190  -40.701524   -5.411416
  15 C     6.0000    0    12.011   21.407668  -40.105086   -4.031929
  16 C     6.0000    0    12.011   21.889161  -32.022829    1.453435
  17 C     6.0000    0    12.011   17.189218  -32.349297   -1.565754
  18 O     8.0000    0    15.999   29.567577  -40.836669    1.265011
  19 O     8.0000    0    15.999   28.645348  -35.870263    8.500456
  20 O     8.0000    0    15.999   31.362088  -38.996723    5.736439
  21 O     8.0000    0    15.999   26.911996  -39.431503   -8.145694
  22 O     8.0000    0    15.999   25.181278  -34.664445   -8.180658
  23 C     6.0000    0    12.011   33.655321  -38.462446    4.369260
  24 C     6.0000    0    12.011   33.991900  -35.617243    3.880406
  25 C     6.0000    0    12.011   32.178886  -34.587520    1.938828
  26 C     6.0000    0    12.011   35.711170  -39.572075    6.040479
  27 O     8.0000    0    15.999   35.833404  -38.394657    8.460120
  28 C     6.0000    0    12.011   32.201252  -35.551048   -0.521997
  29 C     6.0000    0    12.011   30.486141  -34.689086   -2.297026
  30 C     6.0000    0    12.011   28.713865  -32.837396   -1.617915
  31 C     6.0000    0    12.011   28.753151  -31.810297    0.784129
  32 C     6.0000    0    12.011   30.483624  -32.688461    2.558872
  33 C     6.0000    0    12.011   27.223254  -34.225075   10.088632
  34 C     6.0000    0    12.011   28.679759  -41.783535   -1.094040
  35 C     6.0000    0    12.011   23.905474  -32.459756   -9.100719
  36 O     8.0000    0    15.999   36.564431  -35.320880    3.058868
  37 O     8.0000    0    15.999   22.481727  -30.310782   -0.577524
  38 O     8.0000    0    15.999   18.413041  -31.174173   -3.660475
  39 O     8.0000    0    15.999   30.321337  -35.500297   -4.735328
  40 O     8.0000    0    15.999   26.950307  -32.027896   -3.327340
  41 C     6.0000    0    12.011   32.281755  -37.099655   -5.668805
  42 H     1.0000    0     1.008   24.783245  -39.420268    0.142111
  43 H     1.0000    0     1.008   23.866471  -35.054049    6.862672
  44 H     1.0000    0     1.008   20.303589  -35.941300    4.318813
  45 H     1.0000    0     1.008   20.457051  -38.349413    2.051513
  46 H     1.0000    0     1.008   22.435048  -35.146323   -0.936500
  47 H     1.0000    0     1.008   17.127797  -35.286570    1.003956
  48 H     1.0000    0     1.008   16.492818  -36.608838   -3.735621
  49 H     1.0000    0     1.008   17.562336  -38.741731   -1.462320
  50 H     1.0000    0     1.008   20.818943  -33.958628   -5.587258
  51 H     1.0000    0     1.008   24.347843  -42.594225   -5.382035
  52 H     1.0000    0     1.008   20.522127  -41.555925   -2.890680
  53 H     1.0000    0     1.008   20.409268  -31.109084    2.560234
  54 H     1.0000    0     1.008   23.545376  -32.218336    2.668328
  55 H     1.0000    0     1.008   15.265425  -32.773544   -2.181325
  56 H     1.0000    0     1.008   17.040395  -30.999257   -0.003027
  57 H     1.0000    0     1.008   27.461553  -37.921040   -9.022864
  58 H     1.0000    0     1.008   33.657082  -39.468576    2.569043
  59 H     1.0000    0     1.008   33.706777  -34.616627    5.666269
  60 H     1.0000    0     1.008   35.353817  -41.601926    6.236392
  61 H     1.0000    0     1.008   37.545687  -39.312060    5.152119
  62 H     1.0000    0     1.008   34.178434  -38.539554    9.218663
  63 H     1.0000    0     1.008   33.544687  -37.001984   -1.025958
  64 H     1.0000    0     1.008   27.420871  -30.335136    1.262615
  65 H     1.0000    0     1.008   30.469328  -31.917458    4.453357
  66 H     1.0000    0     1.008   25.556570  -35.176725   10.851164
  67 H     1.0000    0     1.008   28.481808  -33.705155   11.627646
  68 H     1.0000    0     1.008   26.637468  -32.527203    9.069463
  69 H     1.0000    0     1.008   30.230126  -42.876781   -1.883111
  70 H     1.0000    0     1.008   27.032877  -43.000864   -0.833033
  71 H     1.0000    0     1.008   28.189712  -40.244575   -2.374381
  72 H     1.0000    0     1.008   23.363947  -31.210750   -7.551427
  73 H     1.0000    0     1.008   25.249658  -31.498404  -10.321129
  74 H     1.0000    0     1.008   22.228201  -32.996041  -10.175256
  75 H     1.0000    0     1.008   36.749625  -33.617973    2.429579
  76 H     1.0000    0     1.008   23.904087  -30.990639   -1.524506
  77 H     1.0000    0     1.008   20.011517  -30.548757   -2.983691
  78 H     1.0000    0     1.008   27.083384  -33.011720   -4.876032
  79 H     1.0000    0     1.008   32.246305  -38.938190   -4.734499
  80 H     1.0000    0     1.008   31.916539  -37.340601   -7.674137
  81 H     1.0000    0     1.008   34.128194  -36.218106   -5.395610

--------------------------------
INTERNAL COORDINATES (ANGSTROEM)
--------------------------------
 C      0   0   0     0.000000000000     0.00000000     0.00000000
 C      1   0   0     1.397581413310     0.00000000     0.00000000
 C      2   1   0     1.398987404524   119.20319101     0.00000000
 C      3   2   1     1.393572694828   120.25302825     1.16360997
 C      4   3   2     1.393279169896   120.33521643   357.75130984
 C      5   4   3     1.391712989556   119.50908073     1.55712922
 C      5   4   3     1.508634926189   119.91687191   182.07312123
 C      7   5   4     1.545714684013   114.96065168   284.62284313
 C      8   7   5     1.553851904928   109.04615007   163.36541492
 C      9   8   7     1.562548295196   112.23896247   279.77717813
 C     10   9   8     1.510757088141   117.08607175   326.48416102
 C     11  10   9     1.398536771226   121.10332156   305.38230440
 C     12  11  10     1.382173940154   120.81849284   175.32831540
 C     13  12  11     1.401224189035   120.44900328     2.99076994
 C     14  13  12     1.383657557811   119.13626356   358.40103509
 C     11  10   9     1.391126082474   120.64839917   122.69935663
 C      8   7   5     1.525967078634   110.36207291   291.63142309
 C      9   8   7     1.534661333942   116.93004725   147.47866008
 O      3   2   1     1.359236030015   115.67691329   181.53156276
 O      1   2   3     1.361088958408   115.69366463   181.06030754
 O      2   1   3     1.372201205736   117.98033384   185.32195742
 O     14  13  12     1.364204204034   120.73227034   178.57360183
 O     13  12  11     1.374801414598   124.40336167   185.38816576
 C     21   2   1     1.440834970549   122.60875424   237.42560065
 C     24  21   2     1.538026418334   111.96743991    58.53098365
 C     25  24  21     1.507651295765   113.24981799   288.51051351
 C     24  21   2     1.520016442775   103.58340038   180.77851142
 O     27  24  21     1.425434157824   112.72127965   297.77165550
 C     26  25  24     1.398525201308   119.82787660   299.76056638
 C     29  26  25     1.383503342097   120.42594953   177.61958052
 C     30  29  26     1.403158811432   119.65782118   359.95499939
 C     31  30  29     1.382590550015   119.99595456     2.60865276
 C     26  25  24     1.386483967247   120.82609365   119.83502826
 C     20   1   2     1.424980677366   118.09787345   178.35025730
 C     19   3   2     1.424843450978   117.99689952   182.91438788
 C     23  13  12     1.433165861407   117.64910696   334.92332120
 O     25  24  21     1.437636291069   105.50416109   167.01116996
 O     17   8   7     1.440201999093   113.02650339   160.53981604
 O     18   9   8     1.426475175508   116.58314132    63.72704167
 O     30  29  26     1.362622869367   125.52199732   180.48180861
 O     31  30  29     1.368469203118   120.33849105   182.22441752
 C     40  30  29     1.427068830601   117.90989617   350.50548751
 H      4   3   2     1.080279563225   120.26440167   179.25258731
 H      6   5   4     1.079827767599   119.29012996   179.85016885
 H      7   5   4     1.093992620178   109.54293895   161.91627060
 H      7   5   4     1.092281651527   108.75172526    45.85021857
 H      8   7   5     1.090612275446   106.84914401    46.00742867
 H      9   8   7     1.097230880397   106.00972485    34.47773712
 H     10   9   8     1.094362635719   107.56397218   202.59106897
 H     10   9   8     1.091236278394   108.71654016    88.38577128
 H     12  11  10     1.079561137395   118.81645355   358.34914966
 H     15  14  13     1.082729811561   119.01291275   180.10910317
 H     16  11  10     1.083401022247   119.61496510     1.99329954
 H     17   8   7     1.090928860692   111.82965341   280.26150314
 H     17   8   7     1.091855138115   109.14247287    39.17750548
 H     18   9   8     1.092195540153   107.81833806   183.12691238
 H     18   9   8     1.095648910541   109.12038695   298.98891275
 H     22  14  13     0.968978162136   108.14021718   359.03318025
 H     24  21   2     1.091321943961   110.07814995   296.72381324
 H     25  24  21     1.093725533222   108.21723545    49.50931293
 H     27  24  21     1.095585402265   108.07528086    60.27780841
 H     27  24  21     1.087358826601   109.78970735   178.58119227
 H     28  27  24     0.966427096888   107.29502146    56.10736987
 H     29  26  25     1.079834123491   119.65412809   358.76402981
 H     32  31  30     1.081907577796   119.27532829   177.76677147
 H     33  26  25     1.082387067162   119.79660120     0.63942676
 H     34  20   1     1.092840971733   111.25007889    62.33313525
 H     34  20   1     1.087435484195   105.83345800   181.22488538
 H     34  20   1     1.092801560666   111.16428168   300.14278760
 H     35  19   3     1.087257028289   105.94930417   177.26112060
 H     35  19   3     1.092496220463   111.07660819   296.30469010
 H     35  19   3     1.090646672931   111.10543688    58.09893304
 H     36  23  13     1.091385480615   111.19127736    69.74150854
 H     36  23  13     1.087124696707   105.93382068   188.68589517
 H     36  23  13     1.091629544726   110.38620944   307.89394439
 H     37  25  24     0.965685886771   107.58805700   169.26026183
 H     38  17   8     0.973180757784   108.66943591   297.89344982
 H     39  18   9     0.976372364501   104.83593219   290.57194210
 H     41  31  30     0.973465482252   109.86178122     4.64362927
 H     42  40  30     1.091491000441   111.06000754    67.52729120
 H     42  40  30     1.086141368686   106.16826686   186.55609357
 H     42  40  30     1.092350599799   110.55858559   305.58551443

---------------------------
INTERNAL COORDINATES (A.U.)
---------------------------
 C      0   0   0     0.000000000000     0.00000000     0.00000000
 C      1   0   0     2.641046121014     0.00000000     0.00000000
 C      2   1   0     2.643703059355   119.20319101     0.00000000
 C      3   2   1     2.633470740935   120.25302825     1.16360997
 C      4   3   2     2.632916059201   120.33521643   357.75130984
 C      5   4   3     2.629956407282   119.50908073     1.55712922
 C      5   4   3     2.850906846565   119.91687191   182.07312123
 C      7   5   4     2.920977433966   114.96065168   284.62284313
 C      8   7   5     2.936354552985   109.04615007   163.36541492
 C      9   8   7     2.952788348945   112.23896247   279.77717813
 C     10   9   8     2.854917151466   117.08607175   326.48416102
 C     11  10   9     2.642851485837   121.10332156   305.38230440
 C     12  11  10     2.611930216333   120.81849284   175.32831540
 C     13  12  11     2.647929969503   120.44900328     2.99076994
 C     14  13  12     2.614733847392   119.13626356   358.40103509
 C     11  10   9     2.628847313631   120.64839917   122.69935663
 C      8   7   5     2.883659867998   110.36207291   291.63142309
 C      9   8   7     2.900089629468   116.93004725   147.47866008
 O      3   2   1     2.568583848087   115.67691329   181.53156276
 O      1   2   3     2.572085375295   115.69366463   181.06030754
 O      2   1   3     2.593084479477   117.98033384   185.32195742
 O     14  13  12     2.577972336368   120.73227034   178.57360183
 O     13  12  11     2.597998162118   124.40336167   185.38816576
 C     21   2   1     2.722783498513   122.60875424   237.42560065
 C     24  21   2     2.906448717387   111.96743991    58.53098365
 C     25  24  21     2.849048054447   113.24981799   288.51051351
 C     24  21   2     2.872414795903   103.58340038   180.77851142
 O     27  24  21     2.693680180223   112.72127965   297.77165550
 C     26  25  24     2.642829621859   119.82787660   299.76056638
 C     29  26  25     2.614442421929   120.42594953   177.61958052
 C     30  29  26     2.651585876005   119.65782118   359.95499939
 C     31  30  29     2.612717494876   119.99595456     2.60865276
 C     26  25  24     2.620074987169   120.82609365   119.83502826
 C     20   1   2     2.692823226351   118.09787345   178.35025730
 C     19   3   2     2.692563906060   117.99689952   182.91438788
 C     23  13  12     2.708290982544   117.64910696   334.92332120
 O     25  24  21     2.716738870307   105.50416109   167.01116996
 O     17   8   7     2.721587355812   113.02650339   160.53981604
 O     18   9   8     2.695647418547   116.58314132    63.72704167
 O     30  29  26     2.574984046921   125.52199732   180.48180861
 O     31  30  29     2.586032016599   120.33849105   182.22441752
 C     40  30  29     2.696769264091   117.90989617   350.50548751
 H      4   3   2     2.041432522568   120.26440167   179.25258731
 H      6   5   4     2.040578752566   119.29012996   179.85016885
 H      7   5   4     2.067346444667   109.54293895   161.91627060
 H      7   5   4     2.064113182492   108.75172526    45.85021857
 H      8   7   5     2.060958518885   106.84914401    46.00742867
 H      9   8   7     2.073465869631   106.00972485    34.47773712
 H     10   9   8     2.068045672705   107.56397218   202.59106897
 H     10   9   8     2.062137713565   108.71654016    88.38577128
 H     12  11  10     2.040074894502   118.81645355   358.34914966
 H     15  14  13     2.046062820882   119.01291275   180.10910317
 H     16  11  10     2.047331225257   119.61496510     1.99329954
 H     17   8   7     2.061556778298   111.82965341   280.26150314
 H     17   8   7     2.063307188953   109.14247287    39.17750548
 H     18   9   8     2.063950455579   107.81833806   183.12691238
 H     18   9   8     2.070476379852   109.12038695   298.98891275
 H     22  14  13     1.831103356188   108.14021718   359.03318025
 H     24  21   2     2.062299598024   110.07814995   296.72381324
 H     25  24  21     2.066841723466   108.21723545    49.50931293
 H     27  24  21     2.070356366603   108.07528086    60.27780841
 H     27  24  21     2.054810391578   109.78970735   178.58119227
 H     28  27  24     1.826282541518   107.29502146    56.10736987
 H     29  26  25     2.040590763461   119.65412809   358.76402981
 H     32  31  30     2.044509024249   119.27532829   177.76677147
 H     33  26  25     2.045415127834   119.79660120     0.63942676
 H     34  20   1     2.065170144504   111.25007889    62.33313525
 H     34  20   1     2.054955253437   105.83345800   181.22488538
 H     34  20   1     2.065095668380   111.16428168   300.14278760
 H     35  19   3     2.054618020648   105.94930417   177.26112060
 H     35  19   3     2.064518659020   111.07660819   296.30469010
 H     35  19   3     2.061023520712   111.10543688    58.09893304
 H     36  23  13     2.062419664900   111.19127736    69.74150854
 H     36  23  13     2.054367950199   105.93382068   188.68589517
 H     36  23  13     2.062880879230   110.38620944   307.89394439
 H     37  25  24     1.824881857389   107.58805700   169.26026183
 H     38  17   8     1.839045111014   108.66943591   297.89344982
 H     39  18   9     1.845076373635   104.83593219   290.57194210
 H     41  31  30     1.839583162281   109.86178122     4.64362927
 H     42  40  30     2.062619068473   111.06000754    67.52729120
 H     42  40  30     2.052509729540   106.16826686   186.55609357
 H     42  40  30     2.064243475844   110.55858559   305.58551443

---------------------
BASIS SET INFORMATION
---------------------
There are 3 groups of distinct atoms

 Group   1 Type C   : 11s7p2d1f contracted to 4s5p2d1f pattern {7211/31111/11/1}
 Group   2 Type O   : 11s7p2d1f contracted to 4s5p2d1f pattern {7211/31111/11/1}
 Group   3 Type H   : 6s3p1d contracted to 3s2p1d pattern {411/21/1}

Atom   0C    basis set group =>   1
Atom   1C    basis set group =>   1
Atom   2C    basis set group =>   1
Atom   3C    basis set group =>   1
Atom   4C    basis set group =>   1
Atom   5C    basis set group =>   1
Atom   6C    basis set group =>   1
Atom   7C    basis set group =>   1
Atom   8C    basis set group =>   1
Atom   9C    basis set group =>   1
Atom  10C    basis set group =>   1
Atom  11C    basis set group =>   1
Atom  12C    basis set group =>   1
Atom  13C    basis set group =>   1
Atom  14C    basis set group =>   1
Atom  15C    basis set group =>   1
Atom  16C    basis set group =>   1
Atom  17C    basis set group =>   1
Atom  18O    basis set group =>   2
Atom  19O    basis set group =>   2
Atom  20O    basis set group =>   2
Atom  21O    basis set group =>   2
Atom  22O    basis set group =>   2
Atom  23C    basis set group =>   1
Atom  24C    basis set group =>   1
Atom  25C    basis set group =>   1
Atom  26C    basis set group =>   1
Atom  27O    basis set group =>   2
Atom  28C    basis set group =>   1
Atom  29C    basis set group =>   1
Atom  30C    basis set group =>   1
Atom  31C    basis set group =>   1
Atom  32C    basis set group =>   1
Atom  33C    basis set group =>   1
Atom  34C    basis set group =>   1
Atom  35C    basis set group =>   1
Atom  36O    basis set group =>   2
Atom  37O    basis set group =>   2
Atom  38O    basis set group =>   2
Atom  39O    basis set group =>   2
Atom  40O    basis set group =>   2
Atom  41C    basis set group =>   1
Atom  42H    basis set group =>   3
Atom  43H    basis set group =>   3
Atom  44H    basis set group =>   3
Atom  45H    basis set group =>   3
Atom  46H    basis set group =>   3
Atom  47H    basis set group =>   3
Atom  48H    basis set group =>   3
Atom  49H    basis set group =>   3
Atom  50H    basis set group =>   3
Atom  51H    basis set group =>   3
Atom  52H    basis set group =>   3
Atom  53H    basis set group =>   3
Atom  54H    basis set group =>   3
Atom  55H    basis set group =>   3
Atom  56H    basis set group =>   3
Atom  57H    basis set group =>   3
Atom  58H    basis set group =>   3
Atom  59H    basis set group =>   3
Atom  60H    basis set group =>   3
Atom  61H    basis set group =>   3
Atom  62H    basis set group =>   3
Atom  63H    basis set group =>   3
Atom  64H    basis set group =>   3
Atom  65H    basis set group =>   3
Atom  66H    basis set group =>   3
Atom  67H    basis set group =>   3
Atom  68H    basis set group =>   3
Atom  69H    basis set group =>   3
Atom  70H    basis set group =>   3
Atom  71H    basis set group =>   3
Atom  72H    basis set group =>   3
Atom  73H    basis set group =>   3
Atom  74H    basis set group =>   3
Atom  75H    basis set group =>   3
Atom  76H    basis set group =>   3
Atom  77H    basis set group =>   3
Atom  78H    basis set group =>   3
Atom  79H    basis set group =>   3
Atom  80H    basis set group =>   3
Atom  81H    basis set group =>   3
---------------------------------
AUXILIARY/J BASIS SET INFORMATION
---------------------------------
There are 3 groups of distinct atoms

 Group   1 Type C   : 15s13p12d5f5g contracted to 15s13p12d5f5g pattern {111111111111111/1111111111111/111111111111/11111/11111}
 Group   2 Type O   : 15s13p12d5f5g contracted to 15s13p12d5f5g pattern {111111111111111/1111111111111/111111111111/11111/11111}
 Group   3 Type H   : 12s4p3d2f contracted to 12s4p3d2f pattern {111111111111/1111/111/11}

Atom   0C    basis set group =>   1
Atom   1C    basis set group =>   1
Atom   2C    basis set group =>   1
Atom   3C    basis set group =>   1
Atom   4C    basis set group =>   1
Atom   5C    basis set group =>   1
Atom   6C    basis set group =>   1
Atom   7C    basis set group =>   1
Atom   8C    basis set group =>   1
Atom   9C    basis set group =>   1
Atom  10C    basis set group =>   1
Atom  11C    basis set group =>   1
Atom  12C    basis set group =>   1
Atom  13C    basis set group =>   1
Atom  14C    basis set group =>   1
Atom  15C    basis set group =>   1
Atom  16C    basis set group =>   1
Atom  17C    basis set group =>   1
Atom  18O    basis set group =>   2
Atom  19O    basis set group =>   2
Atom  20O    basis set group =>   2
Atom  21O    basis set group =>   2
Atom  22O    basis set group =>   2
Atom  23C    basis set group =>   1
Atom  24C    basis set group =>   1
Atom  25C    basis set group =>   1
Atom  26C    basis set group =>   1
Atom  27O    basis set group =>   2
Atom  28C    basis set group =>   1
Atom  29C    basis set group =>   1
Atom  30C    basis set group =>   1
Atom  31C    basis set group =>   1
Atom  32C    basis set group =>   1
Atom  33C    basis set group =>   1
Atom  34C    basis set group =>   1
Atom  35C    basis set group =>   1
Atom  36O    basis set group =>   2
Atom  37O    basis set group =>   2
Atom  38O    basis set group =>   2
Atom  39O    basis set group =>   2
Atom  40O    basis set group =>   2
Atom  41C    basis set group =>   1
Atom  42H    basis set group =>   3
Atom  43H    basis set group =>   3
Atom  44H    basis set group =>   3
Atom  45H    basis set group =>   3
Atom  46H    basis set group =>   3
Atom  47H    basis set group =>   3
Atom  48H    basis set group =>   3
Atom  49H    basis set group =>   3
Atom  50H    basis set group =>   3
Atom  51H    basis set group =>   3
Atom  52H    basis set group =>   3
Atom  53H    basis set group =>   3
Atom  54H    basis set group =>   3
Atom  55H    basis set group =>   3
Atom  56H    basis set group =>   3
Atom  57H    basis set group =>   3
Atom  58H    basis set group =>   3
Atom  59H    basis set group =>   3
Atom  60H    basis set group =>   3
Atom  61H    basis set group =>   3
Atom  62H    basis set group =>   3
Atom  63H    basis set group =>   3
Atom  64H    basis set group =>   3
Atom  65H    basis set group =>   3
Atom  66H    basis set group =>   3
Atom  67H    basis set group =>   3
Atom  68H    basis set group =>   3
Atom  69H    basis set group =>   3
Atom  70H    basis set group =>   3
Atom  71H    basis set group =>   3
Atom  72H    basis set group =>   3
Atom  73H    basis set group =>   3
Atom  74H    basis set group =>   3
Atom  75H    basis set group =>   3
Atom  76H    basis set group =>   3
Atom  77H    basis set group =>   3
Atom  78H    basis set group =>   3
Atom  79H    basis set group =>   3
Atom  80H    basis set group =>   3
Atom  81H    basis set group =>   3
---------------------------------
AUXILIARY/C BASIS SET INFORMATION
---------------------------------
There are 3 groups of distinct atoms

 Group   1 Type C   : 15s13p12d5f5g contracted to 15s13p12d5f5g pattern {111111111111111/1111111111111/111111111111/11111/11111}
 Group   2 Type O   : 15s13p12d5f5g contracted to 15s13p12d5f5g pattern {111111111111111/1111111111111/111111111111/11111/11111}
 Group   3 Type H   : 12s4p3d2f contracted to 12s4p3d2f pattern {111111111111/1111/111/11}

Atom   0C    basis set group =>   1
Atom   1C    basis set group =>   1
Atom   2C    basis set group =>   1
Atom   3C    basis set group =>   1
Atom   4C    basis set group =>   1
Atom   5C    basis set group =>   1
Atom   6C    basis set group =>   1
Atom   7C    basis set group =>   1
Atom   8C    basis set group =>   1
Atom   9C    basis set group =>   1
Atom  10C    basis set group =>   1
Atom  11C    basis set group =>   1
Atom  12C    basis set group =>   1
Atom  13C    basis set group =>   1
Atom  14C    basis set group =>   1
Atom  15C    basis set group =>   1
Atom  16C    basis set group =>   1
Atom  17C    basis set group =>   1
Atom  18O    basis set group =>   2
Atom  19O    basis set group =>   2
Atom  20O    basis set group =>   2
Atom  21O    basis set group =>   2
Atom  22O    basis set group =>   2
Atom  23C    basis set group =>   1
Atom  24C    basis set group =>   1
Atom  25C    basis set group =>   1
Atom  26C    basis set group =>   1
Atom  27O    basis set group =>   2
Atom  28C    basis set group =>   1
Atom  29C    basis set group =>   1
Atom  30C    basis set group =>   1
Atom  31C    basis set group =>   1
Atom  32C    basis set group =>   1
Atom  33C    basis set group =>   1
Atom  34C    basis set group =>   1
Atom  35C    basis set group =>   1
Atom  36O    basis set group =>   2
Atom  37O    basis set group =>   2
Atom  38O    basis set group =>   2
Atom  39O    basis set group =>   2
Atom  40O    basis set group =>   2
Atom  41C    basis set group =>   1
Atom  42H    basis set group =>   3
Atom  43H    basis set group =>   3
Atom  44H    basis set group =>   3
Atom  45H    basis set group =>   3
Atom  46H    basis set group =>   3
Atom  47H    basis set group =>   3
Atom  48H    basis set group =>   3
Atom  49H    basis set group =>   3
Atom  50H    basis set group =>   3
Atom  51H    basis set group =>   3
Atom  52H    basis set group =>   3
Atom  53H    basis set group =>   3
Atom  54H    basis set group =>   3
Atom  55H    basis set group =>   3
Atom  56H    basis set group =>   3
Atom  57H    basis set group =>   3
Atom  58H    basis set group =>   3
Atom  59H    basis set group =>   3
Atom  60H    basis set group =>   3
Atom  61H    basis set group =>   3
Atom  62H    basis set group =>   3
Atom  63H    basis set group =>   3
Atom  64H    basis set group =>   3
Atom  65H    basis set group =>   3
Atom  66H    basis set group =>   3
Atom  67H    basis set group =>   3
Atom  68H    basis set group =>   3
Atom  69H    basis set group =>   3
Atom  70H    basis set group =>   3
Atom  71H    basis set group =>   3
Atom  72H    basis set group =>   3
Atom  73H    basis set group =>   3
Atom  74H    basis set group =>   3
Atom  75H    basis set group =>   3
Atom  76H    basis set group =>   3
Atom  77H    basis set group =>   3
Atom  78H    basis set group =>   3
Atom  79H    basis set group =>   3
Atom  80H    basis set group =>   3
Atom  81H    basis set group =>   3
----------------------------------
AUXILIARY/JK BASIS SET INFORMATION
----------------------------------
There are 3 groups of distinct atoms

 Group   1 Type C   : 15s13p12d5f5g contracted to 15s13p12d5f5g pattern {111111111111111/1111111111111/111111111111/11111/11111}
 Group   2 Type O   : 15s13p12d5f5g contracted to 15s13p12d5f5g pattern {111111111111111/1111111111111/111111111111/11111/11111}
 Group   3 Type H   : 12s4p3d2f contracted to 12s4p3d2f pattern {111111111111/1111/111/11}

Atom   0C    basis set group =>   1
Atom   1C    basis set group =>   1
Atom   2C    basis set group =>   1
Atom   3C    basis set group =>   1
Atom   4C    basis set group =>   1
Atom   5C    basis set group =>   1
Atom   6C    basis set group =>   1
Atom   7C    basis set group =>   1
Atom   8C    basis set group =>   1
Atom   9C    basis set group =>   1
Atom  10C    basis set group =>   1
Atom  11C    basis set group =>   1
Atom  12C    basis set group =>   1
Atom  13C    basis set group =>   1
Atom  14C    basis set group =>   1
Atom  15C    basis set group =>   1
Atom  16C    basis set group =>   1
Atom  17C    basis set group =>   1
Atom  18O    basis set group =>   2
Atom  19O    basis set group =>   2
Atom  20O    basis set group =>   2
Atom  21O    basis set group =>   2
Atom  22O    basis set group =>   2
Atom  23C    basis set group =>   1
Atom  24C    basis set group =>   1
Atom  25C    basis set group =>   1
Atom  26C    basis set group =>   1
Atom  27O    basis set group =>   2
Atom  28C    basis set group =>   1
Atom  29C    basis set group =>   1
Atom  30C    basis set group =>   1
Atom  31C    basis set group =>   1
Atom  32C    basis set group =>   1
Atom  33C    basis set group =>   1
Atom  34C    basis set group =>   1
Atom  35C    basis set group =>   1
Atom  36O    basis set group =>   2
Atom  37O    basis set group =>   2
Atom  38O    basis set group =>   2
Atom  39O    basis set group =>   2
Atom  40O    basis set group =>   2
Atom  41C    basis set group =>   1
Atom  42H    basis set group =>   3
Atom  43H    basis set group =>   3
Atom  44H    basis set group =>   3
Atom  45H    basis set group =>   3
Atom  46H    basis set group =>   3
Atom  47H    basis set group =>   3
Atom  48H    basis set group =>   3
Atom  49H    basis set group =>   3
Atom  50H    basis set group =>   3
Atom  51H    basis set group =>   3
Atom  52H    basis set group =>   3
Atom  53H    basis set group =>   3
Atom  54H    basis set group =>   3
Atom  55H    basis set group =>   3
Atom  56H    basis set group =>   3
Atom  57H    basis set group =>   3
Atom  58H    basis set group =>   3
Atom  59H    basis set group =>   3
Atom  60H    basis set group =>   3
Atom  61H    basis set group =>   3
Atom  62H    basis set group =>   3
Atom  63H    basis set group =>   3
Atom  64H    basis set group =>   3
Atom  65H    basis set group =>   3
Atom  66H    basis set group =>   3
Atom  67H    basis set group =>   3
Atom  68H    basis set group =>   3
Atom  69H    basis set group =>   3
Atom  70H    basis set group =>   3
Atom  71H    basis set group =>   3
Atom  72H    basis set group =>   3
Atom  73H    basis set group =>   3
Atom  74H    basis set group =>   3
Atom  75H    basis set group =>   3
Atom  76H    basis set group =>   3
Atom  77H    basis set group =>   3
Atom  78H    basis set group =>   3
Atom  79H    basis set group =>   3
Atom  80H    basis set group =>   3
Atom  81H    basis set group =>   3
---------------------------------
AUXILIARY/X BASIS SET INFORMATION
---------------------------------
There are 3 groups of distinct atoms

 Group   1 Type C   : 15s13p12d5f5g contracted to 15s13p12d5f5g pattern {111111111111111/1111111111111/111111111111/11111/11111}
 Group   2 Type O   : 15s13p12d5f5g contracted to 15s13p12d5f5g pattern {111111111111111/1111111111111/111111111111/11111/11111}
 Group   3 Type H   : 12s4p3d2f contracted to 12s4p3d2f pattern {111111111111/1111/111/11}

Atom   0C    basis set group =>   1
Atom   1C    basis set group =>   1
Atom   2C    basis set group =>   1
Atom   3C    basis set group =>   1
Atom   4C    basis set group =>   1
Atom   5C    basis set group =>   1
Atom   6C    basis set group =>   1
Atom   7C    basis set group =>   1
Atom   8C    basis set group =>   1
Atom   9C    basis set group =>   1
Atom  10C    basis set group =>   1
Atom  11C    basis set group =>   1
Atom  12C    basis set group =>   1
Atom  13C    basis set group =>   1
Atom  14C    basis set group =>   1
Atom  15C    basis set group =>   1
Atom  16C    basis set group =>   1
Atom  17C    basis set group =>   1
Atom  18O    basis set group =>   2
Atom  19O    basis set group =>   2
Atom  20O    basis set group =>   2
Atom  21O    basis set group =>   2
Atom  22O    basis set group =>   2
Atom  23C    basis set group =>   1
Atom  24C    basis set group =>   1
Atom  25C    basis set group =>   1
Atom  26C    basis set group =>   1
Atom  27O    basis set group =>   2
Atom  28C    basis set group =>   1
Atom  29C    basis set group =>   1
Atom  30C    basis set group =>   1
Atom  31C    basis set group =>   1
Atom  32C    basis set group =>   1
Atom  33C    basis set group =>   1
Atom  34C    basis set group =>   1
Atom  35C    basis set group =>   1
Atom  36O    basis set group =>   2
Atom  37O    basis set group =>   2
Atom  38O    basis set group =>   2
Atom  39O    basis set group =>   2
Atom  40O    basis set group =>   2
Atom  41C    basis set group =>   1
Atom  42H    basis set group =>   3
Atom  43H    basis set group =>   3
Atom  44H    basis set group =>   3
Atom  45H    basis set group =>   3
Atom  46H    basis set group =>   3
Atom  47H    basis set group =>   3
Atom  48H    basis set group =>   3
Atom  49H    basis set group =>   3
Atom  50H    basis set group =>   3
Atom  51H    basis set group =>   3
Atom  52H    basis set group =>   3
Atom  53H    basis set group =>   3
Atom  54H    basis set group =>   3
Atom  55H    basis set group =>   3
Atom  56H    basis set group =>   3
Atom  57H    basis set group =>   3
Atom  58H    basis set group =>   3
Atom  59H    basis set group =>   3
Atom  60H    basis set group =>   3
Atom  61H    basis set group =>   3
Atom  62H    basis set group =>   3
Atom  63H    basis set group =>   3
Atom  64H    basis set group =>   3
Atom  65H    basis set group =>   3
Atom  66H    basis set group =>   3
Atom  67H    basis set group =>   3
Atom  68H    basis set group =>   3
Atom  69H    basis set group =>   3
Atom  70H    basis set group =>   3
Atom  71H    basis set group =>   3
Atom  72H    basis set group =>   3
Atom  73H    basis set group =>   3
Atom  74H    basis set group =>   3
Atom  75H    basis set group =>   3
Atom  76H    basis set group =>   3
Atom  77H    basis set group =>   3
Atom  78H    basis set group =>   3
Atom  79H    basis set group =>   3
Atom  80H    basis set group =>   3
Atom  81H    basis set group =>   3
--------------------------------------------------------------------------
WARNING: There was an error initializing an OpenFabrics device.

  Local host:   c01b01n05
  Local device: mlx5_0
--------------------------------------------------------------------------
--------------------------------------------------------------------------
WARNING: There is at least one non-excluded one OpenFabrics device found,
but there are no active ports detected (or Open MPI was unable to use
them).  This is most certainly not what you wanted.  Check your
cables, subnet manager configuration, etc.  The openib BTL will be
ignored for this job.

  Local host: c01b01n05
--------------------------------------------------------------------------
[c01b01n05:2602258] 47 more processes have sent help message help-mpi-btl-openib.txt / error in device init
[c01b01n05:2602258] Set MCA parameter "orte_base_help_aggregate" to 0 to see all help / error messages
[c01b01n05:2602258] 11 more processes have sent help message help-mpi-btl-openib.txt / no active ports found


           ************************************************************
           *        Program running with 60 parallel MPI-processes    *
           *              working on a common directory               *
           ************************************************************
------------------------------------------------------------------------------
                             ORCA STARTUP CALCULATIONS
                           -- RI-GTO INTEGRALS CHOSEN --
------------------------------------------------------------------------------
------------------------------------------------------------------------------
                   ___                                                        
                  /   \      - P O W E R E D   B Y -                         
                 /     \                                                     
                 |  |  |   _    _      __       _____    __    __             
                 |  |  |  | |  | |    /  \     |  _  \  |  |  /  |          
                  \  \/   | |  | |   /    \    | | | |  |  | /  /          
                 / \  \   | |__| |  /  /\  \   | |_| |  |  |/  /          
                |  |  |   |  __  | /  /__\  \  |    /   |      \           
                |  |  |   | |  | | |   __   |  |    \   |  |\   \          
                \     /   | |  | | |  |  |  |  | |\  \  |  | \   \       
                 \___/    |_|  |_| |__|  |__|  |_| \__\ |__|  \__/        
                                                                              
                      - O R C A' S   B I G   F R I E N D -                    
                                      &                                       
                       - I N T E G R A L  F E E D E R -                       
                                                                              
 v1 FN, 2020, v2 2021, v3 2022-2024                                           
------------------------------------------------------------------------------


----------------------
SHARK INTEGRAL PACKAGE
----------------------

Number of atoms                             ...     82
Number of basis functions                   ...   2072
Number of shells                            ...    744
Maximum angular momentum                    ...      3
Integral batch strategy                     ... SHARK/LIBINT Hybrid
RI-J (if used) integral strategy            ... SPLIT-RIJ (Revised 2003 algorithm where possible)
Printlevel                                  ...      1
Contraction scheme used                     ... SEGMENTED contraction
Prescreening option                         ... SCHWARTZ
   Thresh                                   ... 1.000e-10
   Tcut                                     ... 1.000e-11
   Tpresel                                  ... 1.000e-11 
Coulomb Range Separation                    ... NOT USED
Exchange Range Separation                   ... NOT USED
Multipole approximations                    ... NOT USED
Finite Nucleus Model                        ... NOT USED
CABS basis                                  ... NOT available
Auxiliary Coulomb fitting basis             ... AVAILABLE
   # of basis functions in Aux-J            ...  10268
   # of shells in Aux-J                     ...   2940
   Maximum angular momentum in Aux-J        ...      4
Auxiliary J/K fitting basis                 ... AVAILABLE
   # of basis functions in Aux-JK           ...  10268
   # of shells in Aux-JK                    ...   2940
   Maximum angular momentum in Aux-JK       ...      4
Auxiliary Correlation fitting basis         ... AVAILABLE
   # of basis functions in Aux-C            ...  10268
   # of shells in Aux-C                     ...   2940
   Maximum angular momentum in Aux-C        ...      4
Auxiliary 'external' fitting basis          ... NOT available

Checking pre-screening integrals            ... done (  0.1 sec) Dimension = 744
   => SHARK Basis and OBASIS are compatible. Storing Pre-screening
Shell pair information
Shell pair cut-off parameter TPreSel        ...   1.0e-11
Total number of shell pairs                 ...    277140
Shell pairs after pre-screening             ...    153255
Total number of primitive shell pairs       ...    823733
Primitive shell pairs kept                  ...    280680
          la=0 lb=0:  29079 shell pairs
          la=1 lb=0:  50893 shell pairs
          la=1 lb=1:  20794 shell pairs
          la=2 lb=0:  20087 shell pairs
          la=2 lb=1:  15271 shell pairs
          la=2 lb=2:   2732 shell pairs
          la=3 lb=0:   6959 shell pairs
          la=3 lb=1:   5224 shell pairs
          la=3 lb=2:   1868 shell pairs
          la=3 lb=3:    348 shell pairs

Checking whether 4 symmetric matrices of dimension 2072 fit in memory
:Max Core in MB      =   5000.00
 MB in use           =    189.09
 MB left             =   4810.91
 MB needed           =     65.54
 Data fit in memory  = YES
Calculating RI/J V-Matrix + Cholesky decomp.... done ( 10.0 sec)
Calculating RI/JK V-Matrix + Cholesky decomp.... done (  3.9 sec)
Calculating RI/C V-Matrix + Cholesky decomp.... done (  3.9 sec)
Calculating Nuclear repulsion               ... done (  0.0 sec) ENN=   5786.238698328345 Eh

Diagonalization of the overlap matrix:
Smallest eigenvalue                        ... 6.936e-06
Time for diagonalization                   ...    3.157 sec
Threshold for overlap eigenvalues          ... 1.000e-07
Number of eigenvalues below threshold      ... 0
Time for construction of square roots      ...    0.618 sec
Total time needed                          ...    4.159 sec

-------------------
DFT GRID GENERATION
-------------------

General Integration Accuracy     IntAcc      ... 4.388
Radial Grid Type                 RadialGrid  ... OptM3 with GC (2021)
Angular Grid (max. ang.)         AngularGrid ... 4 (Lebedev-302)
Angular grid pruning method      GridPruning ... 4 (adaptive)
Weight generation scheme         WeightScheme... mBecke (2022)
Basis function cutoff            BFCut       ... 1.0000e-10
Integration weight cutoff        WCut        ... 1.0000e-14
Partially contracted basis set               ... off
Rotationally invariant grid construction     ... off
Angular grids for H and He will be reduced by one unit
Diffuse basis detected: some atoms will have their outermost
                        angular grid increased by 1.

Total number of grid points                  ...   376731
Total number of batches                      ...     5930
Average number of points per batch           ...       63
Average number of grid points per atom       ...     4594
Grids setup in   4.7 sec
Initializing property integral containers    ... done (  0.1 sec)

SHARK setup successfully completed in  46.1 seconds

Maximum memory used throughout the entire STARTUP-calculation: 261.2 MB
--------------------------------------------------------------------------
WARNING: There is at least one non-excluded one OpenFabrics device found,
but there are no active ports detected (or Open MPI was unable to use
them).  This is most certainly not what you wanted.  Check your
cables, subnet manager configuration, etc.  The openib BTL will be
ignored for this job.

  Local host: c01b01n05
--------------------------------------------------------------------------
--------------------------------------------------------------------------
WARNING: There was an error initializing an OpenFabrics device.

  Local host:   c01b01n05
  Local device: mlx5_0
--------------------------------------------------------------------------


           ************************************************************
           *        Program running with 60 parallel MPI-processes    *
           *              working on a common directory               *
           ************************************************************
-------------------------------------------------------------------------------
                                 ORCA GUESS
                   Start orbitals & Density for SCF / CASSCF
-------------------------------------------------------------------------------

------------
SCF SETTINGS
------------
Hamiltonian:
 Density Functional     Method          .... DFT(GTOs)
 Exchange Functional    Exchange        .... TPSS
 Correlation Functional Correlation     .... TPSS
 LDA part of GGA corr.  LDAOpt          .... PW91-LDA
 Gradients option       PostSCFGGA      .... off
   NL short-range parameter             ....  5.000000
 RI-approximation to the Coulomb term is turned on
   Number of AuxJ basis functions       .... 10268


General Settings:
 Integral files         IntName         .... nmr-conf-4
 Hartree-Fock type      HFTyp           .... RHF
 Total Charge           Charge          ....    0
 Multiplicity           Mult            ....    1
 Number of Electrons    NEL             ....  314
 Basis Dimension        Dim             .... 2072
 Nuclear Repulsion      ENuc            ....   5786.2386983283 Eh

Convergence Acceleration:
 AO-DIIS                CNVDIIS         .... on
   Start iteration      DIISMaxIt       ....    12
   Startup error        DIISStart       ....  0.200000
   # of expansion vecs  DIISMaxEq       ....     5
   Bias factor          DIISBfac        ....   1.050
   Max. coefficient     DIISMaxC        ....  10.000
 MO-DIIS                CNVKDIIS        .... off
 Trust-Rad. Augm. Hess. CNVTRAH         .... auto
   Auto Start mean grad. ratio tolernc. ....  1.125000
   Auto Start start iteration           ....    50
   Auto Start num. interpolation iter.  ....    10
   Max. Number of Micro iterations      ....    24
   Max. Number of Macro iterations      .... Maxiter - #DIIS iter
   Number of Davidson start vectors     ....     2
   Converg. threshold    (grad. norm)   ....   5.000e-05
   Grad. Scal. Fac. for Micro threshold ....   0.100
   Minimum threshold for Micro iter.    ....   1.000e-02
   NR start threshold (gradient norm)   ....   1.000e-04
   Initial trust radius                 ....   0.400
   Minimum AH scaling param. (alpha)    ....   1.000
   Maximum AH scaling param. (alpha)    .... 1000.000
   Quad. conv. algorithm                .... NR
   White noise on init. David. guess    .... on
   Maximum white noise                  ....   0.010
   Pseudo random numbers                .... off
   Inactive MOs                         .... canonical
   Orbital update algorithm             .... Taylor
   Preconditioner                       .... Diag
   Full preconditioner red. dimension   ....   250
 SOSCF                 CNVSOSCF           .... on
   Start iteration     SOSCFMaxIt         ....   150
   Startup grad/error  SOSCFStart         ....  0.003300
   Hessian update      SOSCFHessUp        .... L-BFGS
   Autom. constraints  SOSCFAutoConstrain .... off
 Level Shifting         CNVShift        .... on
   Level shift para.    LevelShift      ....    0.2500
   Turn off err/grad.   ShiftErr        ....    0.0010
 Zerner damping         CNVZerner       .... off
 Static damping         CNVDamp         .... on
   Fraction old density DampFac         ....    0.7000
   Max. Damping (<1)    DampMax         ....    0.9800
   Min. Damping (>=0)   DampMin         ....    0.0000
   Turn off err/grad.   DampErr         ....    0.1000

SCF Procedure:
 Maximum # iterations   MaxIter         ....   125
 SCF integral mode      SCFMode         .... Direct
   Integral package                     .... SHARK and LIBINT hybrid scheme
 Reset frequency        DirectResetFreq ....    20
 Integral Threshold     Thresh          ....  1.000e-10 Eh
 Primitive CutOff       TCut            ....  1.000e-11 Eh

Convergence Tolerance:
 Convergence Check Mode ConvCheckMode   .... Total+1el-Energy
 Convergence forced     ConvForced      .... 0
 Energy Change          TolE            ....  1.000e-06 Eh
 1-El. energy change                    ....  1.000e-03 Eh
 Orbital Gradient       TolG            ....  5.000e-05
 Orbital Rotation angle TolX            ....  5.000e-05
 DIIS Error             TolErr          ....  1.000e-06

------------------------------
INITIAL GUESS: MODEL POTENTIAL
------------------------------
Loading Hartree-Fock densities                     ... done
Calculating cut-offs                               ... done
Initializing the effective Hamiltonian             ... done
Setting up the integral package (SHARK)            ... done
Starting the Coulomb interaction                   ... [c01b01n05:2602703] 11 more processes have sent help message help-mpi-btl-openib.txt / no active ports found
[c01b01n05:2602703] Set MCA parameter "orte_base_help_aggregate" to 0 to see all help / error messages
[c01b01n05:2602703] 47 more processes have sent help message help-mpi-btl-openib.txt / error in device init
done (   5.0 sec)
Making the grid                                    ... done (   0.5 sec)
Mapping shells                                     ... done
Starting the XC term evaluation                    ... done (   1.2 sec)
  promolecular density results
     # of electrons  =    313.986323364
     EX              =   -260.292830345
     EC              =    -10.644444873
     EX+EC           =   -270.937275218
Transforming the Hamiltonian                       ... done (   0.4 sec)
Diagonalizing the Hamiltonian                      ... done (   0.5 sec)
Back transforming the eigenvectors                 ... done (   0.2 sec)
Now organizing SCF variables                       ... done
                      ------------------
                      INITIAL GUESS DONE (   8.7 sec)
                      ------------------
             **** ENERGY FILE WAS UPDATED (nmr-conf-4.en.tmp) ****
Finished Guess after  15.6 sec
Maximum memory used throughout the entire GUESS-calculation: 292.6 MB
--------------------------------------------------------------------------
WARNING: There is at least one non-excluded one OpenFabrics device found,
but there are no active ports detected (or Open MPI was unable to use
them).  This is most certainly not what you wanted.  Check your
cables, subnet manager configuration, etc.  The openib BTL will be
ignored for this job.

  Local host: c01b01n05
--------------------------------------------------------------------------
--------------------------------------------------------------------------
WARNING: There was an error initializing an OpenFabrics device.

  Local host:   c01b01n05
  Local device: mlx5_0
--------------------------------------------------------------------------


           ************************************************************
           *        Program running with 60 parallel MPI-processes    *
           *              working on a common directory               *
           ************************************************************

-------------------------------------------------------------------------------------------
                                      ORCA LEAN-SCF
                              memory conserving SCF solver
-------------------------------------------------------------------------------------------

[c01b01n05:2603208] 8 more processes have sent help message help-mpi-btl-openib.txt / no active ports found
[c01b01n05:2603208] Set MCA parameter "orte_base_help_aggregate" to 0 to see all help / error messages
[c01b01n05:2603208] 50 more processes have sent help message help-mpi-btl-openib.txt / error in device init
--------------------
CPCM SOLVATION MODEL
--------------------
CPCM parameters:
  Epsilon                                         ...      33.4280
  Refrac                                          ...       1.3288
  Rsolv                                           ...       1.3000
  Surface type                                    ... GAUSSIAN VDW
  Discretization scheme                           ... Constant charge density
    Threshold for H atoms                         ...       5.0000 (charges/Ang^2)
    Threshold for non-H atoms                     ...       5.0000 (charges/Ang^2)
  Epsilon function type                           ...         CPCM
Solvent:                                          ... METHANOL
Radii:
  Scheme                                          ... Element-dependent radii
  Radius for C  used is    3.8550 Bohr (=   2.0400 Ang.)
  Radius for O  used is    3.4469 Bohr (=   1.8240 Ang.)
  Radius for H  used is    2.4944 Bohr (=   1.3200 Ang.)
Calculating surface                               ...        done! (  0.2s)
Cavity surface points                             ...         6154
Cavity Volume                                     ...    4516.0554
Cavity Surface-area                               ...    2005.9592
Calculating surface distance matrix               ...        done! (  0.2s)
Performing Cholesky decomposition & store         ...        done! (  0.7s)
Overall time for CPCM initialization              ...                 1.1s

----------------------------------------D-I-I-S--------------------------------------------
Iteration    Energy (Eh)           Delta-E    RMSDP     MaxDP     DIISErr   Damp  Time(sec)
-------------------------------------------------------------------------------------------
               ***  Starting incremental Fock matrix formation  ***
    1    -2033.0200680908010327     0.00e+00  8.23e-03  3.16e-01  2.37e-01  0.700  16.0
    2    -2033.4235296141250728    -4.03e-01  6.83e-03  2.47e-01  8.16e-02  0.700   9.7
                               ***Turning on AO-DIIS***
    3    -2033.5746606552020239    -1.51e-01  2.97e-03  8.55e-02  2.48e-02  0.700  10.4
    4    -2033.6659676633798881    -9.13e-02  5.03e-03  9.45e-02  1.19e-02  0.000   7.2
    5    -2033.8679780217489679    -2.02e-01  1.31e-03  4.05e-02  4.77e-03  0.000   8.9
                              *** Initializing SOSCF ***
---------------------------------------S-O-S-C-F--------------------------------------
Iteration    Energy (Eh)           Delta-E    RMSDP     MaxDP     MaxGrad    Time(sec)
--------------------------------------------------------------------------------------
    6    -2033.8693318724808705    -1.35e-03  4.26e-04  7.76e-03  1.31e-03     8.4
               *** Restarting incremental Fock matrix formation ***
    7    -2033.8694398830375576    -1.08e-04  3.38e-04  6.95e-03  1.37e-04     6.4
    8    -2033.8694157084419203     2.42e-05  8.57e-05  2.51e-03  6.54e-04     5.5
    9    -2033.8694564013831041    -4.07e-05  7.17e-05  1.67e-03  1.18e-04     6.1
   10    -2033.8694557089756927     6.92e-07  2.30e-05  5.25e-04  1.10e-04     5.7
                 **** Energy Check signals convergence ****

               *****************************************************
               *                     SUCCESS                       *
               *           SCF CONVERGED AFTER  10 CYCLES          *
               *****************************************************

             **** ENERGY FILE WAS UPDATED (nmr-conf-4.en.tmp) ****

----------------
TOTAL SCF ENERGY
----------------

Total Energy       :      -2033.86945576870494 Eh          -55344.40155 eV

Components:
Nuclear Repulsion  :       5786.23869832834498 Eh          157451.55966 eV
Electronic Energy  :      -7820.06738579205103 Eh         -212794.85185 eV
One Electron Energy:     -14300.72309394908916 Eh         -389142.45901 eV
Two Electron Energy:       6480.65570815703813 Eh          176347.60716 eV
CPCM Dielectric    :         -0.04076830499854 Eh              -1.10936 eV

Virial components:
Potential Energy   :      -4061.11929883077482 Eh         -110508.67427 eV
Kinetic Energy     :       2027.24984306206989 Eh           55164.27273 eV
Virial Ratio       :          2.00326531666992

DFT components:
N(Alpha)           :      156.999700495232 electrons
N(Beta)            :      156.999700495232 electrons
N(Total)           :      313.999400990465 electrons
E(X)               :     -268.087996343450 Eh       
E(C)               :      -10.606442169070 Eh       
E(XC)              :     -278.694438512520 Eh       

CPCM Solvation Model Properties:
Surface-charge          :         -0.04359015790048
Corrected charge        :          0.00000000000000
Outlying charge corr.   :          0.00008286514035 Eh               0.00225 eV
Free-energy (cav+disp)  :  This term is not implemented in the current solvation scheme

---------------
SCF CONVERGENCE
---------------

  Last Energy change         ...   -6.9241e-07  Tolerance :   1.0000e-06
  Last MAX-Density change    ...    5.2476e-04  Tolerance :   1.0000e-05
  Last RMS-Density change    ...    2.2957e-05  Tolerance :   1.0000e-06
  Last DIIS Error            ...    1.3115e-03  Tolerance :   1.0000e-06
  Last Orbital Gradient      ...    1.0953e-04  Tolerance :   5.0000e-05
  Last Orbital Rotation      ...    2.1562e-04  Tolerance :   5.0000e-05


----------------
ORBITAL ENERGIES
----------------

  NO   OCC          E(Eh)            E(eV) 
   0   2.0000     -18.920378      -514.8497 
   1   2.0000     -18.919466      -514.8248 
   2   2.0000     -18.918031      -514.7858 
   3   2.0000     -18.910923      -514.5924 
   4   2.0000     -18.909808      -514.5620 
   5   2.0000     -18.909484      -514.5532 
   6   2.0000     -18.901347      -514.3318 
   7   2.0000     -18.884038      -513.8608 
   8   2.0000     -18.883711      -513.8519 
   9   2.0000     -18.879981      -513.7504 
  10   2.0000     -18.863524      -513.3026 
  11   2.0000     -10.047893      -273.4171 
  12   2.0000     -10.046737      -273.3856 
  13   2.0000     -10.042649      -273.2744 
  14   2.0000     -10.042409      -273.2679 
  15   2.0000     -10.042021      -273.2573 
  16   2.0000     -10.041558      -273.2447 
  17   2.0000     -10.041401      -273.2404 
  18   2.0000     -10.041089      -273.2319 
  19   2.0000     -10.037287      -273.1285 
  20   2.0000     -10.035849      -273.0893 
  21   2.0000     -10.032675      -273.0030 
  22   2.0000     -10.032476      -272.9975 
  23   2.0000     -10.031401      -272.9683 
  24   2.0000     -10.028813      -272.8979 
  25   2.0000     -10.026444      -272.8334 
  26   2.0000     -10.021478      -272.6983 
  27   2.0000      -9.989924      -271.8397 
  28   2.0000      -9.988750      -271.8077 
  29   2.0000      -9.987222      -271.7661 
  30   2.0000      -9.986968      -271.7592 
  31   2.0000      -9.986200      -271.7383 
  32   2.0000      -9.986120      -271.7361 
  33   2.0000      -9.985213      -271.7115 
  34   2.0000      -9.984120      -271.6817 
  35   2.0000      -9.983965      -271.6775 
  36   2.0000      -9.982802      -271.6458 
  37   2.0000      -9.982341      -271.6333 
  38   2.0000      -9.979783      -271.5637 
  39   2.0000      -9.978101      -271.5179 
  40   2.0000      -9.975187      -271.4386 
  41   2.0000      -9.974315      -271.4149 
  42   2.0000      -1.015077       -27.6217 
  43   2.0000      -1.009690       -27.4751 
  44   2.0000      -1.007195       -27.4072 
  45   2.0000      -0.996574       -27.1182 
  46   2.0000      -0.989708       -26.9313 
  47   2.0000      -0.983575       -26.7644 
  48   2.0000      -0.980622       -26.6841 
  49   2.0000      -0.957259       -26.0483 
  50   2.0000      -0.956974       -26.0406 
  51   2.0000      -0.949904       -25.8482 
  52   2.0000      -0.936303       -25.4781 
  53   2.0000      -0.798218       -21.7206 
  54   2.0000      -0.796847       -21.6833 
  55   2.0000      -0.793439       -21.5906 
  56   2.0000      -0.758471       -20.6390 
  57   2.0000      -0.732953       -19.9447 
  58   2.0000      -0.717227       -19.5167 
  59   2.0000      -0.703867       -19.1532 
  60   2.0000      -0.700202       -19.0535 
  61   2.0000      -0.696908       -18.9638 
  62   2.0000      -0.695832       -18.9345 
  63   2.0000      -0.686665       -18.6851 
  64   2.0000      -0.670098       -18.2343 
  65   2.0000      -0.652338       -17.7510 
  66   2.0000      -0.649144       -17.6641 
  67   2.0000      -0.648060       -17.6346 
  68   2.0000      -0.639079       -17.3902 
  69   2.0000      -0.623571       -16.9682 
  70   2.0000      -0.620131       -16.8746 
  71   2.0000      -0.611067       -16.6280 
  72   2.0000      -0.581434       -15.8216 
  73   2.0000      -0.566289       -15.4095 
  74   2.0000      -0.561490       -15.2789 
  75   2.0000      -0.559912       -15.2360 
  76   2.0000      -0.548881       -14.9358 
  77   2.0000      -0.545450       -14.8424 
  78   2.0000      -0.536683       -14.6039 
  79   2.0000      -0.528007       -14.3678 
  80   2.0000      -0.514901       -14.0112 
  81   2.0000      -0.511847       -13.9281 
  82   2.0000      -0.505856       -13.7651 
  83   2.0000      -0.494675       -13.4608 
  84   2.0000      -0.484268       -13.1776 
  85   2.0000      -0.474934       -12.9236 
  86   2.0000      -0.472087       -12.8461 
  87   2.0000      -0.469242       -12.7687 
  88   2.0000      -0.461693       -12.5633 
  89   2.0000      -0.457761       -12.4563 
  90   2.0000      -0.453040       -12.3279 
  91   2.0000      -0.452137       -12.3033 
  92   2.0000      -0.445048       -12.1104 
  93   2.0000      -0.442895       -12.0518 
  94   2.0000      -0.441715       -12.0197 
  95   2.0000      -0.433600       -11.7989 
  96   2.0000      -0.428543       -11.6612 
  97   2.0000      -0.424270       -11.5450 
  98   2.0000      -0.423871       -11.5341 
  99   2.0000      -0.418923       -11.3995 
 100   2.0000      -0.416499       -11.3335 
 101   2.0000      -0.409052       -11.1309 
 102   2.0000      -0.407746       -11.0953 
 103   2.0000      -0.404138       -10.9972 
 104   2.0000      -0.400192       -10.8898 
 105   2.0000      -0.398215       -10.8360 
 106   2.0000      -0.395175       -10.7533 
 107   2.0000      -0.389997       -10.6124 
 108   2.0000      -0.388246       -10.5647 
 109   2.0000      -0.386655       -10.5214 
 110   2.0000      -0.383152       -10.4261 
 111   2.0000      -0.382116       -10.3979 
 112   2.0000      -0.381350       -10.3771 
 113   2.0000      -0.377904       -10.2833 
 114   2.0000      -0.375655       -10.2221 
 115   2.0000      -0.371429       -10.1071 
 116   2.0000      -0.368868       -10.0374 
 117   2.0000      -0.367021        -9.9872 
[...]
 
 sDSO           154.224          106.960           47.560  iso=     102.915
 sPSO          -130.775          -79.599          -16.294  iso=     -75.556
        ---------------  ---------------  ---------------
 Total           23.449           27.361           31.266  iso=      27.359

 Orientation: 
  X           0.8575317   -0.1953166   -0.4759106
  Y           0.4309726   -0.2323814    0.8719298
  Z           0.2808951    0.9528118    0.1150983

 --------------
 Nucleus  73H :
 --------------

Diamagnetic contribution to the shielding tensor (ppm) : 
            80.533         14.326         2.225
            43.950         35.606        -9.404
           -26.988         44.301        70.261

Paramagnetic contribution to the shielding tensor (ppm): 
           -55.591        -15.458        -3.101
           -43.110         -6.706         3.857
            25.253        -48.764       -41.897

Total shielding tensor (ppm): 
            24.942         -1.132        -0.876
             0.840         28.900        -5.547
            -1.734         -4.463        28.364


 Diagonalized sT*s matrix:
 
 sDSO            83.008           61.316           42.077  iso=      62.134
 sPSO           -59.979          -35.852           -8.363  iso=     -34.731
        ---------------  ---------------  ---------------
 Total           23.028           25.465           33.713  iso=      27.402

 Orientation: 
  X           0.4971929    0.8608648   -0.1082176
  Y           0.5687930   -0.4175822   -0.7085899
  Z           0.6551898   -0.2907524    0.6972728

 --------------
 Nucleus  74H :
 --------------

Diamagnetic contribution to the shielding tensor (ppm) : 
            58.819         64.197        34.025
            18.452         64.389         4.254
            -7.968         77.195        94.128

Paramagnetic contribution to the shielding tensor (ppm): 
           -30.692        -66.346       -30.472
           -22.133        -39.125        -6.592
            11.521        -79.642       -63.278

Total shielding tensor (ppm): 
            28.127         -2.149         3.552
            -3.681         25.263        -2.338
             3.553         -2.447        30.850


 Diagonalized sT*s matrix:
 
 sDSO           101.621           63.919           51.795  iso=      72.445
 sPSO           -78.178          -37.824          -17.094  iso=     -44.365
        ---------------  ---------------  ---------------
 Total           23.443           26.096           34.701  iso=      28.080

 Orientation: 
  X           0.4972050   -0.6564474    0.5673307
  Y           0.8669158    0.3492880   -0.3556050
  Z           0.0352742    0.6686365    0.7427523

 --------------
 Nucleus  75H :
 --------------

Diamagnetic contribution to the shielding tensor (ppm) : 
            79.407       -111.434         6.381
            42.017        -53.439         1.188
            -6.398         31.331        36.081

Paramagnetic contribution to the shielding tensor (ppm): 
           -49.043        114.961        -7.234
           -35.790         88.902        -5.273
             3.713        -37.922       -11.519

Total shielding tensor (ppm): 
            30.364          3.527        -0.853
             6.227         35.463        -4.085
            -2.685         -6.591        24.562


 Diagonalized sT*s matrix:
 
 sDSO            36.088           75.793          -49.833  iso=      20.683
 sPSO           -13.704          -48.111           90.156  iso=       9.447
        ---------------  ---------------  ---------------
 Total           22.384           27.682           40.323  iso=      30.130

 Orientation: 
  X          -0.0424778   -0.8754620   -0.4814166
  Y           0.3719389    0.4333607   -0.8208897
  Z           0.9272848   -0.2139272    0.3072101

 --------------
 Nucleus  76H :
 --------------

Diamagnetic contribution to the shielding tensor (ppm) : 
           159.990         26.901        13.851
            71.204         68.615        14.152
             7.283         -7.206        65.493

Paramagnetic contribution to the shielding tensor (ppm): 
          -124.408        -32.457       -23.784
           -76.465        -47.295       -12.584
           -18.250         11.122       -38.796

Total shielding tensor (ppm): 
            35.581         -5.556        -9.933
            -5.261         21.320         1.568
           -10.967          3.916        26.696


 Diagonalized sT*s matrix:
 
 sDSO           137.794           57.326           98.977  iso=      98.032
 sPSO          -118.714          -36.892          -54.894  iso=     -70.166
        ---------------  ---------------  ---------------
 Total           19.081           20.434           44.083  iso=      27.866

 Orientation: 
  X           0.5285494   -0.2424701   -0.8135378
  Y           0.7105648    0.6507156    0.2677067
  Z           0.4644709   -0.7195675    0.5162260

 --------------
 Nucleus  77H :
 --------------

Diamagnetic contribution to the shielding tensor (ppm) : 
           129.068         70.660        27.723
            57.015         80.795         4.852
            28.374         11.527        98.112

Paramagnetic contribution to the shielding tensor (ppm): 
           -93.393        -63.650       -18.117
           -50.559        -61.465        -5.224
           -19.802        -11.026       -74.473

Total shielding tensor (ppm): 
            35.675          7.010         9.605
             6.456         19.330        -0.372
             8.572          0.502        23.639


 Diagonalized sT*s matrix:
 
 sDSO            44.146           92.038          171.791  iso=     102.658
 sPSO           -28.956          -70.726         -129.649  iso=     -76.444
        ---------------  ---------------  ---------------
 Total           15.190           21.312           42.141  iso=      26.214

 Orientation: 
  X           0.4676325    0.1960748    0.8619017
  Y          -0.7444537    0.6130738    0.2644413
  Z          -0.4765590   -0.7653073    0.4326619

 --------------
 Nucleus  78H :
 --------------

Diamagnetic contribution to the shielding tensor (ppm) : 
           114.162        -11.176        13.012
            51.368         38.039        14.464
            33.146          6.639        58.943

Paramagnetic contribution to the shielding tensor (ppm): 
           -91.754          8.661        -9.208
           -54.948        -17.084        -7.759
           -29.411          3.094       -27.744

Total shielding tensor (ppm): 
            22.409         -2.515         3.803
            -3.579         20.955         6.705
             3.736          9.734        31.200


 Diagonalized sT*s matrix:
 
 sDSO            55.578           83.213           72.354  iso=      70.381
 sPSO           -41.605          -58.630          -36.346  iso=     -45.527
        ---------------  ---------------  ---------------
 Total           13.973           24.582           36.008  iso=      24.854

 Orientation: 
  X           0.4687504    0.8720260    0.1408678
  Y           0.7393208   -0.4745807    0.4776798
  Z          -0.4834023    0.1197661    0.8671668

 --------------
 Nucleus  79H :
 --------------

Diamagnetic contribution to the shielding tensor (ppm) : 
           -23.100        -84.234         5.658
           -53.917        -13.957        14.962
            16.543          6.199       -37.011

Paramagnetic contribution to the shielding tensor (ppm): 
            50.075         80.943        -5.541
            51.639         43.736       -15.749
           -17.082         -5.365        63.004

Total shielding tensor (ppm): 
            26.975         -3.292         0.117
            -2.278         29.779        -0.787
            -0.538          0.834        25.993


 Diagonalized sT*s matrix:
 
 sDSO           -73.286          -45.588           44.805  iso=     -24.690
 sPSO            98.508           71.616          -13.309  iso=      52.272
        ---------------  ---------------  ---------------
 Total           25.223           26.028           31.496  iso=      27.582

 Orientation: 
  X           0.8365876   -0.1806069   -0.5172062
  Y           0.5033235   -0.1193648    0.8558140
  Z           0.2163022    0.9762854    0.0089554

 --------------
 Nucleus  80H :
 --------------

Diamagnetic contribution to the shielding tensor (ppm) : 
            24.944        -62.914       -11.081
            -5.728        -17.120         7.020
           -24.258         32.755       -10.491

Paramagnetic contribution to the shielding tensor (ppm): 
             3.356         60.613         7.862
             4.457         40.988        -4.327
            23.728        -30.675        40.562

Total shielding tensor (ppm): 
            28.300         -2.300        -3.219
            -1.271         23.869         2.693
            -0.530          2.081        30.071


 Diagonalized sT*s matrix:
 
 sDSO           -36.492            0.291           33.534  iso=      -0.889
 sPSO            59.303           26.834           -1.230  iso=      28.302
        ---------------  ---------------  ---------------
 Total           22.811           27.125           32.304  iso=      27.413

 Orientation: 
  X           0.2226460   -0.8391569   -0.4962302
  Y           0.9413686    0.0527071    0.3332373
  Z          -0.2534835   -0.5413295    0.8016910

 --------------
 Nucleus  81H :
 --------------

Diamagnetic contribution to the shielding tensor (ppm) : 
            61.883       -113.550         6.306
            15.098        -63.634        15.613
            -6.346         32.139        -9.862

Paramagnetic contribution to the shielding tensor (ppm): 
           -28.281        113.316        -8.789
           -15.598         87.154       -16.819
             3.077        -31.375        37.056

Total shielding tensor (ppm): 
            33.602         -0.234        -2.484
            -0.500         23.521        -1.207
            -3.269          0.764        27.193


 Diagonalized sT*s matrix:
 
 sDSO           -64.567           -3.072           56.025  iso=      -3.871
 sPSO            88.039           29.207          -21.316  iso=      31.976
        ---------------  ---------------  ---------------
 Total           23.472           26.135           34.709  iso=      28.105

 Orientation: 
  X          -0.0643145    0.3458415   -0.9360861
  Y          -0.9936490   -0.1089833    0.0280050
  Z          -0.0923325    0.9319422    0.3506543



--------------------------------
CHEMICAL SHIELDING SUMMARY (ppm)
--------------------------------


  Nucleus  Element    Isotropic     Anisotropy
  -------  -------  ------------   ------------
      0       C           24.982        122.567 
      1       C           45.908         94.254 
      2       C           24.863        120.230 
      3       C           77.028        134.243 
      4       C           41.045        191.370 
      5       C           75.618        124.966 
      6       C          140.092         45.594 
      7       C          133.031         14.769 
      8       C          132.465         10.424 
      9       C          138.799         34.124 
     10       C           44.918        184.931 
     11       C           62.590        166.398 
     12       C           30.084        114.449 
     13       C           32.178        125.061 
     14       C           66.593        143.912 
     15       C           55.000        148.004 
     16       C          113.744         73.373 
     17       C          108.548         44.730 
     23       C           95.009         38.860 
     24       C          103.267         45.005 
     25       C           43.502        179.910 
     26       C          113.118         55.732 
     28       C           71.398        162.614 
     29       C           30.641        117.372 
     30       C           32.266        120.112 
     31       C           68.456        144.755 
     32       C           57.507        157.246 
     33       C          123.748         78.525 
     34       C          122.641         73.397 
     35       C          122.122         82.974 
     41       C          123.408         77.112 
     42       H           26.594          7.908 
     43       H           25.615          9.800 
     44       H           29.979          7.144 
     45       H           29.189          4.154 
     46       H           30.345          8.369 
     47       H           30.012          6.113 
     48       H           28.409          8.269 
     49       H           28.394          6.993 
     50       H           23.216         10.075 
     51       H           24.828          2.535 
     52       H           24.660          5.332 
     53       H           27.923          6.003 
     54       H           27.844          8.261 
     55       H           28.036          8.681 
     56       H           27.149          7.097 
     57       H           25.289         10.714 
     58       H           26.628          6.122 
     59       H           26.784          3.870 
     60       H           27.516          7.564 
     61       H           27.400          5.287 
     62       H           29.360         16.639 
     63       H           24.617         10.617 
     64       H           25.317          5.312 
     65       H           25.253          3.886 
     66       H           27.931          9.796 
     67       H           27.547          9.616 
     68       H           27.899          7.423 
     69       H           27.567          6.569 
     70       H           28.268          7.822 
     71       H           28.836          9.499 
     72       H           27.359          5.861 
     73       H           27.402          9.467 
     74       H           28.080          9.931 
     75       H           30.130         15.290 
     76       H           27.866         24.325 
     77       H           26.214         23.890 
     78       H           24.854         16.730 
     79       H           27.582          5.871 
     80       H           27.413          7.336 
     81       H           28.105          9.906 


NMR shielding tensor and spin rotation calculation done in   3.1 sec 

Maximum memory used throughout the entire PROP-calculation: 370.1 MB
--------------------------------------------------------------------------
WARNING: There was an error initializing an OpenFabrics device.

  Local host:   c01b01n05
  Local device: mlx5_0
--------------------------------------------------------------------------
--------------------------------------------------------------------------
WARNING: There is at least one non-excluded one OpenFabrics device found,
but there are no active ports detected (or Open MPI was unable to use
them).  This is most certainly not what you wanted.  Check your
cables, subnet manager configuration, etc.  The openib BTL will be
ignored for this job.

  Local host: c01b01n05
--------------------------------------------------------------------------
[c01b01n05:2605127] 50 more processes have sent help message help-mpi-btl-openib.txt / error in device init
[c01b01n05:2605127] Set MCA parameter "orte_base_help_aggregate" to 0 to see all help / error messages
[c01b01n05:2605127] 8 more processes have sent help message help-mpi-btl-openib.txt / no active ports found

--------------------------------
SUGGESTED CITATIONS FOR THIS RUN
--------------------------------

Below you find a list of papers that are relevant to this ORCA run
We neither can nor want to force you to cite these papers, but we appreciate if you do
You receive ORCA, which is the product of decades of hard work by many enthusiastic individuals, for free
The only thing we kindly ask in return is that you cite our papers,
We deeply appreciate it, if you show your appreciation for ORCA by not just citing the generic ORCA reference.

Please note that relegating all ORCA citations to the supporting information does *not* help us.
SI sections are not indexed - citations you put there will not count into any citation statistics
But we need these citations in order to attract the funding resources that allow us to do what we are doing

Therefore, if you are a happy ORCA user, please consider citing a few of the papers listed below in the main body of your paper

In addition to the list printed below, the program has created the file nmr-conf-4.bibtex that contains the list in bibtex format
You can import this file easily into all common literature databanks and citation aid programs


List of essential papers. We consider these as the minimum necessary citations

  1. Neese, F.
     Software update: the ORCA program system, version 6.0
     WIRES Comput. Molec. Sci. 2025 15(1), e70019
     doi.org/10.1002/wcms.7019

List of papers to cite with high priority. The work reported in these papers was absolutely
necessary for this run to complete.
Our perspective: the developers of density functionals and basis sets usually get cited in chemistry papers
Good! But without the algorithms to do something with them, the functionals or basis sets would not do anything.
Hence, in our opinion, the algorithm design and method developments papers are equally worthy of getting cited

  1. Neese, F.
     An improvement of the resolution of the identity approximation for the formation of the Coulomb matrix
     J. Comp. Chem. 2003 24(14), 1740-1747
     doi.org/10.1002/jcc.10318
  2. Stoychev, G.L.; Auer, A.A.; Neese, F.
     Automatic Generation of Auxiliary Basis Sets
     J. Theo. Comp. Chem. 2017 13 , 554-562
     doi.org/10.1021/acs.jctc.6b01041
  3. Stoychev, G.L.; Auer, A.A.; Izsak, R.; Neese, F.
     Self-Consistent Field Calculation of Nuclear Magnetic Resonance Chemical Shielding Constants Using Gauge-Including Atomic Orbitals and Approximate Two-Electron Integrals
     J. Chem. Theory Comput. 2018 14(2), 619-637
     doi.org/10.1021/acs.jctc.7b01006
  4. Garcia-Rates, M.; Neese, F.
     Effect of the Solute Cavity on the Solvation Energy and its Derivatives within the Framework of the Gaussian Charge Scheme
     J. Comput. Chem. 2020 41 , 922-939
     doi.org/10.1002/jcc.26139
  5. Neese, F.
     The SHARK Integral Generation and Digestion System
     J. Comp. Chem. 2022 44(3), 381
     doi.org/10.1002/jcc.26942

List of suggested additional citations. These are papers that are important in the 'surrounding' of 
of this run, or papers that preceded the highly important papers. If you like your results we are grateful for a citation.

  1. Neese, F.
     The ORCA program system
     WIRES Comput. Molec. Sci. 2012 2(1), 73-78
     doi.org/10.1002/wcms.81
  2. Neese, F.
     Software update: the ORCA program system, version 4.0
     WIRES Comput. Molec. Sci. 2018 8(1), 1-6
     doi.org/10.1002/wcms.1327
  3. Neese, F.; Wennmohs, F.; Becker, U.; Riplinger, C.
     The ORCA quantum chemistry program package
     J. Chem. Phys. 2020 152(22), 224108
     doi.org/10.1063/5.0004608
  4. Neese, F.
     Software update: The ORCA program system—Version 5.0
     WIRES Comput. Molec. Sci. 2022 12(1), e1606
     doi.org/10.1002/wcms.1606

List of optional additional citations

  1. Neese, F.
     Approximate second-order SCF convergence for spin unrestricted wavefunctions
     Chem. Phys. Lett. 2000 325(1-3), 93-98
     doi.org/10.1016/s0009-2614(00)00662-x

Timings for individual modules:

Sum of individual times          ...      313.035 sec (=   5.217 min)
Startup calculation              ...      108.734 sec (=   1.812 min)  34.7 %
SCF iterations                   ...      122.168 sec (=   2.036 min)  39.0 %
Property integrals               ...       53.263 sec (=   0.888 min)  17.0 %
SCF Response                     ...       20.052 sec (=   0.334 min)   6.4 %
Property calculations            ...        8.818 sec (=   0.147 min)   2.8 %
                             ****ORCA TERMINATED NORMALLY****
TOTAL RUN TIME: 0 days 0 hours 5 minutes 42 seconds 208 msec
