
                                 *****************
                                 * O   R   C   A *
                                 *****************

                                            #,                                       
                                            ###                                      
                                            ####                                     
                                            #####                                    
                                            ######                                   
                                           ########,                                 
                                     ,,################,,,,,                         
                               ,,#################################,,                 
                          ,,##########################################,,             
                       ,#########################################, ''#####,          
                    ,#############################################,,   '####,        
                  ,##################################################,,,,####,       
                ,###########''''           ''''###############################       
              ,#####''   ,,,,##########,,,,          '''####'''          '####       
            ,##' ,,,,###########################,,,                        '##       
           ' ,,###''''                  '''############,,,                           
         ,,##''                                '''############,,,,        ,,,,,,###''
      ,#''                                            '''#######################'''  
     '                                                          ''''####''''         
             ,#######,   #######,   ,#######,      ##                                
            ,#'     '#,  ##    ##  ,#'     '#,    #''#        ,####,    ,#,          
            ##       ##  ##   ,#'  ##            #'  '#       #'       ,# #          
            ##       ##  #######   ##           ,######,      #####,      #          
            '#,     ,#'  ##    ##  '#,     ,#' ,#      #,     #,   #      #          
             '#######'   ##     ##  '#######'  #'      '#     '####' #    #          



                #########################################################
                #                        -***-                          #
                #          Department of theory and spectroscopy        #
                #                                                       #
                #                      Frank Neese                      #
                #                                                       #
                #     Directorship, Architecture, Infrastructure        #
                #                    SHARK, DRIVERS                     #
                #        Core code/Algorithms in most modules           #
                #                                                       #
                #        Max Planck Institute fuer Kohlenforschung      #
                #                Kaiser Wilhelm Platz 1                 #
                #                 D-45470 Muelheim/Ruhr                 #
                #                      Germany                          #
                #                                                       #
                #                  All rights reserved                  #
                #                        -***-                          #
                #########################################################


                         Program Version 6.1.0-f.0  -   RELEASE   -


 With contributions from (in alphabetic order):
[Max-Planck-Institut fuer Kohlenforschung]                               
  Daniel Aravena         : Magnetic Suceptibility                        
  Michael Atanasov       : Ab Initio Ligand Field Theory (pilot matlab implementation)
  Alexander A. Auer      : GIAO ZORA, VPT2 properties, NMR spectrum      
  Ute Becker             : All parallelization in ORCA, NUMFREQ, NUMCALC 
  Giovanni Bistoni       : ED, misc. LED, open-shell LED, HFLD           
  Dmytro Bykov           : pre 5.0 version of the SCF Hessian            
  Marcos Casanova-Páez   : Triplet and SCS-CIS(D). UHF-(DLPNO)-IP/EA/STEOM-CCSD. UHF-CVS-IP/STEOM-CCSD   
  Vijay G. Chilkuri      : MRCI spin determinant printing, contributions to CSF-ICE 
  Pauline Colinet        : FMM embedding                                 
  Dipayan Datta          : RHF DLPNO-CCSD density                        
  Achintya Kumar Dutta   : EOM-CC, STEOM-CC                              
  Nicolas Foglia         : Exact transition moments, OPA infrastructure, MCD improvements    
  Dmitry Ganyushin       : Spin-Orbit,Spin-Spin,Magnetic field MRCI      
  Miquel Garcia-Rates    : C-PCM and meta-GGA Hessian, CCSD/C-PCM, Gaussian charge scheme 
  Tiago L. C. Gouveia    : GS-ROHF, GS-ROCIS                             
  Yang Guo               : DLPNO-NEVPT2, F12-NEVPT2, CIM, IAO-localization        
  Andreas Hansen         : Spin unrestricted coupled pair/coupled cluster methods 
  Ingolf Harden          : AUTO-CI MPn and infrastructure                
  Benjamin Helmich-Paris : MC-RPA, TRAH-(SCF,CASSCF), AVAS, COSX integrals, SCF dyn. polar., MC-PDFT, srDFT 
  Lee Huntington         : MR-EOM, pCC                                   
  Robert Izsak           : Overlap fitted RIJCOSX, COSX-SCS-MP3, EOM     
  Riya Kayal             : Wick's Theorem for AUTO-CI, AUTO-CI UHF-CCSDT 
  Emily Kempfer          : AUTO-CI RHF CISDT and CCSDT, approximate NEVPT4
  Christian Kollmar      : KDIIS, OOCD, Brueckner-CCSD(T), CCSD density, CASPT2, CASPT2-K, improved NEVPT2 
  Axel Koslowski         : Symmetry handling                             
  Simone Kossmann        : meta-GGA functionals, TD-DFT gradient, OOMP2, (MP2 Hessian; deprecated post 5.0) 
  Lucas Lang             : DCDCAS, Hyperfine gauge corrections, ICE-SOC+SSC
  Marvin Lechner         : AUTO-CI (C++ implementation), FIC-MRCC        
  Spencer Leger          : CASSCF response                               
  Dagmar Lenk            : GEPOL surface, SMD, ORCA-2-JSON               
  Dimitrios Liakos       : Extrapolation schemes; Compound Job, Property file
  Dimitrios Manganas     : Further ROCIS development; embedding schemes. LFT, Crystal Embedding 
  Dimitrios Pantazis     : SARC Basis sets                               
  Anastasios Papadopoulos: AUTO-CI, single reference methods and gradients 
  Taras Petrenko         : pre 6.0 DFT Hessian and TD-DFT gradient,  ECA, NRVS 
  Petra Pikulova         : Analytic Raman intensities                    
  Peter Pinski           : DLPNO-MP2, DLPNO-MP2 Gradient                 
  Shashank Vittal Rao    : ES-AILFT, MagRelax                            
  Christoph Reimann      : Effective Core Potentials                     
  Marius Retegan         : Local ZFS, SOC                                
  Christoph Riplinger    : Optimizer, TS searches, QM/MM, DLPNO-CCSD(T), (RO)-DLPNO pert. Triples 
  Michael Roemelt        : Original ROCIS implementation, recursive CI coupling coefficients
  Masaaki Saitow         : Open-shell DLPNO-CCSD energy and density      
  Barbara Sandhoefer     : DKH picture change effects                    
  Yorick L. A. Schmerwitz: GMF and freeze-and-release deltaSCF, NEB S-IDPP initial path                    
  Kantharuban Sivalingam : CASSCF convergence/infrastructure, NEVPT2, NEVPT3, NEVPT4(SD), FIC-MRCI and CEPA variants
  Bernardo de Souza      : ESD, SOC TD-DFT                               
  Georgi L. Stoychev     : AutoAux, RI-MP2 NMR, DLPNO-MP2 response, X2C  
  Van Anh Tran           : RI-MP2 g-tensors                              
  Willem Van den Heuvel  : Paramagnetic NMR                              
  Zikuan Wang            : NOTCH, Electric field optimization            
  Frank Wennmohs         : Technical directorship and infrastructure     
  Hang Xu                : AUTO-CI-Response properties                   
                                                                         
[FACCTs GmbH]                                                            
  Markus Bursch, Nicolas Foglia, Miquel Garcia-Rates, Ingolf Harden, Hagen Neugebauer, Anastasios Papadopoulos, 
  Christoph Riplinger, Bernardo de Souza, Georgi L. Stoychev                                                    
                                                                 
  APM, various basis sets, CI-OPT, improved COSX, DLPNO-Multilevel,           
  DOCKER, DRACO, updates on ESD, Fragmentator, GOAT, IRC, LR-CPCM, L-BFGS, MBIS, meta-GGA TD-DFT gradient, ML-optimized integration grids, 
  MM, NACMEs, nearIR, NEB, NEB-TS, NL-DFT gradient (VV10), 2- and 3-layer-ONIOM, interface openCOSMO-RS, QMMM,   
  Crystal-QMMM, RESP, rigid body optimization, SF, symmetry and pop. for TD-DFT, various functionals, SOLVATOR                                   
                                                                         
[Other institutions]                                                     
  V. Asgeirsson          : NEB                                           
  Christoph Bannwarth    : sTDA-DFT, sTD-DFT, PBEh-3c, B97-3c, D3        
  Giovanni Bistoni       : ETS/NOCV, ADLD/ADEX, COVALED                  
  Martin Brehm           : Molecular dynamics                            
  Ronald Cardenas        : ETS/NOCV                                      
  Martina Colucci        : COVALED                                       
  Sebastian Ehlert       : rSCAN, r2SCAN, r2SCAN-3c, D4, dhf basis sets  
  Marvin Friede          : D4 for Fr, Ra, Ac-Lr                          
  Lars Goerigk           : TD-DFT with DH, B97 family of functionals     
  Stefan Grimme          : VdW corrections, initial TS optimization, DFT functionals, gCP, sTDA/sTD-DF 
  Waldemar Hujo          : DFT-NL                                        
  H. Jonsson             : NEB                                           
  Holger Kruse           : gCP                                           
  Marcel Mueller         : wB97X-3c, vDZP basis set                      
  Hagen Neugebauer       : wr2SCAN, Native XTB                           
  Gianluca Regni         : ADLD/ADEX                                     
  Tobias Risthaus        : pre 6.0 range-separated hybrid DFT and stability analysis
  Lukas Wittmann         : regularized MP2, r2SCAN double-hybrids, wr2SCAN        
                                                                         
We gratefully acknowledge several colleagues who have allowed us to      
interface, adapt or use parts of their codes:                            
  Ed Valeev, F. Pavosevic, A. Kumar             : LibInt (2-el integral package), F12 methods 
  Garnet Chan, S. Sharma, J. Yang, R. Olivares  : DMRG                   
  Ulf Ekstrom                                   : XCFun DFT Library      
  Mihaly Kallay                                 : mrcc  (arbitrary order and MRCC methods)
  Frank Weinhold                                : gennbo (NPA and NBO analysis)           
  Simon Mueller                                 : openCOSMO-RS                            
  Christopher J. Cramer and Donald G. Truhlar   : smd solvation model                     
  S Lehtola, MJT Oliveira, MAL Marques          : LibXC Library                           
  Liviu Ungur et al                             : ANISO software                          


 Your calculation uses the libint2 library for the computation of 2-el integrals
 For citations please refer to: http://libint.valeyev.net

 Your ORCA version has been built with support for libXC version: 7.0.0
 For citations please refer to: https://libxc.gitlab.io

 This ORCA versions uses:
   CBLAS   interface :  Fast vector & matrix operations
   LAPACKE interface :  Fast linear algebra routines
   SCALAPACK package :  Parallel linear algebra routines
   Shared memory     :  Shared parallel matrices
   BLAS/LAPACK       :  OpenBLAS 0.3.29  USE64BITINT DYNAMIC_ARCH NO_AFFINITY Cooperlake SINGLE_THREADED
        Core in use  :  Cooperlake
   Copyright (c) 2011-2014, The OpenBLAS Project


  ***********************************
  * Starting time: Tue Mar  3 21:16:43 2026
  * Host name:     c01b01n06
  * Process ID:    56586
  * Working dir.:  /lustre1/jiangy/jiangy_liuxy/NMR/B9D7C2-SSRS-NMR/opt_conf
  ***********************************

NOTE: MaxCore=5000 MB was set to SCF,MP2,MDCI,CIPSI,MRCI,RASCI and CIS
      => If you want to overwrite this, your respective input block should be placed after the MaxCore statement


***************************************
The coordinates will be read from file: opt-conf-9.xyz
***************************************



Warning: The global flag for NMR shieldings has been found
         but shieldings for certain elements have also been explicitly requested in the EPRNMR block
         ==>> only the requested shieldings will be calculated

================================================================================

----- Orbital basis set information -----
Your calculation utilizes the basis: pcSseg-2
   F. Jensen, J. Chem. Theory Comput. 11, 132 (2015).

----- AuxJ basis set information -----
Your calculation utilizes the AutoAux generation procedure.
  G. L. Stoychev, A. A. Auer, F. Neese, J. Chem. Theory Comput. 13, 554 (2017)

----- AuxC basis set information -----
Your calculation utilizes the AutoAux generation procedure.
  G. L. Stoychev, A. A. Auer, F. Neese, J. Chem. Theory Comput. 13, 554 (2017)

----- AuxJK basis set information -----
Your calculation utilizes the AutoAux generation procedure.
  G. L. Stoychev, A. A. Auer, F. Neese, J. Chem. Theory Comput. 13, 554 (2017)

----- AuxX basis set information -----
Your calculation utilizes the AutoAux generation procedure.
  G. L. Stoychev, A. A. Auer, F. Neese, J. Chem. Theory Comput. 13, 554 (2017)

================================================================================
                                        WARNINGS
                       Please study these warnings very carefully!
================================================================================


================================================================================
                                       INPUT FILE
================================================================================
NAME = nmr-conf-9.inp
|  1> !TPSS PCSSEG-2 AUTOAUX NMR CPCM(Methanol)
|  2> 
|  3> %pal nprocs 60 end
|  4> %maxcore 5000
|  5> 
|  6> *XYZFILE 0 1 opt-conf-9.xyz
|  7> 
|  8> %EPRNMR
|  9>    NUCLEI = ALL C {SHIFT}
| 10>    NUCLEI = ALL H {SHIFT}
| 11>    TAU DOBSON
| 12> END
| 13> 
| 14> 
| 15>                          ****END OF INPUT****
================================================================================

                       ****************************
                       * Single Point Calculation *
                       ****************************

---------------------------------
CARTESIAN COORDINATES (ANGSTROEM)
---------------------------------
  C     14.421689  -17.898191    0.962697
  C     15.065607  -18.899812    0.230824
  C     14.355346  -20.072521   -0.066089
  C     13.016969  -20.200061    0.288672
  C     12.366764  -19.169208    0.957613
  C     13.087488  -18.039815    1.324485
  C     10.877911  -19.195254    1.177075
  C     10.158443  -18.271531    0.165187
  C     10.266026  -18.774897   -1.300626
  C     10.530781  -17.602994   -2.272728
  C     11.944405  -17.078990   -2.211988
  C     12.987688  -17.851027   -2.734392
  C     14.304153  -17.417561   -2.686305
  C     14.613066  -16.184819   -2.084277
  C     13.579803  -15.414015   -1.578089
  C     12.258588  -15.852259   -1.641705
  C      8.747219  -17.916314    0.635207
  C      9.073306  -19.585564   -1.812126
  O     15.054141  -21.026595   -0.737407
  O     15.169635  -16.798621    1.295293
  O     16.311562  -18.823557   -0.318098
  O     15.886740  -15.700539   -2.006961
  O     15.360476  -18.113696   -3.209808
  C     17.435968  -18.111505    0.211514
  C     17.954510  -18.666746    1.561971
  C     17.705415  -20.155125    1.695377
  C     18.465872  -18.206914   -0.902568
  O     17.949963  -17.678042   -2.125986
  C     16.553486  -20.616812    2.333235
  C     16.245097  -21.966115    2.331972
  C     17.103956  -22.882991    1.707919
  C     18.269710  -22.433089    1.114194
  C     18.568279  -21.071694    1.108356
  C     14.521254  -15.695920    1.933634
  C     14.447860  -22.303071   -0.911721
  C     15.093796  -19.361932   -3.851521
  O     17.411690  -17.932705    2.659823
  O      7.909659  -19.051652    0.940566
  O      8.789038  -20.752392   -1.041838
  O     15.126734  -22.521385    2.883629
  O     16.795752  -24.213581    1.690290
  C     14.214803  -21.662472    3.568967
  H     12.465555  -21.087990    0.018035
  H     12.587214  -17.241556    1.852205
  H     10.650054  -18.845024    2.189121
  H     10.502234  -20.215638    1.093109
  H     10.695564  -17.319250    0.202461
  H     11.132938  -19.436635   -1.355827
  H      9.826985  -16.791622   -2.067407
  H     10.325453  -17.943833   -3.292441
  H     12.756243  -18.805922   -3.184811
  H     13.825102  -14.462019   -1.123840
  H     11.471566  -15.228653   -1.235193
  H      8.816758  -17.283184    1.523308
  H      8.217128  -17.353729   -0.134525
  H      8.179834  -18.952289   -1.881871
  H      9.300607  -19.931302   -2.822817
  H     16.561040  -16.399150   -2.121731
  H     17.184526  -17.060439    0.345953
  H     19.034960  -18.492847    1.577401
  H     19.339044  -17.610675   -0.639587
  H     18.777930  -19.243948   -1.049439
  H     17.209509  -18.239472   -2.407726
  H     15.892542  -19.909400    2.807906
  H     18.936750  -23.151906    0.654791
  H     19.481531  -20.732841    0.635379
  H     14.145847  -15.978855    2.919217
  H     15.284700  -14.929052    2.037835
  H     13.703077  -15.322398    1.317667
  H     14.156189  -22.732588    0.049622
  H     13.574001  -22.243555   -1.565467
  H     15.205306  -22.930060   -1.376070
  H     14.664921  -20.076626   -3.147996
  H     14.422170  -19.224568   -4.701573
  H     16.056798  -19.727082   -4.200853
  H     16.619429  -17.459410    2.358149
  H      8.122626  -19.359797    1.829973
  H      8.391490  -20.425726   -0.214538
  H     15.955686  -24.337732    2.157321
  H     13.419517  -22.305579    3.937511
  H     14.707424  -21.167042    4.408892
  H     13.799489  -20.914916    2.890834

----------------------------
CARTESIAN COORDINATES (A.U.)
----------------------------
  NO LB      ZA    FRAG     MASS         X           Y           Z
   0 C     6.0000    0    12.011   27.253043  -33.822680    1.819233
   1 C     6.0000    0    12.011   28.469871  -35.715469    0.436195
   2 C     6.0000    0    12.011   27.127672  -37.931568   -0.124890
   3 C     6.0000    0    12.011   24.598506  -38.172582    0.545511
   4 C     6.0000    0    12.011   23.369798  -36.224553    1.809626
   5 C     6.0000    0    12.011   24.731768  -34.090310    2.502913
   6 C     6.0000    0    12.011   20.556273  -36.273772    2.224349
   7 C     6.0000    0    12.011   19.196675  -34.528190    0.312159
   8 C     6.0000    0    12.011   19.399978  -35.479413   -2.457827
   9 C     6.0000    0    12.011   19.900293  -33.264838   -4.294834
  10 C     6.0000    0    12.011   22.571655  -32.274614   -4.180052
  11 C     6.0000    0    12.011   24.543173  -33.733552   -5.167252
  12 C     6.0000    0    12.011   27.030932  -32.914420   -5.076380
  13 C     6.0000    0    12.011   27.614692  -30.584875   -3.938712
  14 C     6.0000    0    12.011   25.662109  -29.128267   -2.982156
  15 C     6.0000    0    12.011   23.165373  -29.956428   -3.102373
  16 C     6.0000    0    12.011   16.529848  -33.856926    1.200367
  17 C     6.0000    0    12.011   17.146063  -37.011352   -3.424422
  18 O     8.0000    0    15.999   28.448204  -39.734507   -1.393497
  19 O     8.0000    0    15.999   28.666456  -31.744793    2.447749
  20 O     8.0000    0    15.999   30.824385  -35.571367   -0.601118
  21 O     8.0000    0    15.999   30.021587  -29.669719   -3.792606
  22 O     8.0000    0    15.999   29.027094  -34.229925   -6.065658
  23 C     6.0000    0    12.011   32.949205  -34.225783    0.399703
  24 C     6.0000    0    12.011   33.929106  -35.275039    2.951698
  25 C     6.0000    0    12.011   33.458385  -38.087666    3.203797
  26 C     6.0000    0    12.011   34.895441  -34.406082   -1.705606
  27 O     8.0000    0    15.999   33.920514  -33.406658   -4.017531
  28 C     6.0000    0    12.011   31.281555  -38.960128    4.409174
  29 C     6.0000    0    12.011   30.698783  -41.509941    4.406788
  30 C     6.0000    0    12.011   32.321792  -43.242587    3.227499
  31 C     6.0000    0    12.011   34.524749  -42.392395    2.105522
  32 C     6.0000    0    12.011   35.088962  -39.819731    2.094490
  33 C     6.0000    0    12.011   27.441192  -29.660991    3.654039
  34 C     6.0000    0    12.011   27.302499  -42.146696   -1.722903
  35 C     6.0000    0    12.011   28.523142  -36.588748   -7.278319
  36 O     8.0000    0    15.999   32.903325  -33.887901    5.026336
  37 O     8.0000    0    15.999   14.947090  -36.002405    1.777413
  38 O     8.0000    0    15.999   16.608876  -39.216338   -1.968789
  39 O     8.0000    0    15.999   28.585385  -42.559249    5.449269
  40 O     8.0000    0    15.999   31.739372  -45.757037    3.194186
  41 C     6.0000    0    12.011   26.862085  -40.936140    6.744370
  42 H     1.0000    0     1.008   23.556485  -39.850526    0.034081
  43 H     1.0000    0     1.008   23.786388  -32.581820    3.500160
  44 H     1.0000    0     1.008   20.125685  -35.611935    4.136839
  45 H     1.0000    0     1.008   19.846346  -38.202019    2.065677
  46 H     1.0000    0     1.008   20.211686  -32.728639    0.382596
  47 H     1.0000    0     1.008   21.038204  -36.729918   -2.562141
  48 H     1.0000    0     1.008   18.570311  -31.731566   -3.906834
  49 H     1.0000    0     1.008   19.512279  -33.908930   -6.221812
  50 H     1.0000    0     1.008   24.105805  -35.538043   -6.018421
  51 H     1.0000    0     1.008   26.125657  -27.329255   -2.123750
  52 H     1.0000    0     1.008   21.678118  -28.777983   -2.334176
  53 H     1.0000    0     1.008   16.661257  -32.660484    2.878635
  54 H     1.0000    0     1.008   15.528121  -32.793795   -0.254215
  55 H     1.0000    0     1.008   15.457646  -35.814637   -3.556221
  56 H     1.0000    0     1.008   17.575600  -37.664702   -5.334351
  57 H     1.0000    0     1.008   31.295830  -30.989903   -4.009490
  58 H     1.0000    0     1.008   32.474047  -32.239557    0.653757
  59 H     1.0000    0     1.008   35.970861  -34.946417    2.980856
  60 H     1.0000    0     1.008   36.545496  -33.279353   -1.208644
  61 H     1.0000    0     1.008   35.485145  -36.365791   -1.983152
  62 H     1.0000    0     1.008   32.521258  -34.467608   -4.549943
  63 H     1.0000    0     1.008   30.032553  -37.623313    5.306173
  64 H     1.0000    0     1.008   35.785271  -43.750762    1.237375
  65 H     1.0000    0     1.008   36.814757  -39.179391    1.200691
  66 H     1.0000    0     1.008   26.731776  -30.195660    5.516522
  67 H     1.0000    0     1.008   28.883898  -28.211819    3.850949
  68 H     1.0000    0     1.008   25.895062  -28.955135    2.490030
  69 H     1.0000    0     1.008   26.751320  -42.958366    0.093772
  70 H     1.0000    0     1.008   25.651144  -42.034228   -2.958303
  71 H     1.0000    0     1.008   28.733864  -43.331534   -2.600395
  72 H     1.0000    0     1.008   27.712684  -37.939325   -5.948850
  73 H     1.0000    0     1.008   27.253952  -36.329169   -8.884685
  74 H     1.0000    0     1.008   30.342952  -37.278782   -7.938461
  75 H     1.0000    0     1.008   31.406169  -32.993503    4.456256
  76 H     1.0000    0     1.008   15.349538  -36.584715    3.458148
  77 H     1.0000    0     1.008   15.857618  -38.599027   -0.405418
  78 H     1.0000    0     1.008   30.151876  -45.991648    4.076746
  79 H     1.0000    0     1.008   25.359212  -42.151436    7.440818
  80 H     1.0000    0     1.008   27.793003  -39.999913    8.331598
  81 H     1.0000    0     1.008   26.077255  -39.523463    5.462885

--------------------------------
INTERNAL COORDINATES (ANGSTROEM)
--------------------------------
 C      0   0   0     0.000000000000     0.00000000     0.00000000
 C      1   0   0     1.397680416370     0.00000000     0.00000000
 C      2   1   0     1.402809987464   118.46700134     0.00000000
 C      3   2   1     1.390458362025   120.66554515     3.88613459
 C      4   3   2     1.390289432321   120.32527426   359.29407877
 C      5   4   3     1.389087887258   119.16141681   356.85571166
 C      5   4   3     1.505166391388   121.32761653   171.06497389
 C      7   5   4     1.547518570806   110.74508037   258.35533061
 C      8   7   5     1.553563818136   113.03837068    66.79541096
 C      9   8   7     1.545455394326   111.07875698   221.45744934
 C     10   9   8     1.508841383213   113.48603901    74.48208194
 C     11  10   9     1.399065603159   119.46998047    71.61169627
 C     12  11  10     1.386825836294   121.49616645   180.78653054
 C     13  12  11     1.406242587313   119.82603497     0.93621343
 C     14  13  12     1.384917344438   118.71691658   358.49018135
 C     11  10   9     1.388813190706   122.35992889   252.19022828
 C      8   7   5     1.529264880062   111.51295110   198.77745258
 C      9   8   7     1.530161620768   115.66288244    96.59390592
 O      3   2   1     1.359867424808   115.51960064   182.32419741
 O      1   2   3     1.370802095620   116.77652472   176.58995745
 O      2   1   3     1.363647521601   126.27428897   175.14399583
 O     14  13  12     1.364826063863   122.70432040   180.13646515
 O     13  12  11     1.369116344368   124.07043593   181.68444877
 C     21   2   1     1.432409364912   126.59761779    33.30548435
 C     24  21   2     1.549488566272   114.00439637    65.19938450
 C     25  24  21     1.514963726268   111.94850683    29.57051344
 C     24  21   2     1.520191444336   103.27624592   188.09896244
 O     27  24  21     1.429202368065   111.07286166    56.71044145
 C     26  25  24     1.395334220712   120.07067637   266.18383636
 C     29  26  25     1.384097240165   120.40345903   172.93059105
 C     30  29  26     1.402762994496   120.07804857     1.14110800
 C     31  30  29     1.383439298154   119.62265962     1.05673455
 C     26  25  24     1.388966184460   120.59409970    81.77531334
 C     20   1   2     1.429625018496   118.65810450   174.23946229
 C     19   3   2     1.423851265708   118.07350741   171.84069124
 C     23  13  12     1.428637177983   118.16290003     0.28484559
 O     25  24  21     1.427847172376   111.01918311   263.56954121
 O     17   8   7     1.443517787081   114.69331090   305.53230846
 O     18   9   8     1.426758651797   114.08574053   301.90885041
 O     30  29  26     1.365058271697   125.36069941   182.29498278
 O     31  30  29     1.365931397847   120.28510808   180.78233167
 C     40  30  29     1.427948855177   118.19671038   357.33827509
 H      4   3   2     1.079685272145   120.20313271   177.29218724
 H      6   5   4     1.079804909428   119.32400521   180.56178257
 H      7   5   4     1.094905083525   109.57789075   138.74131459
 H      7   5   4     1.090581247265   110.22486451    20.77472345
 H      8   7   5     1.093950971150   105.60802563   311.01415865
 H      9   8   7     1.092008411872   107.39826351   338.09857900
 H     10   9   8     1.093531571726   109.52833370   311.46809716
 H     10   9   8     1.094598267063   108.52517121   195.49073007
 H     12  11  10     1.080865145555   118.91005487     0.81155479
 H     15  14  13     1.082963758350   118.26677126   180.52956275
 H     16  11  10     1.083300794100   119.88155654   358.98845258
 H     17   8   7     1.092891837566   109.00216936    67.64684999
 H     17   8   7     1.090864191288   110.56986305   185.96691149
 H     18   9   8     1.097357217942   110.49696122    66.61980716
 H     18   9   8     1.092106445970   108.35154605   183.61695849
 H     22  14  13     0.977706955908   112.54598792   340.43778482
 H     24  21   2     1.089053176643   110.13098049   303.11978925
 H     25  24  21     1.094463959249   106.60181412   148.05928294
 H     27  24  21     1.089535793540   109.37266198   174.66621207
 H     27  24  21     1.092881254040   110.57839597   294.50749049
 H     28  27  24     0.971006743628   108.04019099   295.29068534
 H     29  26  25     1.078234901119   119.35481221   354.36623583
 H     32  31  30     1.082908930482   119.02859412   178.62828204
 H     33  26  25     1.082847289213   120.13459794     6.21444615
 H     34  20   1     1.091950926798   111.04372660    64.80488470
 H     34  20   1     1.087104418365   105.56917890   183.67457608
 H     34  20   1     1.090113900563   110.63331238   302.46086810
 H     35  19   3     1.092583023979   111.00087781   304.31645596
 H     35  19   3     1.092957174062   111.39868882    66.65937468
 H     35  19   3     1.087409240949   105.81849174   185.51781758
 H     36  23  13     1.090719595137   110.86594020   297.85831521
 H     36  23  13     1.092034610925   110.76569597    60.32038105
 H     36  23  13     1.087538723958   105.80419133   179.11485664
 H     37  25  24     0.970923460198   108.77876471    19.31763858
 H     38  17   8     0.965065676563   108.54475334    81.49320815
 H     39  18   9     0.974259492919   105.39885291    73.37677753
 H     41  31  30     0.969145832457   108.30970157   359.71874686
 H     42  40  30     1.087148327641   105.90611873   180.97445388
 H     42  40  30     1.092519748850   110.71901370   299.85429262
 H     42  40  30     1.091416915109   110.90398900    61.99844163

---------------------------
INTERNAL COORDINATES (A.U.)
---------------------------
 C      0   0   0     0.000000000000     0.00000000     0.00000000
 C      1   0   0     2.641233209684     0.00000000     0.00000000
 C      2   1   0     2.650926694236   118.46700134     0.00000000
 C      3   2   1     2.627585504849   120.66554515     3.88613459
 C      4   3   2     2.627266273971   120.32527426   359.29407877
 C      5   4   3     2.624995682866   119.16141681   356.85571166
 C      5   4   3     2.844352265706   121.32761653   171.06497389
 C      7   5   4     2.924386285980   110.74508037   258.35533061
 C      8   7   5     2.935810147847   113.03837068    66.79541096
 C      9   8   7     2.920487447467   111.07875698   221.45744934
 C     10   9   8     2.851296993800   113.48603901    74.48208194
 C     11  10   9     2.643850833360   119.46998047    71.61169627
 C     12  11  10     2.620721026043   121.49616645   180.78653054
 C     13  12  11     2.657413367879   119.82603497     0.93621343
 C     14  13  12     2.617114499105   118.71691658   358.49018135
 C     11  10   9     2.624476581612   122.35992889   252.19022828
 C      8   7   5     2.889891809541   111.51295110   198.77745258
 C      9   8   7     2.891586403888   115.66288244    96.59390592
 O      3   2   1     2.569777011328   115.51960064   182.32419741
 O      1   2   3     2.590440544528   116.77652472   176.58995745
 O      2   1   3     2.576920359026   126.27428897   175.14399583
 O     14  13  12     2.579147481138   122.70432040   180.13646515
 O     13  12  11     2.587254936332   124.07043593   181.68444877
 C     21   2   1     2.706861411348   126.59761779    33.30548435
 C     24  21   2     2.928109037897   114.00439637    65.19938450
 C     25  24  21     2.862866545471   111.94850683    29.57051344
 C     24  21   2     2.872745500925   103.27624592   188.09896244
 O     27  24  21     2.700801065594   111.07286166    56.71044145
 C     26  25  24     2.636799542434   120.07067637   266.18383636
 C     29  26  25     2.615564726627   120.40345903   172.93059105
 C     30  29  26     2.650837890398   120.07804857     1.14110800
 C     31  30  29     2.614321396415   119.62265962     1.05673455
 C     26  25  24     2.624765697906   120.59409970    81.77531334
 C     20   1   2     2.701599759160   118.65810450   174.23946229
 C     19   3   2     2.690688947626   118.07350741   171.84069124
 C     23  13  12     2.699733011127   118.16290003     0.28484559
 O     25  24  21     2.698240116884   111.01918311   263.56954121
 O     17   8   7     2.727853287027   114.69331090   305.53230846
 O     18   9   8     2.696183111099   114.08574053   301.90885041
 O     30  29  26     2.579586290352   125.36069941   182.29498278
 O     31  30  29     2.581236259654   120.28510808   180.78233167
 C     40  30  29     2.698432269531   118.19671038   357.33827509
 H      4   3   2     2.040309475182   120.20313271   177.29218724
 H      6   5   4     2.040535556882   119.32400521   180.56178257
 H      7   5   4     2.069070750500   109.57789075   138.74131459
 H      7   5   4     2.060899884121   110.22486451    20.77472345
 H      8   7   5     2.067267739411   105.60802563   311.01415865
 H      9   8   7     2.063596834376   107.39826351   338.09857900
 H     10   9   8     2.066475189358   109.52833370   311.46809716
 H     10   9   8     2.068490951414   108.52517121   195.49073007
 H     12  11  10     2.042539112801   118.91005487     0.81155479
 H     15  14  13     2.046504916244   118.26677126   180.52956275
 H     16  11  10     2.047141821507   119.88155654   358.98845258
 H     17   8   7     2.065266266997   109.00216936    67.64684999
 H     17   8   7     2.061434570835   110.56986305   185.96691149
 H     18   9   8     2.073704612991   110.49696122    66.61980716
 H     18   9   8     2.063782091974   108.35154605   183.61695849
 H     22  14  13     1.847598385896   112.54598792   340.43778482
 H     24  21   2     2.058012249132   110.13098049   303.11978925
 H     25  24  21     2.068237146427   106.60181412   148.05928294
 H     27  24  21     2.058924262895   109.37266198   174.66621207
 H     27  24  21     2.065246267033   110.57839597   294.50749049
 H     28  27  24     1.834936819648   108.04019099   295.29068534
 H     29  26  25     2.037568671151   119.35481221   354.36623583
 H     32  31  30     2.046401306588   119.02859412   178.62828204
 H     33  26  25     2.046284821471   120.13459794     6.21444615
 H     34  20   1     2.063488203330   111.04372660    64.80488470
 H     34  20   1     2.054329629686   105.56917890   183.67457608
 H     34  20   1     2.060016726844   110.63331238   302.46086810
 H     35  19   3     2.064682693892   111.00087781   304.31645596
 H     35  19   3     2.065389735082   111.39868882    66.65937468
 H     35  19   3     2.054905660890   105.81849174   185.51781758
 H     36  23  13     2.061161323710   110.86594020   297.85831521
 H     36  23  13     2.063646343411   110.76569597    60.32038105
 H     36  23  13     2.055150348314   105.80419133   179.11485664
 H     37  25  24     1.834779436774   108.77876471    19.31763858
 H     38  17   8     1.823709829951   108.54475334    81.49320815
 H     39  18   9     1.841083624990   105.39885291    73.37677753
 H     41  31  30     1.831420207176   108.30970157   359.71874686
 H     42  40  30     2.054412606192   105.90611873   180.97445388
 H     42  40  30     2.064563121227   110.71901370   299.85429262
 H     42  40  30     2.062479067486   110.90398900    61.99844163

---------------------
BASIS SET INFORMATION
---------------------
There are 3 groups of distinct atoms

 Group   1 Type C   : 11s7p2d1f contracted to 4s5p2d1f pattern {7211/31111/11/1}
 Group   2 Type O   : 11s7p2d1f contracted to 4s5p2d1f pattern {7211/31111/11/1}
 Group   3 Type H   : 6s3p1d contracted to 3s2p1d pattern {411/21/1}

Atom   0C    basis set group =>   1
Atom   1C    basis set group =>   1
Atom   2C    basis set group =>   1
Atom   3C    basis set group =>   1
Atom   4C    basis set group =>   1
Atom   5C    basis set group =>   1
Atom   6C    basis set group =>   1
Atom   7C    basis set group =>   1
Atom   8C    basis set group =>   1
Atom   9C    basis set group =>   1
Atom  10C    basis set group =>   1
Atom  11C    basis set group =>   1
Atom  12C    basis set group =>   1
Atom  13C    basis set group =>   1
Atom  14C    basis set group =>   1
Atom  15C    basis set group =>   1
Atom  16C    basis set group =>   1
Atom  17C    basis set group =>   1
Atom  18O    basis set group =>   2
Atom  19O    basis set group =>   2
Atom  20O    basis set group =>   2
Atom  21O    basis set group =>   2
Atom  22O    basis set group =>   2
Atom  23C    basis set group =>   1
Atom  24C    basis set group =>   1
Atom  25C    basis set group =>   1
Atom  26C    basis set group =>   1
Atom  27O    basis set group =>   2
Atom  28C    basis set group =>   1
Atom  29C    basis set group =>   1
Atom  30C    basis set group =>   1
Atom  31C    basis set group =>   1
Atom  32C    basis set group =>   1
Atom  33C    basis set group =>   1
Atom  34C    basis set group =>   1
Atom  35C    basis set group =>   1
Atom  36O    basis set group =>   2
Atom  37O    basis set group =>   2
Atom  38O    basis set group =>   2
Atom  39O    basis set group =>   2
Atom  40O    basis set group =>   2
Atom  41C    basis set group =>   1
Atom  42H    basis set group =>   3
Atom  43H    basis set group =>   3
Atom  44H    basis set group =>   3
Atom  45H    basis set group =>   3
Atom  46H    basis set group =>   3
Atom  47H    basis set group =>   3
Atom  48H    basis set group =>   3
Atom  49H    basis set group =>   3
Atom  50H    basis set group =>   3
Atom  51H    basis set group =>   3
Atom  52H    basis set group =>   3
Atom  53H    basis set group =>   3
Atom  54H    basis set group =>   3
Atom  55H    basis set group =>   3
Atom  56H    basis set group =>   3
Atom  57H    basis set group =>   3
Atom  58H    basis set group =>   3
Atom  59H    basis set group =>   3
Atom  60H    basis set group =>   3
Atom  61H    basis set group =>   3
Atom  62H    basis set group =>   3
Atom  63H    basis set group =>   3
Atom  64H    basis set group =>   3
Atom  65H    basis set group =>   3
Atom  66H    basis set group =>   3
Atom  67H    basis set group =>   3
Atom  68H    basis set group =>   3
Atom  69H    basis set group =>   3
Atom  70H    basis set group =>   3
Atom  71H    basis set group =>   3
Atom  72H    basis set group =>   3
Atom  73H    basis set group =>   3
Atom  74H    basis set group =>   3
Atom  75H    basis set group =>   3
Atom  76H    basis set group =>   3
Atom  77H    basis set group =>   3
Atom  78H    basis set group =>   3
Atom  79H    basis set group =>   3
Atom  80H    basis set group =>   3
Atom  81H    basis set group =>   3
---------------------------------
AUXILIARY/J BASIS SET INFORMATION
---------------------------------
There are 3 groups of distinct atoms

 Group   1 Type C   : 15s13p12d5f5g contracted to 15s13p12d5f5g pattern {111111111111111/1111111111111/111111111111/11111/11111}
 Group   2 Type O   : 15s13p12d5f5g contracted to 15s13p12d5f5g pattern {111111111111111/1111111111111/111111111111/11111/11111}
 Group   3 Type H   : 12s4p3d2f contracted to 12s4p3d2f pattern {111111111111/1111/111/11}

Atom   0C    basis set group =>   1
Atom   1C    basis set group =>   1
Atom   2C    basis set group =>   1
Atom   3C    basis set group =>   1
Atom   4C    basis set group =>   1
Atom   5C    basis set group =>   1
Atom   6C    basis set group =>   1
Atom   7C    basis set group =>   1
Atom   8C    basis set group =>   1
Atom   9C    basis set group =>   1
Atom  10C    basis set group =>   1
Atom  11C    basis set group =>   1
Atom  12C    basis set group =>   1
Atom  13C    basis set group =>   1
Atom  14C    basis set group =>   1
Atom  15C    basis set group =>   1
Atom  16C    basis set group =>   1
Atom  17C    basis set group =>   1
Atom  18O    basis set group =>   2
Atom  19O    basis set group =>   2
Atom  20O    basis set group =>   2
Atom  21O    basis set group =>   2
Atom  22O    basis set group =>   2
Atom  23C    basis set group =>   1
Atom  24C    basis set group =>   1
Atom  25C    basis set group =>   1
Atom  26C    basis set group =>   1
Atom  27O    basis set group =>   2
Atom  28C    basis set group =>   1
Atom  29C    basis set group =>   1
Atom  30C    basis set group =>   1
Atom  31C    basis set group =>   1
Atom  32C    basis set group =>   1
Atom  33C    basis set group =>   1
Atom  34C    basis set group =>   1
Atom  35C    basis set group =>   1
Atom  36O    basis set group =>   2
Atom  37O    basis set group =>   2
Atom  38O    basis set group =>   2
Atom  39O    basis set group =>   2
Atom  40O    basis set group =>   2
Atom  41C    basis set group =>   1
Atom  42H    basis set group =>   3
Atom  43H    basis set group =>   3
Atom  44H    basis set group =>   3
Atom  45H    basis set group =>   3
Atom  46H    basis set group =>   3
Atom  47H    basis set group =>   3
Atom  48H    basis set group =>   3
Atom  49H    basis set group =>   3
Atom  50H    basis set group =>   3
Atom  51H    basis set group =>   3
Atom  52H    basis set group =>   3
Atom  53H    basis set group =>   3
Atom  54H    basis set group =>   3
Atom  55H    basis set group =>   3
Atom  56H    basis set group =>   3
Atom  57H    basis set group =>   3
Atom  58H    basis set group =>   3
Atom  59H    basis set group =>   3
Atom  60H    basis set group =>   3
Atom  61H    basis set group =>   3
Atom  62H    basis set group =>   3
Atom  63H    basis set group =>   3
Atom  64H    basis set group =>   3
Atom  65H    basis set group =>   3
Atom  66H    basis set group =>   3
Atom  67H    basis set group =>   3
Atom  68H    basis set group =>   3
Atom  69H    basis set group =>   3
Atom  70H    basis set group =>   3
Atom  71H    basis set group =>   3
Atom  72H    basis set group =>   3
Atom  73H    basis set group =>   3
Atom  74H    basis set group =>   3
Atom  75H    basis set group =>   3
Atom  76H    basis set group =>   3
Atom  77H    basis set group =>   3
Atom  78H    basis set group =>   3
Atom  79H    basis set group =>   3
Atom  80H    basis set group =>   3
Atom  81H    basis set group =>   3
---------------------------------
AUXILIARY/C BASIS SET INFORMATION
---------------------------------
There are 3 groups of distinct atoms

 Group   1 Type C   : 15s13p12d5f5g contracted to 15s13p12d5f5g pattern {111111111111111/1111111111111/111111111111/11111/11111}
 Group   2 Type O   : 15s13p12d5f5g contracted to 15s13p12d5f5g pattern {111111111111111/1111111111111/111111111111/11111/11111}
 Group   3 Type H   : 12s4p3d2f contracted to 12s4p3d2f pattern {111111111111/1111/111/11}

Atom   0C    basis set group =>   1
Atom   1C    basis set group =>   1
Atom   2C    basis set group =>   1
Atom   3C    basis set group =>   1
Atom   4C    basis set group =>   1
Atom   5C    basis set group =>   1
Atom   6C    basis set group =>   1
Atom   7C    basis set group =>   1
Atom   8C    basis set group =>   1
Atom   9C    basis set group =>   1
Atom  10C    basis set group =>   1
Atom  11C    basis set group =>   1
Atom  12C    basis set group =>   1
Atom  13C    basis set group =>   1
Atom  14C    basis set group =>   1
Atom  15C    basis set group =>   1
Atom  16C    basis set group =>   1
Atom  17C    basis set group =>   1
Atom  18O    basis set group =>   2
Atom  19O    basis set group =>   2
Atom  20O    basis set group =>   2
Atom  21O    basis set group =>   2
Atom  22O    basis set group =>   2
Atom  23C    basis set group =>   1
Atom  24C    basis set group =>   1
Atom  25C    basis set group =>   1
Atom  26C    basis set group =>   1
Atom  27O    basis set group =>   2
Atom  28C    basis set group =>   1
Atom  29C    basis set group =>   1
Atom  30C    basis set group =>   1
Atom  31C    basis set group =>   1
Atom  32C    basis set group =>   1
Atom  33C    basis set group =>   1
Atom  34C    basis set group =>   1
Atom  35C    basis set group =>   1
Atom  36O    basis set group =>   2
Atom  37O    basis set group =>   2
Atom  38O    basis set group =>   2
Atom  39O    basis set group =>   2
Atom  40O    basis set group =>   2
Atom  41C    basis set group =>   1
Atom  42H    basis set group =>   3
Atom  43H    basis set group =>   3
Atom  44H    basis set group =>   3
Atom  45H    basis set group =>   3
Atom  46H    basis set group =>   3
Atom  47H    basis set group =>   3
Atom  48H    basis set group =>   3
Atom  49H    basis set group =>   3
Atom  50H    basis set group =>   3
Atom  51H    basis set group =>   3
Atom  52H    basis set group =>   3
Atom  53H    basis set group =>   3
Atom  54H    basis set group =>   3
Atom  55H    basis set group =>   3
Atom  56H    basis set group =>   3
Atom  57H    basis set group =>   3
Atom  58H    basis set group =>   3
Atom  59H    basis set group =>   3
Atom  60H    basis set group =>   3
Atom  61H    basis set group =>   3
Atom  62H    basis set group =>   3
Atom  63H    basis set group =>   3
Atom  64H    basis set group =>   3
Atom  65H    basis set group =>   3
Atom  66H    basis set group =>   3
Atom  67H    basis set group =>   3
Atom  68H    basis set group =>   3
Atom  69H    basis set group =>   3
Atom  70H    basis set group =>   3
Atom  71H    basis set group =>   3
Atom  72H    basis set group =>   3
Atom  73H    basis set group =>   3
Atom  74H    basis set group =>   3
Atom  75H    basis set group =>   3
Atom  76H    basis set group =>   3
Atom  77H    basis set group =>   3
Atom  78H    basis set group =>   3
Atom  79H    basis set group =>   3
Atom  80H    basis set group =>   3
Atom  81H    basis set group =>   3
----------------------------------
AUXILIARY/JK BASIS SET INFORMATION
----------------------------------
There are 3 groups of distinct atoms

 Group   1 Type C   : 15s13p12d5f5g contracted to 15s13p12d5f5g pattern {111111111111111/1111111111111/111111111111/11111/11111}
 Group   2 Type O   : 15s13p12d5f5g contracted to 15s13p12d5f5g pattern {111111111111111/1111111111111/111111111111/11111/11111}
 Group   3 Type H   : 12s4p3d2f contracted to 12s4p3d2f pattern {111111111111/1111/111/11}

Atom   0C    basis set group =>   1
Atom   1C    basis set group =>   1
Atom   2C    basis set group =>   1
Atom   3C    basis set group =>   1
Atom   4C    basis set group =>   1
Atom   5C    basis set group =>   1
Atom   6C    basis set group =>   1
Atom   7C    basis set group =>   1
Atom   8C    basis set group =>   1
Atom   9C    basis set group =>   1
Atom  10C    basis set group =>   1
Atom  11C    basis set group =>   1
Atom  12C    basis set group =>   1
Atom  13C    basis set group =>   1
Atom  14C    basis set group =>   1
Atom  15C    basis set group =>   1
Atom  16C    basis set group =>   1
Atom  17C    basis set group =>   1
Atom  18O    basis set group =>   2
Atom  19O    basis set group =>   2
Atom  20O    basis set group =>   2
Atom  21O    basis set group =>   2
Atom  22O    basis set group =>   2
Atom  23C    basis set group =>   1
Atom  24C    basis set group =>   1
Atom  25C    basis set group =>   1
Atom  26C    basis set group =>   1
Atom  27O    basis set group =>   2
Atom  28C    basis set group =>   1
Atom  29C    basis set group =>   1
Atom  30C    basis set group =>   1
Atom  31C    basis set group =>   1
Atom  32C    basis set group =>   1
Atom  33C    basis set group =>   1
Atom  34C    basis set group =>   1
Atom  35C    basis set group =>   1
Atom  36O    basis set group =>   2
Atom  37O    basis set group =>   2
Atom  38O    basis set group =>   2
Atom  39O    basis set group =>   2
Atom  40O    basis set group =>   2
Atom  41C    basis set group =>   1
Atom  42H    basis set group =>   3
Atom  43H    basis set group =>   3
Atom  44H    basis set group =>   3
Atom  45H    basis set group =>   3
Atom  46H    basis set group =>   3
Atom  47H    basis set group =>   3
Atom  48H    basis set group =>   3
Atom  49H    basis set group =>   3
Atom  50H    basis set group =>   3
Atom  51H    basis set group =>   3
Atom  52H    basis set group =>   3
Atom  53H    basis set group =>   3
Atom  54H    basis set group =>   3
Atom  55H    basis set group =>   3
Atom  56H    basis set group =>   3
Atom  57H    basis set group =>   3
Atom  58H    basis set group =>   3
Atom  59H    basis set group =>   3
Atom  60H    basis set group =>   3
Atom  61H    basis set group =>   3
Atom  62H    basis set group =>   3
Atom  63H    basis set group =>   3
Atom  64H    basis set group =>   3
Atom  65H    basis set group =>   3
Atom  66H    basis set group =>   3
Atom  67H    basis set group =>   3
Atom  68H    basis set group =>   3
Atom  69H    basis set group =>   3
Atom  70H    basis set group =>   3
Atom  71H    basis set group =>   3
Atom  72H    basis set group =>   3
Atom  73H    basis set group =>   3
Atom  74H    basis set group =>   3
Atom  75H    basis set group =>   3
Atom  76H    basis set group =>   3
Atom  77H    basis set group =>   3
Atom  78H    basis set group =>   3
Atom  79H    basis set group =>   3
Atom  80H    basis set group =>   3
Atom  81H    basis set group =>   3
---------------------------------
AUXILIARY/X BASIS SET INFORMATION
---------------------------------
There are 3 groups of distinct atoms

 Group   1 Type C   : 15s13p12d5f5g contracted to 15s13p12d5f5g pattern {111111111111111/1111111111111/111111111111/11111/11111}
 Group   2 Type O   : 15s13p12d5f5g contracted to 15s13p12d5f5g pattern {111111111111111/1111111111111/111111111111/11111/11111}
 Group   3 Type H   : 12s4p3d2f contracted to 12s4p3d2f pattern {111111111111/1111/111/11}

Atom   0C    basis set group =>   1
Atom   1C    basis set group =>   1
Atom   2C    basis set group =>   1
Atom   3C    basis set group =>   1
Atom   4C    basis set group =>   1
Atom   5C    basis set group =>   1
Atom   6C    basis set group =>   1
Atom   7C    basis set group =>   1
Atom   8C    basis set group =>   1
Atom   9C    basis set group =>   1
Atom  10C    basis set group =>   1
Atom  11C    basis set group =>   1
Atom  12C    basis set group =>   1
Atom  13C    basis set group =>   1
Atom  14C    basis set group =>   1
Atom  15C    basis set group =>   1
Atom  16C    basis set group =>   1
Atom  17C    basis set group =>   1
Atom  18O    basis set group =>   2
Atom  19O    basis set group =>   2
Atom  20O    basis set group =>   2
Atom  21O    basis set group =>   2
Atom  22O    basis set group =>   2
Atom  23C    basis set group =>   1
Atom  24C    basis set group =>   1
Atom  25C    basis set group =>   1
Atom  26C    basis set group =>   1
Atom  27O    basis set group =>   2
Atom  28C    basis set group =>   1
Atom  29C    basis set group =>   1
Atom  30C    basis set group =>   1
Atom  31C    basis set group =>   1
Atom  32C    basis set group =>   1
Atom  33C    basis set group =>   1
Atom  34C    basis set group =>   1
Atom  35C    basis set group =>   1
Atom  36O    basis set group =>   2
Atom  37O    basis set group =>   2
Atom  38O    basis set group =>   2
Atom  39O    basis set group =>   2
Atom  40O    basis set group =>   2
Atom  41C    basis set group =>   1
Atom  42H    basis set group =>   3
Atom  43H    basis set group =>   3
Atom  44H    basis set group =>   3
Atom  45H    basis set group =>   3
Atom  46H    basis set group =>   3
Atom  47H    basis set group =>   3
Atom  48H    basis set group =>   3
Atom  49H    basis set group =>   3
Atom  50H    basis set group =>   3
Atom  51H    basis set group =>   3
Atom  52H    basis set group =>   3
Atom  53H    basis set group =>   3
Atom  54H    basis set group =>   3
Atom  55H    basis set group =>   3
Atom  56H    basis set group =>   3
Atom  57H    basis set group =>   3
Atom  58H    basis set group =>   3
Atom  59H    basis set group =>   3
Atom  60H    basis set group =>   3
Atom  61H    basis set group =>   3
Atom  62H    basis set group =>   3
Atom  63H    basis set group =>   3
Atom  64H    basis set group =>   3
Atom  65H    basis set group =>   3
Atom  66H    basis set group =>   3
Atom  67H    basis set group =>   3
Atom  68H    basis set group =>   3
Atom  69H    basis set group =>   3
Atom  70H    basis set group =>   3
Atom  71H    basis set group =>   3
Atom  72H    basis set group =>   3
Atom  73H    basis set group =>   3
Atom  74H    basis set group =>   3
Atom  75H    basis set group =>   3
Atom  76H    basis set group =>   3
Atom  77H    basis set group =>   3
Atom  78H    basis set group =>   3
Atom  79H    basis set group =>   3
Atom  80H    basis set group =>   3
Atom  81H    basis set group =>   3
--------------------------------------------------------------------------
WARNING: There is at least one non-excluded one OpenFabrics device found,
but there are no active ports detected (or Open MPI was unable to use
them).  This is most certainly not what you wanted.  Check your
cables, subnet manager configuration, etc.  The openib BTL will be
ignored for this job.

  Local host: c01b01n06
--------------------------------------------------------------------------
--------------------------------------------------------------------------
WARNING: There was an error initializing an OpenFabrics device.

  Local host:   c01b01n06
  Local device: mlx5_0
--------------------------------------------------------------------------
[c01b01n06:56596] 7 more processes have sent help message help-mpi-btl-openib.txt / no active ports found
[c01b01n06:56596] Set MCA parameter "orte_base_help_aggregate" to 0 to see all help / error messages
[c01b01n06:56596] 51 more processes have sent help message help-mpi-btl-openib.txt / error in device init


           ************************************************************
           *        Program running with 60 parallel MPI-processes    *
           *              working on a common directory               *
           ************************************************************
------------------------------------------------------------------------------
                             ORCA STARTUP CALCULATIONS
                           -- RI-GTO INTEGRALS CHOSEN --
------------------------------------------------------------------------------
------------------------------------------------------------------------------
                   ___                                                        
                  /   \      - P O W E R E D   B Y -                         
                 /     \                                                     
                 |  |  |   _    _      __       _____    __    __             
                 |  |  |  | |  | |    /  \     |  _  \  |  |  /  |          
                  \  \/   | |  | |   /    \    | | | |  |  | /  /          
                 / \  \   | |__| |  /  /\  \   | |_| |  |  |/  /          
                |  |  |   |  __  | /  /__\  \  |    /   |      \           
                |  |  |   | |  | | |   __   |  |    \   |  |\   \          
                \     /   | |  | | |  |  |  |  | |\  \  |  | \   \       
                 \___/    |_|  |_| |__|  |__|  |_| \__\ |__|  \__/        
                                                                              
                      - O R C A' S   B I G   F R I E N D -                    
                                      &                                       
                       - I N T E G R A L  F E E D E R -                       
                                                                              
 v1 FN, 2020, v2 2021, v3 2022-2024                                           
------------------------------------------------------------------------------


----------------------
SHARK INTEGRAL PACKAGE
----------------------

Number of atoms                             ...     82
Number of basis functions                   ...   2072
Number of shells                            ...    744
Maximum angular momentum                    ...      3
Integral batch strategy                     ... SHARK/LIBINT Hybrid
RI-J (if used) integral strategy            ... SPLIT-RIJ (Revised 2003 algorithm where possible)
Printlevel                                  ...      1
Contraction scheme used                     ... SEGMENTED contraction
Prescreening option                         ... SCHWARTZ
   Thresh                                   ... 1.000e-10
   Tcut                                     ... 1.000e-11
   Tpresel                                  ... 1.000e-11 
Coulomb Range Separation                    ... NOT USED
Exchange Range Separation                   ... NOT USED
Multipole approximations                    ... NOT USED
Finite Nucleus Model                        ... NOT USED
CABS basis                                  ... NOT available
Auxiliary Coulomb fitting basis             ... AVAILABLE
   # of basis functions in Aux-J            ...  10268
   # of shells in Aux-J                     ...   2940
   Maximum angular momentum in Aux-J        ...      4
Auxiliary J/K fitting basis                 ... AVAILABLE
   # of basis functions in Aux-JK           ...  10268
   # of shells in Aux-JK                    ...   2940
   Maximum angular momentum in Aux-JK       ...      4
Auxiliary Correlation fitting basis         ... AVAILABLE
   # of basis functions in Aux-C            ...  10268
   # of shells in Aux-C                     ...   2940
   Maximum angular momentum in Aux-C        ...      4
Auxiliary 'external' fitting basis          ... NOT available

Checking pre-screening integrals            ... done (  0.0 sec) Dimension = 744
   => SHARK Basis and OBASIS are compatible. Storing Pre-screening
Shell pair information
Shell pair cut-off parameter TPreSel        ...   1.0e-11
Total number of shell pairs                 ...    277140
Shell pairs after pre-screening             ...    153887
Total number of primitive shell pairs       ...    823733
Primitive shell pairs kept                  ...    281895
          la=0 lb=0:  29235 shell pairs
          la=1 lb=0:  51028 shell pairs
          la=1 lb=1:  20839 shell pairs
          la=2 lb=0:  20162 shell pairs
          la=2 lb=1:  15338 shell pairs
          la=2 lb=2:   2739 shell pairs
          la=3 lb=0:   7001 shell pairs
          la=3 lb=1:   5279 shell pairs
          la=3 lb=2:   1889 shell pairs
          la=3 lb=3:    377 shell pairs

Checking whether 4 symmetric matrices of dimension 2072 fit in memory
:Max Core in MB      =   5000.00
 MB in use           =    189.87
 MB left             =   4810.13
 MB needed           =     65.54
 Data fit in memory  = YES
Calculating RI/J V-Matrix + Cholesky decomp.... done (  7.9 sec)
Calculating RI/JK V-Matrix + Cholesky decomp.... done (  3.8 sec)
Calculating RI/C V-Matrix + Cholesky decomp.... done (  5.3 sec)
Calculating Nuclear repulsion               ... done (  0.0 sec) ENN=   5818.992305326028 Eh

Diagonalization of the overlap matrix:
Smallest eigenvalue                        ... 6.466e-06
Time for diagonalization                   ...    7.340 sec
Threshold for overlap eigenvalues          ... 1.000e-07
Number of eigenvalues below threshold      ... 0
Time for construction of square roots      ...    0.345 sec
Total time needed                          ...    7.761 sec

-------------------
DFT GRID GENERATION
-------------------

General Integration Accuracy     IntAcc      ... 4.388
Radial Grid Type                 RadialGrid  ... OptM3 with GC (2021)
Angular Grid (max. ang.)         AngularGrid ... 4 (Lebedev-302)
Angular grid pruning method      GridPruning ... 4 (adaptive)
Weight generation scheme         WeightScheme... mBecke (2022)
Basis function cutoff            BFCut       ... 1.0000e-10
Integration weight cutoff        WCut        ... 1.0000e-14
Partially contracted basis set               ... off
Rotationally invariant grid construction     ... off
Angular grids for H and He will be reduced by one unit
Diffuse basis detected: some atoms will have their outermost
                        angular grid increased by 1.

Total number of grid points                  ...   376518
Total number of batches                      ...     5921
Average number of points per batch           ...       63
Average number of grid points per atom       ...     4592
Grids setup in   4.4 sec
Initializing property integral containers    ... done (  0.6 sec)

SHARK setup successfully completed in  45.0 seconds

Maximum memory used throughout the entire STARTUP-calculation: 262.0 MB
--------------------------------------------------------------------------
WARNING: There was an error initializing an OpenFabrics device.

  Local host:   c01b01n06
  Local device: mlx5_0
--------------------------------------------------------------------------
--------------------------------------------------------------------------
WARNING: There is at least one non-excluded one OpenFabrics device found,
but there are no active ports detected (or Open MPI was unable to use
them).  This is most certainly not what you wanted.  Check your
cables, subnet manager configuration, etc.  The openib BTL will be
ignored for this job.

  Local host: c01b01n06
--------------------------------------------------------------------------


           ************************************************************
           *        Program running with 60 parallel MPI-processes    *
           *              working on a common directory               *
           ************************************************************
-------------------------------------------------------------------------------
                                 ORCA GUESS
                   Start orbitals & Density for SCF / CASSCF
-------------------------------------------------------------------------------

------------
SCF SETTINGS
------------
Hamiltonian:
 Density Functional     Method          .... DFT(GTOs)
 Exchange Functional    Exchange        .... TPSS
 Correlation Functional Correlation     .... TPSS
 LDA part of GGA corr.  LDAOpt          .... PW91-LDA
 Gradients option       PostSCFGGA      .... off
   NL short-range parameter             ....  5.000000
 RI-approximation to the Coulomb term is turned on
   Number of AuxJ basis functions       .... 10268


General Settings:
 Integral files         IntName         .... nmr-conf-9
 Hartree-Fock type      HFTyp           .... RHF
 Total Charge           Charge          ....    0
 Multiplicity           Mult            ....    1
 Number of Electrons    NEL             ....  314
 Basis Dimension        Dim             .... 2072
 Nuclear Repulsion      ENuc            ....   5818.9923053260 Eh

Convergence Acceleration:
 AO-DIIS                CNVDIIS         .... on
   Start iteration      DIISMaxIt       ....    12
   Startup error        DIISStart       ....  0.200000
   # of expansion vecs  DIISMaxEq       ....     5
   Bias factor          DIISBfac        ....   1.050
   Max. coefficient     DIISMaxC        ....  10.000
 MO-DIIS                CNVKDIIS        .... off
 Trust-Rad. Augm. Hess. CNVTRAH         .... auto
   Auto Start mean grad. ratio tolernc. ....  1.125000
   Auto Start start iteration           ....    50
   Auto Start num. interpolation iter.  ....    10
   Max. Number of Micro iterations      ....    24
   Max. Number of Macro iterations      .... Maxiter - #DIIS iter
   Number of Davidson start vectors     ....     2
   Converg. threshold    (grad. norm)   ....   5.000e-05
   Grad. Scal. Fac. for Micro threshold ....   0.100
   Minimum threshold for Micro iter.    ....   1.000e-02
   NR start threshold (gradient norm)   ....   1.000e-04
   Initial trust radius                 ....   0.400
   Minimum AH scaling param. (alpha)    ....   1.000
   Maximum AH scaling param. (alpha)    .... 1000.000
   Quad. conv. algorithm                .... NR
   White noise on init. David. guess    .... on
   Maximum white noise                  ....   0.010
   Pseudo random numbers                .... off
   Inactive MOs                         .... canonical
   Orbital update algorithm             .... Taylor
   Preconditioner                       .... Diag
   Full preconditioner red. dimension   ....   250
 SOSCF                 CNVSOSCF           .... on
   Start iteration     SOSCFMaxIt         ....   150
   Startup grad/error  SOSCFStart         ....  0.003300
   Hessian update      SOSCFHessUp        .... L-BFGS
   Autom. constraints  SOSCFAutoConstrain .... off
 Level Shifting         CNVShift        .... on
   Level shift para.    LevelShift      ....    0.2500
   Turn off err/grad.   ShiftErr        ....    0.0010
 Zerner damping         CNVZerner       .... off
 Static damping         CNVDamp         .... on
   Fraction old density DampFac         ....    0.7000
   Max. Damping (<1)    DampMax         ....    0.9800
   Min. Damping (>=0)   DampMin         ....    0.0000
   Turn off err/grad.   DampErr         ....    0.1000

SCF Procedure:
 Maximum # iterations   MaxIter         ....   125
 SCF integral mode      SCFMode         .... Direct
   Integral package                     .... SHARK and LIBINT hybrid scheme
 Reset frequency        DirectResetFreq ....    20
 Integral Threshold     Thresh          ....  1.000e-10 Eh
 Primitive CutOff       TCut            ....  1.000e-11 Eh

Convergence Tolerance:
 Convergence Check Mode ConvCheckMode   .... Total+1el-Energy
 Convergence forced     ConvForced      .... 0
 Energy Change          TolE            ....  1.000e-06 Eh
 1-El. energy change                    ....  1.000e-03 Eh
 Orbital Gradient       TolG            ....  5.000e-05
 Orbital Rotation angle TolX            ....  5.000e-05
 DIIS Error             TolErr          ....  1.000e-06

------------------------------
INITIAL GUESS: MODEL POTENTIAL
------------------------------
Loading Hartree-Fock densities                     ... done
Calculating cut-offs                               ... done
Initializing the effective Hamiltonian             ... done
Setting up the integral package (SHARK)            ... done
Starting the Coulomb interaction                   ... [c01b01n06:57050] 52 more processes have sent help message help-mpi-btl-openib.txt / error in device init
[c01b01n06:57050] Set MCA parameter "orte_base_help_aggregate" to 0 to see all help / error messages
[c01b01n06:57050] 6 more processes have sent help message help-mpi-btl-openib.txt / no active ports found
done (   3.6 sec)
Making the grid                                    ... done (   0.6 sec)
Mapping shells                                     ... done
Starting the XC term evaluation                    ... done (   0.6 sec)
  promolecular density results
     # of electrons  =    313.972127464
     EX              =   -260.299169952
     EC              =    -10.648826703
     EX+EC           =   -270.947996654
Transforming the Hamiltonian                       ... done (   0.3 sec)
Diagonalizing the Hamiltonian                      ... done (   0.6 sec)
Back transforming the eigenvectors                 ... done (   0.5 sec)
Now organizing SCF variables                       ... done
                      ------------------
                      INITIAL GUESS DONE (   7.8 sec)
                      ------------------
             **** ENERGY FILE WAS UPDATED (nmr-conf-9.en.tmp) ****
Finished Guess after  14.8 sec
Maximum memory used throughout the entire GUESS-calculation: 297.3 MB
--------------------------------------------------------------------------
WARNING: There was an error initializing an OpenFabrics device.

  Local host:   c01b01n06
  Local device: mlx5_0
--------------------------------------------------------------------------
--------------------------------------------------------------------------
WARNING: There is at least one non-excluded one OpenFabrics device found,
but there are no active ports detected (or Open MPI was unable to use
them).  This is most certainly not what you wanted.  Check your
cables, subnet manager configuration, etc.  The openib BTL will be
ignored for this job.

  Local host: c01b01n06
--------------------------------------------------------------------------


           ************************************************************
           *        Program running with 60 parallel MPI-processes    *
           *              working on a common directory               *
           ************************************************************

-------------------------------------------------------------------------------------------
                                      ORCA LEAN-SCF
                              memory conserving SCF solver
-------------------------------------------------------------------------------------------

[c01b01n06:57435] 53 more processes have sent help message help-mpi-btl-openib.txt / error in device init
[c01b01n06:57435] Set MCA parameter "orte_base_help_aggregate" to 0 to see all help / error messages
[c01b01n06:57435] 5 more processes have sent help message help-mpi-btl-openib.txt / no active ports found
--------------------
CPCM SOLVATION MODEL
--------------------
CPCM parameters:
  Epsilon                                         ...      33.4280
  Refrac                                          ...       1.3288
  Rsolv                                           ...       1.3000
  Surface type                                    ... GAUSSIAN VDW
  Discretization scheme                           ... Constant charge density
    Threshold for H atoms                         ...       5.0000 (charges/Ang^2)
    Threshold for non-H atoms                     ...       5.0000 (charges/Ang^2)
  Epsilon function type                           ...         CPCM
Solvent:                                          ... METHANOL
Radii:
  Scheme                                          ... Element-dependent radii
  Radius for C  used is    3.8550 Bohr (=   2.0400 Ang.)
  Radius for O  used is    3.4469 Bohr (=   1.8240 Ang.)
  Radius for H  used is    2.4944 Bohr (=   1.3200 Ang.)
Calculating surface                               ...        done! (  0.0s)
Cavity surface points                             ...         6104
Cavity Volume                                     ...    4527.7306
Cavity Surface-area                               ...    1970.9247
Calculating surface distance matrix               ...        done! (  0.2s)
Performing Cholesky decomposition & store         ...        done! (  0.7s)
Overall time for CPCM initialization              ...                 1.2s

----------------------------------------D-I-I-S--------------------------------------------
Iteration    Energy (Eh)           Delta-E    RMSDP     MaxDP     DIISErr   Damp  Time(sec)
-------------------------------------------------------------------------------------------
               ***  Starting incremental Fock matrix formation  ***
    1    -2033.0122525528795450     0.00e+00  8.25e-03  2.62e-01  2.39e-01  0.700  17.5
    2    -2033.4209967562646852    -4.09e-01  6.93e-03  2.22e-01  8.38e-02  0.700   9.7
                               ***Turning on AO-DIIS***
    3    -2033.5728312945166181    -1.52e-01  2.87e-03  7.48e-02  2.38e-02  0.700   7.8
    4    -2033.6647728521802492    -9.19e-02  4.86e-03  8.10e-02  1.13e-02  0.000  12.1
    5    -2033.8686431492797055    -2.04e-01  1.44e-03  4.33e-02  5.07e-03  0.000   7.8
                              *** Initializing SOSCF ***
---------------------------------------S-O-S-C-F--------------------------------------
Iteration    Energy (Eh)           Delta-E    RMSDP     MaxDP     MaxGrad    Time(sec)
--------------------------------------------------------------------------------------
    6    -2033.8700202622812867    -1.38e-03  4.74e-04  1.31e-02  1.43e-03     8.2
               *** Restarting incremental Fock matrix formation ***
    7    -2033.8701343031207216    -1.14e-04  3.53e-04  9.54e-03  1.47e-04     8.9
    8    -2033.8701043569944886     2.99e-05  8.00e-05  1.79e-03  6.68e-04     5.6
    9    -2033.8701498537129737    -4.55e-05  7.91e-05  2.34e-03  1.29e-04     7.9
   10    -2033.8701482532751470     1.60e-06  3.42e-05  1.25e-03  1.45e-04     5.6
   11    -2033.8701500066927110    -1.75e-06  4.14e-05  9.85e-04  2.72e-05     6.5
   12    -2033.8701495357108797     4.71e-07  2.05e-05  6.62e-04  5.39e-05     7.9
                 **** Energy Check signals convergence ****

               *****************************************************
               *                     SUCCESS                       *
               *           SCF CONVERGED AFTER  12 CYCLES          *
               *****************************************************

             **** ENERGY FILE WAS UPDATED (nmr-conf-9.en.tmp) ****

----------------
TOTAL SCF ENERGY
----------------

Total Energy       :      -2033.87015063856506 Eh          -55344.42045 eV

Components:
Nuclear Repulsion  :       5818.99230532602814 Eh          158342.83062 eV
Electronic Energy  :      -7852.81523911220484 Eh         -213685.96624 eV
One Electron Energy:     -14366.19027486393497 Eh         -390923.91157 eV
Two Electron Energy:       6513.37503575173014 Eh          177237.94533 eV
CPCM Dielectric    :         -0.04721685238834 Eh              -1.28484 eV

Virial components:
Potential Energy   :      -4061.11244119203866 Eh         -110508.48767 eV
Kinetic Energy     :       2027.24229055347359 Eh           55164.06721 eV
Virial Ratio       :          2.00326939710955

DFT components:
N(Alpha)           :      157.000502103870 electrons
N(Beta)            :      157.000502103870 electrons
N(Total)           :      314.001004207740 electrons
E(X)               :     -268.089272809957 Eh       
E(C)               :      -10.610581249987 Eh       
E(XC)              :     -278.699854059945 Eh       

CPCM Solvation Model Properties:
Surface-charge          :         -0.04298354428332
Corrected charge        :          0.00000000000000
Outlying charge corr.   :          0.00008052229910 Eh               0.00219 eV
Free-energy (cav+disp)  :  This term is not implemented in the current solvation scheme

---------------
SCF CONVERGENCE
---------------

  Last Energy change         ...   -4.7098e-07  Tolerance :   1.0000e-06
  Last MAX-Density change    ...    6.6216e-04  Tolerance :   1.0000e-05
  Last RMS-Density change    ...    2.0515e-05  Tolerance :   1.0000e-06
  Last DIIS Error            ...    1.4337e-03  Tolerance :   1.0000e-06
  Last Orbital Gradient      ...    5.3868e-05  Tolerance :   5.0000e-05
  Last Orbital Rotation      ...    9.9190e-05  Tolerance :   5.0000e-05


----------------
ORBITAL ENERGIES
----------------

  NO   OCC          E(Eh)            E(eV) 
   0   2.0000     -18.920403      -514.8504 
   1   2.0000     -18.917229      -514.7640 
   2   2.0000     -18.916880      -514.7545 
   3   2.0000     -18.909701      -514.5591 
   4   2.0000     -18.907781      -514.5069 
   5   2.0000     -18.906420      -514.4698 
   6   2.0000     -18.897155      -514.2177 
   7   2.0000     -18.891711      -514.0696 
   8   2.0000     -18.890870      -514.0467 
   9   2.0000     -18.876400      -513.6530 
  10   2.0000     -18.864249      -513.3223 
  11   2.0000     -10.046694      -273.3844 
  12   2.0000     -10.045332      -273.3474 
  13   2.0000     -10.045314      -273.3469 
  14   2.0000     -10.042307      -273.2651 
  15   2.0000     -10.041679      -273.2480 
  16   2.0000     -10.041481      -273.2426 
  17   2.0000     -10.040289      -273.2102 
  18   2.0000     -10.039687      -273.1938 
  19   2.0000     -10.038131      -273.1514 
  20   2.0000     -10.036664      -273.1115 
  21   2.0000     -10.036230      -273.0997 
  22   2.0000     -10.034181      -273.0439 
  23   2.0000     -10.033840      -273.0347 
  24   2.0000     -10.031544      -272.9722 
  25   2.0000     -10.031230      -272.9636 
  26   2.0000     -10.020939      -272.6836 
  27   2.0000      -9.987391      -271.7707 
  28   2.0000      -9.986948      -271.7587 
  29   2.0000      -9.986648      -271.7505 
  30   2.0000      -9.984372      -271.6886 
  31   2.0000      -9.983110      -271.6542 
  32   2.0000      -9.983109      -271.6542 
  33   2.0000      -9.982367      -271.6340 
  34   2.0000      -9.982048      -271.6253 
  35   2.0000      -9.981450      -271.6090 
  36   2.0000      -9.981354      -271.6065 
  37   2.0000      -9.979763      -271.5632 
  38   2.0000      -9.978073      -271.5172 
  39   2.0000      -9.976259      -271.4678 
  40   2.0000      -9.975487      -271.4468 
  41   2.0000      -9.975267      -271.4408 
  42   2.0000      -1.013228       -27.5713 
  43   2.0000      -1.009995       -27.4834 
  44   2.0000      -1.005065       -27.3492 
  45   2.0000      -0.999326       -27.1931 
  46   2.0000      -0.985798       -26.8249 
  47   2.0000      -0.982796       -26.7432 
  48   2.0000      -0.974916       -26.5288 
  49   2.0000      -0.962555       -26.1924 
  50   2.0000      -0.959069       -26.0976 
  51   2.0000      -0.952596       -25.9215 
  52   2.0000      -0.937202       -25.5026 
  53   2.0000      -0.798367       -21.7247 
  54   2.0000      -0.794185       -21.6109 
  55   2.0000      -0.791315       -21.5328 
  56   2.0000      -0.759164       -20.6579 
  57   2.0000      -0.738117       -20.0852 
  58   2.0000      -0.717101       -19.5133 
  59   2.0000      -0.701700       -19.0942 
  60   2.0000      -0.699649       -19.0384 
  61   2.0000      -0.696260       -18.9462 
  62   2.0000      -0.693724       -18.8772 
  63   2.0000      -0.686763       -18.6878 
  64   2.0000      -0.670900       -18.2561 
  65   2.0000      -0.651990       -17.7416 
  66   2.0000      -0.648457       -17.6454 
  67   2.0000      -0.646044       -17.5798 
  68   2.0000      -0.643020       -17.4975 
  69   2.0000      -0.622150       -16.9296 
  70   2.0000      -0.618969       -16.8430 
  71   2.0000      -0.610308       -16.6073 
  72   2.0000      -0.583034       -15.8652 
  73   2.0000      -0.568364       -15.4660 
  74   2.0000      -0.559001       -15.2112 
  75   2.0000      -0.555528       -15.1167 
  76   2.0000      -0.547602       -14.9010 
  77   2.0000      -0.544067       -14.8048 
  78   2.0000      -0.537669       -14.6307 
  79   2.0000      -0.533548       -14.5186 
  80   2.0000      -0.510901       -13.9023 
  81   2.0000      -0.508188       -13.8285 
  82   2.0000      -0.502103       -13.6629 
  83   2.0000      -0.500758       -13.6263 
  84   2.0000      -0.482455       -13.1283 
  85   2.0000      -0.478899       -13.0315 
  86   2.0000      -0.476588       -12.9686 
  87   2.0000      -0.473138       -12.8747 
  88   2.0000      -0.465540       -12.6680 
  89   2.0000      -0.463230       -12.6051 
  90   2.0000      -0.455834       -12.4039 
  91   2.0000      -0.451321       -12.2811 
  92   2.0000      -0.447575       -12.1791 
  93   2.0000      -0.444727       -12.1016 
  94   2.0000      -0.438457       -11.9310 
  95   2.0000      -0.432127       -11.7588 
  96   2.0000      -0.427240       -11.6258 
  97   2.0000      -0.425890       -11.5890 
  98   2.0000      -0.423301       -11.5186 
  99   2.0000      -0.420530       -11.4432 
 100   2.0000      -0.414793       -11.2871 
 101   2.0000      -0.410294       -11.1647 
 102   2.0000      -0.407997       -11.1022 
 103   2.0000      -0.401741       -10.9319 
 104   2.0000      -0.400374       -10.8947 
 105   2.0000      -0.397788       -10.8244 
 106   2.0000      -0.395276       -10.7560 
 107   2.0000      -0.391937       -10.6651 
 108   2.0000      -0.389317       -10.5939 
 109   2.0000      -0.383498       -10.4355 
 110   2.0000      -0.382478       -10.4077 
 111   2.0000      -0.381219       -10.3735 
 112   2.0000      -0.377818       -10.2809 
 113   2.0000      -0.375621       -10.2212 
 114   2.0000      -0.373408       -10.1610 
[...]

 Orientation: 
  X           0.9552614    0.2163928   -0.2016178
  Y          -0.2790661    0.4336542   -0.8567766
  Z          -0.0979679    0.8747104    0.4746410

 --------------
 Nucleus  73H :
 --------------

Diamagnetic contribution to the shielding tensor (ppm) : 
            49.817         20.103        13.746
            18.196         35.760        12.103
           -59.196        139.289        17.269

Paramagnetic contribution to the shielding tensor (ppm): 
           -23.679        -19.893       -11.802
           -15.984        -10.513        -9.209
            61.263       -135.748        16.073

Total shielding tensor (ppm): 
            26.138          0.210         1.944
             2.212         25.247         2.894
             2.067          3.541        33.342


 Diagonalized sT*s matrix:
 
 sDSO           -14.168           57.428           59.586  iso=      34.282
 sPSO            38.153          -31.740          -24.531  iso=      -6.039
        ---------------  ---------------  ---------------
 Total           23.984           25.688           35.056  iso=      28.243

 Orientation: 
  X           0.2612466    0.9307659    0.2557832
  Y          -0.9283422    0.1696750    0.3307433
  Z           0.2644446   -0.3238599    0.9083963

 --------------
 Nucleus  74H :
 --------------

Diamagnetic contribution to the shielding tensor (ppm) : 
            38.644        -17.491         6.451
            -1.015         17.543        23.244
           -61.236        110.990       -35.609

Paramagnetic contribution to the shielding tensor (ppm): 
           -11.759         16.693        -7.526
            -1.283         10.282       -19.539
            58.319       -106.839        64.244

Total shielding tensor (ppm): 
            26.885         -0.798        -1.075
            -2.298         27.825         3.704
            -2.917          4.151        28.635


 Diagonalized sT*s matrix:
 
 sDSO           -76.709           25.906           71.381  iso=       6.859
 sPSO           100.971           -0.006          -38.198  iso=      20.922
        ---------------  ---------------  ---------------
 Total           24.262           25.899           33.183  iso=      27.782

 Orientation: 
  X          -0.0969825    0.9157095   -0.3899622
  Y           0.7136037    0.3371016    0.6141110
  Z          -0.6938042    0.2187204    0.6861466

 --------------
 Nucleus  75H :
 --------------

Diamagnetic contribution to the shielding tensor (ppm) : 
            32.646        -43.632        69.880
           -20.497         12.055        61.775
            91.921        -50.727       146.125

Paramagnetic contribution to the shielding tensor (ppm): 
             1.685         33.122       -64.548
             8.007         12.132       -63.378
           -83.898         50.202      -123.936

Total shielding tensor (ppm): 
            34.332        -10.510         5.332
           -12.490         24.187        -1.603
             8.022         -0.524        22.189


 Diagonalized sT*s matrix:
 
 sDSO           -21.612          116.098           96.341  iso=      63.609
 sPSO            36.932          -94.322          -52.730  iso=     -36.707
        ---------------  ---------------  ---------------
 Total           15.320           21.776           43.611  iso=      26.902

 Orientation: 
  X           0.5497719    0.0453381    0.8340835
  Y           0.6877759    0.5420943   -0.4828023
  Z          -0.4740413    0.8390937    0.2668458

 --------------
 Nucleus  76H :
 --------------

Diamagnetic contribution to the shielding tensor (ppm) : 
           -16.241         42.712       -31.166
           -22.449         55.848       -25.475
            29.890        -69.550        86.366

Paramagnetic contribution to the shielding tensor (ppm): 
            42.530        -40.372        30.912
            23.732        -31.924        18.751
           -29.877         63.172       -48.500

Total shielding tensor (ppm): 
            26.289          2.340        -0.253
             1.283         23.923        -6.725
             0.012         -6.378        37.866


 Diagonalized sT*s matrix:
 
 sDSO            18.897           -7.916          114.992  iso=      41.991
 sPSO             1.936           34.657          -74.488  iso=     -12.631
        ---------------  ---------------  ---------------
 Total           20.833           26.741           40.504  iso=      29.359

 Orientation: 
  X          -0.2982942    0.9531381   -0.0504819
  Y           0.8919555    0.2595388   -0.3702093
  Z           0.3397586    0.1554589    0.9275757

 --------------
 Nucleus  77H :
 --------------

Diamagnetic contribution to the shielding tensor (ppm) : 
            -4.616         52.170        -7.385
           -18.771         64.693         4.255
            11.779        -38.263        63.771

Paramagnetic contribution to the shielding tensor (ppm): 
            26.076        -52.842        -1.629
            17.895        -39.469         2.995
           -20.875         46.820       -30.200

Total shielding tensor (ppm): 
            21.460         -0.672        -9.013
            -0.876         25.224         7.251
            -9.096          8.557        33.571


 Diagonalized sT*s matrix:
 
 sDSO            23.984           64.696           35.167  iso=      41.283
 sPSO            -8.594          -41.571            6.572  iso=     -14.531
        ---------------  ---------------  ---------------
 Total           15.390           23.126           41.739  iso=      26.751

 Orientation: 
  X          -0.7573803    0.5266522   -0.3860215
  Y           0.3632518    0.8310773    0.4211396
  Z          -0.5426079   -0.1787398    0.8207489

 --------------
 Nucleus  78H :
 --------------

Diamagnetic contribution to the shielding tensor (ppm) : 
            -9.788        -28.955       -65.469
           -34.373         13.537       -49.624
            -1.588        -33.235       -51.970

Paramagnetic contribution to the shielding tensor (ppm): 
            39.110         28.948        57.375
            35.706         14.326        48.923
            -5.955         32.882        71.605

Total shielding tensor (ppm): 
            29.323         -0.007        -8.094
             1.333         27.863        -0.701
            -7.543         -0.353        19.635


 Diagonalized sT*s matrix:
 
 sDSO           -71.154           15.964            6.969  iso=     -16.073
 sPSO            86.435           11.783           26.823  iso=      41.680
        ---------------  ---------------  ---------------
 Total           15.281           27.747           33.792  iso=      25.607

 Orientation: 
  X           0.4910071   -0.1151482   -0.8635120
  Y           0.0065286    0.9916844   -0.1285276
  Z           0.8711311    0.0574704    0.4876758

 --------------
 Nucleus  79H :
 --------------

Diamagnetic contribution to the shielding tensor (ppm) : 
           -14.596         14.109       -27.019
           -27.044         35.553       -18.310
            61.705        -70.101        19.259

Paramagnetic contribution to the shielding tensor (ppm): 
            44.206        -13.268        23.223
            26.519         -8.813        17.066
           -66.364         67.121         8.222

Total shielding tensor (ppm): 
            29.610          0.841        -3.796
            -0.525         26.740        -1.244
            -4.659         -2.980        27.482


 Diagonalized sT*s matrix:
 
 sDSO            -4.946           49.002           -3.840  iso=      13.405
 sPSO            28.349          -21.800           37.067  iso=      14.539
        ---------------  ---------------  ---------------
 Total           23.402           27.202           33.228  iso=      27.944

 Orientation: 
  X           0.4860152    0.4542990   -0.7465934
  Y           0.4389463   -0.8655981   -0.2409689
  Z           0.7557218    0.2105998    0.6201067

 --------------
 Nucleus  80H :
 --------------

Diamagnetic contribution to the shielding tensor (ppm) : 
             3.296        -40.261         1.969
           -11.439         -6.995         8.570
           113.251       -113.691        59.702

Paramagnetic contribution to the shielding tensor (ppm): 
            21.399         38.403        -3.274
            11.579         34.428        -7.396
          -114.483        115.356       -26.289

Total shielding tensor (ppm): 
            24.695         -1.858        -1.305
             0.140         27.434         1.174
            -1.232          1.665        33.413


 Diagonalized sT*s matrix:
 
 sDSO             2.142           37.674           16.186  iso=      18.668
 sPSO            22.223          -10.451           17.767  iso=       9.846
        ---------------  ---------------  ---------------
 Total           24.365           27.223           33.953  iso=      28.514

 Orientation: 
  X           0.9733815   -0.1740924   -0.1490647
  Y           0.2060394    0.9495475    0.2364474
  Z           0.1003804   -0.2608667    0.9601418

 --------------
 Nucleus  81H :
 --------------

Diamagnetic contribution to the shielding tensor (ppm) : 
            11.548        -17.258        -6.260
           -20.318         32.505        -7.722
            92.033        -64.387        74.037

Paramagnetic contribution to the shielding tensor (ppm): 
            17.111         11.440         8.221
            16.751         -2.987         2.455
           -91.089         58.761       -44.618

Total shielding tensor (ppm): 
            28.659         -5.818         1.961
            -3.568         29.518        -5.267
             0.944         -5.625        29.420


 Diagonalized sT*s matrix:
 
 sDSO            19.954           -4.913          103.049  iso=      39.363
 sPSO             2.865           32.462          -65.820  iso=     -10.164
        ---------------  ---------------  ---------------
 Total           22.819           27.549           37.228  iso=      29.199

 Orientation: 
  X           0.4706435   -0.7579787    0.4516225
  Y           0.7208965    0.0352200   -0.6921472
  Z           0.5087267    0.6513277    0.5630003



--------------------------------
CHEMICAL SHIELDING SUMMARY (ppm)
--------------------------------


  Nucleus  Element    Isotropic     Anisotropy
  -------  -------  ------------   ------------
      0       C           28.241        107.665 
      1       C           44.660        104.500 
      2       C           27.762        124.329 
      3       C           73.966        134.462 
      4       C           44.450        190.224 
      5       C           75.846        137.544 
      6       C          139.526         20.443 
      7       C          132.293         13.564 
      8       C          135.288         23.983 
      9       C          141.640         22.640 
     10       C           44.997        184.970 
     11       C           68.473        153.417 
     12       C           29.531        119.869 
     13       C           32.253        123.645 
     14       C           65.499        142.977 
     15       C           58.305        147.944 
     16       C          111.702         64.836 
     17       C          109.146         68.290 
     23       C           91.535         28.081 
     24       C          100.621         35.612 
     25       C           45.371        168.525 
     26       C          112.155         61.902 
     28       C           70.890        168.382 
     29       C           31.406        118.019 
     30       C           31.022        122.201 
     31       C           68.489        140.449 
     32       C           62.457        154.896 
     33       C          125.248         75.797 
     34       C          124.127         76.549 
     35       C          124.719         74.686 
     41       C          124.510         76.067 
     42       H           25.504          8.840 
     43       H           25.651          8.907 
     44       H           28.902          6.489 
     45       H           29.151          4.563 
     46       H           30.099          6.563 
     47       H           29.766          7.630 
     48       H           29.979          7.046 
     49       H           29.489          7.220 
     50       H           25.555          9.316 
     51       H           25.044          3.613 
     52       H           25.261          5.675 
     53       H           27.511          7.316 
     54       H           27.440          6.123 
     55       H           27.655          5.346 
     56       H           28.018          5.479 
     57       H           23.721         23.537 
     58       H           25.916          2.329 
     59       H           26.819          6.101 
     60       H           27.804          6.917 
     61       H           27.591          8.327 
     62       H           27.540         21.173 
     63       H           25.358          8.310 
     64       H           24.695          3.725 
     65       H           24.950          7.288 
     66       H           27.965          9.520 
     67       H           27.509          9.299 
     68       H           28.050          6.014 
     69       H           28.603          6.504 
     70       H           28.000          8.609 
     71       H           28.129          8.039 
     72       H           28.212          5.997 
     73       H           28.243         10.219 
     74       H           27.782          8.103 
     75       H           26.902         25.063 
     76       H           29.359         16.717 
     77       H           26.751         22.481 
     78       H           25.607         12.278 
     79       H           27.944          7.925 
     80       H           28.514          8.159 
     81       H           29.199         12.044 


NMR shielding tensor and spin rotation calculation done in   2.4 sec 

Maximum memory used throughout the entire PROP-calculation: 370.9 MB
[c01b01n06:58745] 53 more processes have sent help message help-mpi-btl-openib.txt / error in device init
[c01b01n06:58745] Set MCA parameter "orte_base_help_aggregate" to 0 to see all help / error messages
[c01b01n06:58745] 5 more processes have sent help message help-mpi-btl-openib.txt / no active ports found
--------------------------------------------------------------------------
WARNING: There was an error initializing an OpenFabrics device.

  Local host:   c01b01n06
  Local device: mlx5_0
--------------------------------------------------------------------------
--------------------------------------------------------------------------
WARNING: There is at least one non-excluded one OpenFabrics device found,
but there are no active ports detected (or Open MPI was unable to use
them).  This is most certainly not what you wanted.  Check your
cables, subnet manager configuration, etc.  The openib BTL will be
ignored for this job.

  Local host: c01b01n06
--------------------------------------------------------------------------
[c01b01n06:59185] 51 more processes have sent help message help-mpi-btl-openib.txt / error in device init
[c01b01n06:59185] Set MCA parameter "orte_base_help_aggregate" to 0 to see all help / error messages
[c01b01n06:59185] 7 more processes have sent help message help-mpi-btl-openib.txt / no active ports found

--------------------------------
SUGGESTED CITATIONS FOR THIS RUN
--------------------------------

Below you find a list of papers that are relevant to this ORCA run
We neither can nor want to force you to cite these papers, but we appreciate if you do
You receive ORCA, which is the product of decades of hard work by many enthusiastic individuals, for free
The only thing we kindly ask in return is that you cite our papers,
We deeply appreciate it, if you show your appreciation for ORCA by not just citing the generic ORCA reference.

Please note that relegating all ORCA citations to the supporting information does *not* help us.
SI sections are not indexed - citations you put there will not count into any citation statistics
But we need these citations in order to attract the funding resources that allow us to do what we are doing

Therefore, if you are a happy ORCA user, please consider citing a few of the papers listed below in the main body of your paper

In addition to the list printed below, the program has created the file nmr-conf-9.bibtex that contains the list in bibtex format
You can import this file easily into all common literature databanks and citation aid programs


List of essential papers. We consider these as the minimum necessary citations

  1. Neese, F.
     Software update: the ORCA program system, version 6.0
     WIRES Comput. Molec. Sci. 2025 15(1), e70019
     doi.org/10.1002/wcms.7019

List of papers to cite with high priority. The work reported in these papers was absolutely
necessary for this run to complete.
Our perspective: the developers of density functionals and basis sets usually get cited in chemistry papers
Good! But without the algorithms to do something with them, the functionals or basis sets would not do anything.
Hence, in our opinion, the algorithm design and method developments papers are equally worthy of getting cited

  1. Neese, F.
     An improvement of the resolution of the identity approximation for the formation of the Coulomb matrix
     J. Comp. Chem. 2003 24(14), 1740-1747
     doi.org/10.1002/jcc.10318
  2. Stoychev, G.L.; Auer, A.A.; Neese, F.
     Automatic Generation of Auxiliary Basis Sets
     J. Theo. Comp. Chem. 2017 13 , 554-562
     doi.org/10.1021/acs.jctc.6b01041
  3. Stoychev, G.L.; Auer, A.A.; Izsak, R.; Neese, F.
     Self-Consistent Field Calculation of Nuclear Magnetic Resonance Chemical Shielding Constants Using Gauge-Including Atomic Orbitals and Approximate Two-Electron Integrals
     J. Chem. Theory Comput. 2018 14(2), 619-637
     doi.org/10.1021/acs.jctc.7b01006
  4. Garcia-Rates, M.; Neese, F.
     Effect of the Solute Cavity on the Solvation Energy and its Derivatives within the Framework of the Gaussian Charge Scheme
     J. Comput. Chem. 2020 41 , 922-939
     doi.org/10.1002/jcc.26139
  5. Neese, F.
     The SHARK Integral Generation and Digestion System
     J. Comp. Chem. 2022 44(3), 381
     doi.org/10.1002/jcc.26942

List of suggested additional citations. These are papers that are important in the 'surrounding' of 
of this run, or papers that preceded the highly important papers. If you like your results we are grateful for a citation.

  1. Neese, F.
     The ORCA program system
     WIRES Comput. Molec. Sci. 2012 2(1), 73-78
     doi.org/10.1002/wcms.81
  2. Neese, F.
     Software update: the ORCA program system, version 4.0
     WIRES Comput. Molec. Sci. 2018 8(1), 1-6
     doi.org/10.1002/wcms.1327
  3. Neese, F.; Wennmohs, F.; Becker, U.; Riplinger, C.
     The ORCA quantum chemistry program package
     J. Chem. Phys. 2020 152(22), 224108
     doi.org/10.1063/5.0004608
  4. Neese, F.
     Software update: The ORCA program system—Version 5.0
     WIRES Comput. Molec. Sci. 2022 12(1), e1606
     doi.org/10.1002/wcms.1606

List of optional additional citations

  1. Neese, F.
     Approximate second-order SCF convergence for spin unrestricted wavefunctions
     Chem. Phys. Lett. 2000 325(1-3), 93-98
     doi.org/10.1016/s0009-2614(00)00662-x

Timings for individual modules:

Sum of individual times          ...      322.059 sec (=   5.368 min)
Startup calculation              ...      103.670 sec (=   1.728 min)  32.2 %
SCF iterations                   ...      144.875 sec (=   2.415 min)  45.0 %
Property integrals               ...       51.026 sec (=   0.850 min)  15.8 %
SCF Response                     ...       15.336 sec (=   0.256 min)   4.8 %
Property calculations            ...        7.153 sec (=   0.119 min)   2.2 %
                             ****ORCA TERMINATED NORMALLY****
TOTAL RUN TIME: 0 days 0 hours 5 minutes 53 seconds 104 msec
