
                                 *****************
                                 * O   R   C   A *
                                 *****************

                                            #,                                       
                                            ###                                      
                                            ####                                     
                                            #####                                    
                                            ######                                   
                                           ########,                                 
                                     ,,################,,,,,                         
                               ,,#################################,,                 
                          ,,##########################################,,             
                       ,#########################################, ''#####,          
                    ,#############################################,,   '####,        
                  ,##################################################,,,,####,       
                ,###########''''           ''''###############################       
              ,#####''   ,,,,##########,,,,          '''####'''          '####       
            ,##' ,,,,###########################,,,                        '##       
           ' ,,###''''                  '''############,,,                           
         ,,##''                                '''############,,,,        ,,,,,,###''
      ,#''                                            '''#######################'''  
     '                                                          ''''####''''         
             ,#######,   #######,   ,#######,      ##                                
            ,#'     '#,  ##    ##  ,#'     '#,    #''#        ,####,    ,#,          
            ##       ##  ##   ,#'  ##            #'  '#       #'       ,# #          
            ##       ##  #######   ##           ,######,      #####,      #          
            '#,     ,#'  ##    ##  '#,     ,#' ,#      #,     #,   #      #          
             '#######'   ##     ##  '#######'  #'      '#     '####' #    #          



                #########################################################
                #                        -***-                          #
                #          Department of theory and spectroscopy        #
                #                                                       #
                #                      Frank Neese                      #
                #                                                       #
                #     Directorship, Architecture, Infrastructure        #
                #                    SHARK, DRIVERS                     #
                #        Core code/Algorithms in most modules           #
                #                                                       #
                #        Max Planck Institute fuer Kohlenforschung      #
                #                Kaiser Wilhelm Platz 1                 #
                #                 D-45470 Muelheim/Ruhr                 #
                #                      Germany                          #
                #                                                       #
                #                  All rights reserved                  #
                #                        -***-                          #
                #########################################################


                         Program Version 6.1.0-f.0  -   RELEASE   -


 With contributions from (in alphabetic order):
[Max-Planck-Institut fuer Kohlenforschung]                               
  Daniel Aravena         : Magnetic Suceptibility                        
  Michael Atanasov       : Ab Initio Ligand Field Theory (pilot matlab implementation)
  Alexander A. Auer      : GIAO ZORA, VPT2 properties, NMR spectrum      
  Ute Becker             : All parallelization in ORCA, NUMFREQ, NUMCALC 
  Giovanni Bistoni       : ED, misc. LED, open-shell LED, HFLD           
  Dmytro Bykov           : pre 5.0 version of the SCF Hessian            
  Marcos Casanova-Páez   : Triplet and SCS-CIS(D). UHF-(DLPNO)-IP/EA/STEOM-CCSD. UHF-CVS-IP/STEOM-CCSD   
  Vijay G. Chilkuri      : MRCI spin determinant printing, contributions to CSF-ICE 
  Pauline Colinet        : FMM embedding                                 
  Dipayan Datta          : RHF DLPNO-CCSD density                        
  Achintya Kumar Dutta   : EOM-CC, STEOM-CC                              
  Nicolas Foglia         : Exact transition moments, OPA infrastructure, MCD improvements    
  Dmitry Ganyushin       : Spin-Orbit,Spin-Spin,Magnetic field MRCI      
  Miquel Garcia-Rates    : C-PCM and meta-GGA Hessian, CCSD/C-PCM, Gaussian charge scheme 
  Tiago L. C. Gouveia    : GS-ROHF, GS-ROCIS                             
  Yang Guo               : DLPNO-NEVPT2, F12-NEVPT2, CIM, IAO-localization        
  Andreas Hansen         : Spin unrestricted coupled pair/coupled cluster methods 
  Ingolf Harden          : AUTO-CI MPn and infrastructure                
  Benjamin Helmich-Paris : MC-RPA, TRAH-(SCF,CASSCF), AVAS, COSX integrals, SCF dyn. polar., MC-PDFT, srDFT 
  Lee Huntington         : MR-EOM, pCC                                   
  Robert Izsak           : Overlap fitted RIJCOSX, COSX-SCS-MP3, EOM     
  Riya Kayal             : Wick's Theorem for AUTO-CI, AUTO-CI UHF-CCSDT 
  Emily Kempfer          : AUTO-CI RHF CISDT and CCSDT, approximate NEVPT4
  Christian Kollmar      : KDIIS, OOCD, Brueckner-CCSD(T), CCSD density, CASPT2, CASPT2-K, improved NEVPT2 
  Axel Koslowski         : Symmetry handling                             
  Simone Kossmann        : meta-GGA functionals, TD-DFT gradient, OOMP2, (MP2 Hessian; deprecated post 5.0) 
  Lucas Lang             : DCDCAS, Hyperfine gauge corrections, ICE-SOC+SSC
  Marvin Lechner         : AUTO-CI (C++ implementation), FIC-MRCC        
  Spencer Leger          : CASSCF response                               
  Dagmar Lenk            : GEPOL surface, SMD, ORCA-2-JSON               
  Dimitrios Liakos       : Extrapolation schemes; Compound Job, Property file
  Dimitrios Manganas     : Further ROCIS development; embedding schemes. LFT, Crystal Embedding 
  Dimitrios Pantazis     : SARC Basis sets                               
  Anastasios Papadopoulos: AUTO-CI, single reference methods and gradients 
  Taras Petrenko         : pre 6.0 DFT Hessian and TD-DFT gradient,  ECA, NRVS 
  Petra Pikulova         : Analytic Raman intensities                    
  Peter Pinski           : DLPNO-MP2, DLPNO-MP2 Gradient                 
  Shashank Vittal Rao    : ES-AILFT, MagRelax                            
  Christoph Reimann      : Effective Core Potentials                     
  Marius Retegan         : Local ZFS, SOC                                
  Christoph Riplinger    : Optimizer, TS searches, QM/MM, DLPNO-CCSD(T), (RO)-DLPNO pert. Triples 
  Michael Roemelt        : Original ROCIS implementation, recursive CI coupling coefficients
  Masaaki Saitow         : Open-shell DLPNO-CCSD energy and density      
  Barbara Sandhoefer     : DKH picture change effects                    
  Yorick L. A. Schmerwitz: GMF and freeze-and-release deltaSCF, NEB S-IDPP initial path                    
  Kantharuban Sivalingam : CASSCF convergence/infrastructure, NEVPT2, NEVPT3, NEVPT4(SD), FIC-MRCI and CEPA variants
  Bernardo de Souza      : ESD, SOC TD-DFT                               
  Georgi L. Stoychev     : AutoAux, RI-MP2 NMR, DLPNO-MP2 response, X2C  
  Van Anh Tran           : RI-MP2 g-tensors                              
  Willem Van den Heuvel  : Paramagnetic NMR                              
  Zikuan Wang            : NOTCH, Electric field optimization            
  Frank Wennmohs         : Technical directorship and infrastructure     
  Hang Xu                : AUTO-CI-Response properties                   
                                                                         
[FACCTs GmbH]                                                            
  Markus Bursch, Nicolas Foglia, Miquel Garcia-Rates, Ingolf Harden, Hagen Neugebauer, Anastasios Papadopoulos, 
  Christoph Riplinger, Bernardo de Souza, Georgi L. Stoychev                                                    
                                                                 
  APM, various basis sets, CI-OPT, improved COSX, DLPNO-Multilevel,           
  DOCKER, DRACO, updates on ESD, Fragmentator, GOAT, IRC, LR-CPCM, L-BFGS, MBIS, meta-GGA TD-DFT gradient, ML-optimized integration grids, 
  MM, NACMEs, nearIR, NEB, NEB-TS, NL-DFT gradient (VV10), 2- and 3-layer-ONIOM, interface openCOSMO-RS, QMMM,   
  Crystal-QMMM, RESP, rigid body optimization, SF, symmetry and pop. for TD-DFT, various functionals, SOLVATOR                                   
                                                                         
[Other institutions]                                                     
  V. Asgeirsson          : NEB                                           
  Christoph Bannwarth    : sTDA-DFT, sTD-DFT, PBEh-3c, B97-3c, D3        
  Giovanni Bistoni       : ETS/NOCV, ADLD/ADEX, COVALED                  
  Martin Brehm           : Molecular dynamics                            
  Ronald Cardenas        : ETS/NOCV                                      
  Martina Colucci        : COVALED                                       
  Sebastian Ehlert       : rSCAN, r2SCAN, r2SCAN-3c, D4, dhf basis sets  
  Marvin Friede          : D4 for Fr, Ra, Ac-Lr                          
  Lars Goerigk           : TD-DFT with DH, B97 family of functionals     
  Stefan Grimme          : VdW corrections, initial TS optimization, DFT functionals, gCP, sTDA/sTD-DF 
  Waldemar Hujo          : DFT-NL                                        
  H. Jonsson             : NEB                                           
  Holger Kruse           : gCP                                           
  Marcel Mueller         : wB97X-3c, vDZP basis set                      
  Hagen Neugebauer       : wr2SCAN, Native XTB                           
  Gianluca Regni         : ADLD/ADEX                                     
  Tobias Risthaus        : pre 6.0 range-separated hybrid DFT and stability analysis
  Lukas Wittmann         : regularized MP2, r2SCAN double-hybrids, wr2SCAN        
                                                                         
We gratefully acknowledge several colleagues who have allowed us to      
interface, adapt or use parts of their codes:                            
  Ed Valeev, F. Pavosevic, A. Kumar             : LibInt (2-el integral package), F12 methods 
  Garnet Chan, S. Sharma, J. Yang, R. Olivares  : DMRG                   
  Ulf Ekstrom                                   : XCFun DFT Library      
  Mihaly Kallay                                 : mrcc  (arbitrary order and MRCC methods)
  Frank Weinhold                                : gennbo (NPA and NBO analysis)           
  Simon Mueller                                 : openCOSMO-RS                            
  Christopher J. Cramer and Donald G. Truhlar   : smd solvation model                     
  S Lehtola, MJT Oliveira, MAL Marques          : LibXC Library                           
  Liviu Ungur et al                             : ANISO software                          


 Your calculation uses the libint2 library for the computation of 2-el integrals
 For citations please refer to: http://libint.valeyev.net

 Your ORCA version has been built with support for libXC version: 7.0.0
 For citations please refer to: https://libxc.gitlab.io

 This ORCA versions uses:
   CBLAS   interface :  Fast vector & matrix operations
   LAPACKE interface :  Fast linear algebra routines
   SCALAPACK package :  Parallel linear algebra routines
   Shared memory     :  Shared parallel matrices
   BLAS/LAPACK       :  OpenBLAS 0.3.29  USE64BITINT DYNAMIC_ARCH NO_AFFINITY Cooperlake SINGLE_THREADED
        Core in use  :  Cooperlake
   Copyright (c) 2011-2014, The OpenBLAS Project


  ***********************************
  * Starting time: Tue Mar  3 21:10:51 2026
  * Host name:     c09b01n02
  * Process ID:    2409086
  * Working dir.:  /lustre1/jiangy/jiangy_liuxy/NMR/B9D7C2-SSRS-NMR/opt_conf
  ***********************************

NOTE: MaxCore=5000 MB was set to SCF,MP2,MDCI,CIPSI,MRCI,RASCI and CIS
      => If you want to overwrite this, your respective input block should be placed after the MaxCore statement


***************************************
The coordinates will be read from file: opt-conf-7.xyz
***************************************



Warning: The global flag for NMR shieldings has been found
         but shieldings for certain elements have also been explicitly requested in the EPRNMR block
         ==>> only the requested shieldings will be calculated

================================================================================

----- Orbital basis set information -----
Your calculation utilizes the basis: pcSseg-2
   F. Jensen, J. Chem. Theory Comput. 11, 132 (2015).

----- AuxJ basis set information -----
Your calculation utilizes the AutoAux generation procedure.
  G. L. Stoychev, A. A. Auer, F. Neese, J. Chem. Theory Comput. 13, 554 (2017)

----- AuxC basis set information -----
Your calculation utilizes the AutoAux generation procedure.
  G. L. Stoychev, A. A. Auer, F. Neese, J. Chem. Theory Comput. 13, 554 (2017)

----- AuxJK basis set information -----
Your calculation utilizes the AutoAux generation procedure.
  G. L. Stoychev, A. A. Auer, F. Neese, J. Chem. Theory Comput. 13, 554 (2017)

----- AuxX basis set information -----
Your calculation utilizes the AutoAux generation procedure.
  G. L. Stoychev, A. A. Auer, F. Neese, J. Chem. Theory Comput. 13, 554 (2017)

================================================================================
                                        WARNINGS
                       Please study these warnings very carefully!
================================================================================


================================================================================
                                       INPUT FILE
================================================================================
NAME = nmr-conf-7.inp
|  1> !TPSS PCSSEG-2 AUTOAUX NMR CPCM(Methanol)
|  2> 
|  3> %pal nprocs 60 end
|  4> %maxcore 5000
|  5> 
|  6> *XYZFILE 0 1 opt-conf-7.xyz
|  7> 
|  8> %EPRNMR
|  9>    NUCLEI = ALL C {SHIFT}
| 10>    NUCLEI = ALL H {SHIFT}
| 11>    TAU DOBSON
| 12> END
| 13> 
| 14> 
| 15>                          ****END OF INPUT****
================================================================================

                       ****************************
                       * Single Point Calculation *
                       ****************************

---------------------------------
CARTESIAN COORDINATES (ANGSTROEM)
---------------------------------
  C     14.740847  -18.246194    0.462282
  C     15.365026  -19.263026   -0.269367
  C     14.666853  -20.443840   -0.530943
  C     13.375518  -20.618224   -0.036608
  C     12.764871  -19.611184    0.701788
  C     13.456971  -18.432020    0.960543
  C     11.324447  -19.736272    1.122117
  C     10.395264  -18.819213    0.293666
  C     10.406550  -19.211607   -1.207663
  C     10.361693  -17.993868   -2.155459
  C     11.583189  -17.113561   -2.060716
  C     12.813906  -17.564844   -2.552890
  C     13.949349  -16.776138   -2.459778
  C     13.871562  -15.503572   -1.874231
  C     12.660806  -15.052088   -1.383093
  C     11.524412  -15.854899   -1.475394
  C      9.019545  -18.790457    0.962470
  C      9.374196  -20.265026   -1.610846
  O     15.317228  -21.358967   -1.296753
  O     15.458985  -17.103044    0.627748
  O     16.606851  -19.112926   -0.831857
  O     14.978657  -14.708216   -1.786000
  O     15.195760  -17.124256   -2.902769
  C     17.747731  -18.810369   -0.004352
  C     18.356383  -20.088753    0.590056
  C     17.376181  -20.892044    1.408489
  C     18.699086  -18.092681   -0.946175
  O     18.100843  -16.921243   -1.492677
  C     16.654127  -20.290314    2.446471
  C     15.719297  -21.018185    3.160808
  C     15.499066  -22.371286    2.853591
  C     16.228499  -22.974239    1.845951
  C     17.163268  -22.233129    1.127131
  C     14.913524  -16.065390    1.436606
  C     14.682689  -22.611418   -1.528456
  C     15.322398  -18.306470   -3.694370
  O     19.536324  -19.744724    1.339189
  O      8.079297  -17.920509    0.333663
  O      8.023929  -19.767720   -1.729727
  O     14.932054  -20.536120    4.165843
  O     14.563097  -23.086005    3.541152
  C     15.064193  -19.162388    4.526592
  H     12.830454  -21.527171   -0.242862
  H     12.971648  -17.640535    1.512235
  H     11.222806  -19.469004    2.178285
  H     10.999130  -20.775561    1.023992
  H     10.803071  -17.808170    0.366395
  H     11.367616  -19.697924   -1.393574
  H      9.472984  -17.394714   -1.954205
  H     10.269460  -18.366345   -3.181805
  H     12.876238  -18.546649   -3.001404
  H     12.612476  -14.067907   -0.933660
  H     10.582423  -15.487567   -1.087100
  H      8.606955  -19.805115    1.025525
  H      9.139358  -18.428409    1.985969
  H      9.669838  -20.708232   -2.565177
  H      9.332598  -21.064653   -0.870059
  H     15.714878  -15.153980   -2.229156
  H     17.453923  -18.132758    0.796990
  H     18.715943  -20.713152   -0.229963
  H     19.593404  -17.781614   -0.409798
  H     18.996103  -18.783309   -1.746275
  H     17.199926  -17.159466   -1.761516
  H     16.800708  -19.243181    2.670716
  H     16.050313  -24.018141    1.620700
  H     17.711003  -22.704698    0.321197
  H     13.982263  -15.683565    1.015124
  H     14.737816  -16.414511    2.456607
  H     15.659266  -15.274352    1.444032
  H     15.382426  -23.193664   -2.123619
  H     14.482980  -23.130856   -0.588345
  H     13.748696  -22.486739   -2.082231
  H     14.687343  -18.241374   -4.580747
  H     16.367024  -18.357431   -3.989983
  H     15.063954  -19.194212   -3.117148
  H     19.263519  -19.306332    2.156242
  H      7.819548  -18.374227   -0.488007
  H      7.927767  -19.352069   -2.595300
  H     14.156980  -22.502862    4.200459
  H     14.351696  -18.993562    5.329966
  H     16.075996  -18.948679    4.879215
  H     14.825382  -18.517173    3.679499

----------------------------
CARTESIAN COORDINATES (A.U.)
----------------------------
  NO LB      ZA    FRAG     MASS         X           Y           Z
   0 C     6.0000    0    12.011   27.856164  -34.480309    0.873586
   1 C     6.0000    0    12.011   29.035690  -36.401844   -0.509031
   2 C     6.0000    0    12.011   27.716335  -38.633259   -1.003338
   3 C     6.0000    0    12.011   25.276066  -38.962796   -0.069179
   4 C     6.0000    0    12.011   24.122110  -37.059767    1.326187
   5 C     6.0000    0    12.011   25.429989  -34.831471    1.815164
   6 C     6.0000    0    12.011   21.400103  -37.296149    2.120493
   7 C     6.0000    0    12.011   19.644203  -35.563160    0.554947
   8 C     6.0000    0    12.011   19.665529  -36.304677   -2.282153
   9 C     6.0000    0    12.011   19.580763  -34.003482   -4.073227
  10 C     6.0000    0    12.011   21.889054  -32.339943   -3.894189
  11 C     6.0000    0    12.011   24.214774  -33.192746   -4.824263
  12 C     6.0000    0    12.011   26.360450  -31.702307   -4.648307
  13 C     6.0000    0    12.011   26.213453  -29.297505   -3.541783
  14 C     6.0000    0    12.011   23.925456  -28.444324   -2.613666
  15 C     6.0000    0    12.011   21.777982  -29.961417   -2.788090
  16 C     6.0000    0    12.011   17.044470  -35.508818    1.818805
  17 C     6.0000    0    12.011   17.714664  -38.295349   -3.044058
  18 O     8.0000    0    15.999   28.945366  -40.362599   -2.450509
  19 O     8.0000    0    15.999   29.213248  -32.320070    1.186272
  20 O     8.0000    0    15.999   31.382400  -36.118196   -1.571981
  21 O     8.0000    0    15.999   28.305560  -27.794499   -3.375051
  22 O     8.0000    0    15.999   28.715825  -32.360153   -5.485438
  23 C     6.0000    0    12.011   33.538351  -35.546445   -0.008223
  24 C     6.0000    0    12.011   34.688537  -37.962242    1.115044
  25 C     6.0000    0    12.011   32.836223  -39.480242    2.661659
  26 C     6.0000    0    12.011   35.336151  -34.190212   -1.788011
  27 O     8.0000    0    15.999   34.205636  -31.976515   -2.820750
  28 C     6.0000    0    12.011   31.471739  -38.343137    4.623159
  29 C     6.0000    0    12.011   29.705166  -39.718613    5.973061
  30 C     6.0000    0    12.011   29.288991  -42.275603    5.392505
  31 C     6.0000    0    12.011   30.667418  -43.415021    3.488341
  32 C     6.0000    0    12.011   32.433876  -42.014524    2.129970
  33 C     6.0000    0    12.011   28.182475  -30.359188    2.714791
  34 C     6.0000    0    12.011   27.746261  -42.729387   -2.888364
  35 C     6.0000    0    12.011   28.955135  -34.594215   -6.981347
  36 O     8.0000    0    15.999   36.918302  -37.312121    2.530700
  37 O     8.0000    0    15.999   15.267658  -33.864855    0.630532
  38 O     8.0000    0    15.999   15.163029  -37.355577   -3.268710
  39 O     8.0000    0    15.999   28.217492  -38.807643    7.872302
  40 O     8.0000    0    15.999   27.520264  -43.626226    6.691808
  41 C     6.0000    0    12.011   28.467198  -36.211665    8.554019
  42 H     1.0000    0     1.008   24.246045  -40.680458   -0.458942
  43 H     1.0000    0     1.008   24.512861  -33.335779    2.857710
  44 H     1.0000    0     1.008   21.208030  -36.791086    4.116362
  45 H     1.0000    0     1.008   20.785344  -39.260120    1.935065
  46 H     1.0000    0     1.008   20.414845  -33.652564    0.692387
  47 H     1.0000    0     1.008   21.481681  -37.223682   -2.633472
  48 H     1.0000    0     1.008   17.901345  -32.871245   -3.692913
  49 H     1.0000    0     1.008   19.406468  -34.707363   -6.012741
  50 H     1.0000    0     1.008   24.332564  -35.048088   -5.671832
  51 H     1.0000    0     1.008   23.834125  -26.584491   -1.764361
  52 H     1.0000    0     1.008   19.997882  -29.267260   -2.054320
  53 H     1.0000    0     1.008   16.264787  -37.426243    1.937962
  54 H     1.0000    0     1.008   17.270884  -34.824645    3.752937
  55 H     1.0000    0     1.008   18.273346  -39.132888   -4.847482
  56 H     1.0000    0     1.008   17.636054  -39.806426   -1.644174
  57 H     1.0000    0     1.008   29.696816  -28.636872   -4.212494
  58 H     1.0000    0     1.008   32.983134  -34.265946    1.506092
  59 H     1.0000    0     1.008   35.368007  -39.142186   -0.434567
  60 H     1.0000    0     1.008   37.026167  -33.602381   -0.774405
  61 H     1.0000    0     1.008   35.897433  -35.495311   -3.299982
  62 H     1.0000    0     1.008   32.503150  -32.426691   -3.328783
  63 H     1.0000    0     1.008   31.748737  -36.364343    5.046922
  64 H     1.0000    0     1.008   30.330697  -45.387709    3.062679
  65 H     1.0000    0     1.008   33.468946  -42.905662    0.606974
  66 H     1.0000    0     1.008   26.422648  -29.637642    1.918307
  67 H     1.0000    0     1.008   27.850436  -31.018931    4.642314
  68 H     1.0000    0     1.008   29.591725  -28.864341    2.728825
  69 H     1.0000    0     1.008   29.068573  -43.829672   -4.013059
  70 H     1.0000    0     1.008   27.368866  -43.710983   -1.111810
  71 H     1.0000    0     1.008   25.981270  -42.493778   -3.934846
  72 H     1.0000    0     1.008   27.755056  -34.471201   -8.656358
  73 H     1.0000    0     1.008   30.929193  -34.690518   -7.539974
  74 H     1.0000    0     1.008   28.466748  -36.271804   -5.890557
  75 H     1.0000    0     1.008   36.402775  -36.483681    4.074707
  76 H     1.0000    0     1.008   14.776803  -34.722257   -0.922200
  77 H     1.0000    0     1.008   14.981308  -36.570111   -4.904405
  78 H     1.0000    0     1.008   26.752815  -42.524247    7.937718
  79 H     1.0000    0     1.008   27.120776  -35.892631   10.072176
  80 H     1.0000    0     1.008   30.379229  -35.807814    9.220381
  81 H     1.0000    0     1.008   28.015911  -34.992385    6.953245

--------------------------------
INTERNAL COORDINATES (ANGSTROEM)
--------------------------------
 C      0   0   0     0.000000000000     0.00000000     0.00000000
 C      1   0   0     1.399592309530     0.00000000     0.00000000
 C      2   1   0     1.396491343192   119.29261215     0.00000000
 C      3   2   1     1.393672343261   120.17206929   358.30733525
 C      4   3   2     1.390052857207   120.31862584     1.02159144
 C      1   2   3     1.389652544582   120.15293987     2.19693935
 C      5   4   3     1.505703779459   120.55434619   173.92019740
 C      7   5   4     1.546191283467   112.08917461   254.15278801
 C      8   7   5     1.551801600400   111.34780075    62.91680157
 C      9   8   7     1.543767653761   113.22284523   218.40609008
 C     10   9   8     1.508630751039   113.46564547    64.76168385
 C     11  10   9     1.400199321757   120.10108113    70.59435059
 C     12  11  10     1.385625412030   120.87606362   180.77716309
 C     13  12  11     1.402976087690   119.92787077   359.56149498
 C     14  13  12     1.382383573339   119.54338517     0.58405482
 C     11  10   9     1.389347591950   121.38801792   251.39768878
 C      8   7   5     1.529944445582   108.49954002   191.40686003
 C      9   8   7     1.529052092128   115.11282420    88.90678972
 O      3   2   1     1.359010779265   115.82804175   177.18724128
 O      1   2   3     1.360107206531   116.02435510   182.79912759
 O      2   1   3     1.371515123530   122.59414498   174.97524065
 O     14  13  12     1.366029517250   120.67322623   180.62391077
 O     13  12  11     1.367832804150   125.45580997   179.72514605
 C     21   2   1     1.441496964533   120.27503933    59.32519227
 C     24  21   2     1.535592589919   111.17265311    84.79420725
 C     25  24  21     1.508610960313   113.31266065   302.29231963
 C     24  21   2     1.518941238699   103.82369751   206.16771406
 O     27  24  21     1.424368836309   111.31103154    58.92871907
 C     26  25  24     1.400302024986   120.55453925   307.03915517
 C     29  26  25     1.383466726545   120.33692408   177.52597118
 C     30  29  26     1.404907789947   119.98237373     0.55533894
 C     31  30  29     1.382375997403   119.78639340     0.65588192
 C     26  25  24     1.386723203236   120.30703890   125.99787724
 C     20   1   2     1.424255766079   118.63444790   184.04861978
 C     19   3   2     1.423010317273   118.10069573   176.39507283
 C     23  13  12     1.428390653920   118.09339189     9.44058387
 O     25  24  21     1.439380643947   109.11129900   176.53141238
 O     17   8   7     1.426980878057   114.28751811   176.92508414
 O     18   9   8     1.443837367939   114.57112150    76.60905373
 O     30  29  26     1.364636728334   125.74887970   181.81740163
 O     31  30  29     1.363672758954   120.14058417   181.06144879
 C     40  30  29     1.426443757971   118.23043530     0.19912802
 H      4   3   2     1.079731892785   120.35283133   179.57299263
 H      6   1   2     1.079977600236   120.02228658   180.91020445
 H      7   5   4     1.094191143774   109.75681561   133.57651099
 H      7   5   4     1.093426240413   109.78747799    16.31869464
 H      8   7   5     1.092613920462   106.79003998   306.20409270
 H      9   8   7     1.093030221685   106.46650291   334.22702244
 H     10   9   8     1.090547691103   110.10584817   302.12779418
 H     10   9   8     1.095733991744   108.02148030   185.70500644
 H     12  11  10     1.081198995159   119.28521701     0.13608721
 H     15  14  13     1.083022419668   118.90192948   180.03161478
 H     16  11  10     1.083073078157   119.67554297   359.29752967
 H     17   8   7     1.097149307974   110.23609833   301.36048563
 H     17   8   7     1.092237609043   108.49517434    58.33923861
 H     18   9   8     1.092970189772   109.08532918   198.70844043
 H     18   9   8     1.090825554102   110.59144969   317.12743653
 H     22  14  13     0.968046428390   108.58353236     3.77264540
 H     24  21   2     1.089783275761   109.83103759   322.98266521
 H     25  24  21     1.091599094657   108.41934401    62.77688575
 H     27  24  21     1.088240747922   110.13062321   177.94350081
 H     27  24  21     1.097883172307   108.91074160   296.76658006
 H     28  27  24     0.969884399394   107.12672543   315.31526658
 H     29  26  25     1.080860429808   120.01089760   359.65823344
 H     32  31  30     1.082690451936   119.03566597   179.87727866
 H     33  26  25     1.082553830418   119.64582981     0.52669199
 H     34  20   1     1.091184449248   111.24906790   297.45785620
 H     34  20   1     1.092318848375   111.04271912    59.80191028
 H     34  20   1     1.087165767205   105.74071432   178.68647337
 H     35  19   3     1.087594060000   105.86649348   182.02465741
 H     35  19   3     1.092478927127   111.09260034   300.82568770
 H     35  19   3     1.092956462724   111.29412357    63.14210458
 H     36  23  13     1.092335504361   110.41595844    57.32067997
 H     36  23  13     1.086843036327   105.94756692   176.30990010
 H     36  23  13     1.089983376897   111.07461877   295.13288810
 H     37  25  24     0.966532693313   108.48132850    72.73055126
 H     38  17   8     0.973895362921   105.27767768    73.74467391
 H     39  18   9     0.965001919284   108.38504450    81.73242562
 H     41  31  30     0.969366454271   108.37207536   359.69063816
 H     42  40  30     1.086996950638   106.00779258   179.67465669
 H     42  40  30     1.092593416390   110.84103465   298.72480514
 H     42  40  30     1.091284022256   110.65947535    60.69794760

---------------------------
INTERNAL COORDINATES (A.U.)
---------------------------
 C      0   0   0     0.000000000000     0.00000000     0.00000000
 C      1   0   0     2.644846164154     0.00000000     0.00000000
 C      2   1   0     2.638986187025   119.29261215     0.00000000
 C      3   2   1     2.633659049184   120.17206929   358.30733525
 C      4   3   2     2.626819211795   120.31862584     1.02159144
 C      1   2   3     2.626062730566   120.15293987     2.19693935
 C      5   4   3     2.845367781987   120.55434619   173.92019740
 C      7   5   4     2.921878076409   112.08917461   254.15278801
 C      8   7   5     2.932480038936   111.34780075    62.91680157
 C      9   8   7     2.917298080014   113.22284523   218.40609008
 C     10   9   8     2.850898956676   113.46564547    64.76168385
 C     11  10   9     2.645993251024   120.10108113    70.59435059
 C     12  11  10     2.618452552939   120.87606362   180.77716309
 C     13  12  11     2.651240578174   119.92787077   359.56149498
 C     14  13  12     2.612326365641   119.54338517     0.58405482
 C     11  10   9     2.625486453608   121.38801792   251.39768878
 C      8   7   5     2.891176002264   108.49954002   191.40686003
 C      9   8   7     2.889489698622   115.11282420    88.90678972
 O      3   2   1     2.568158185859   115.82804175   177.18724128
 O      1   2   3     2.570230133117   116.02435510   182.79912759
 O      2   1   3     2.591787972004   122.59414498   174.97524065
 O     14  13  12     2.581421678456   120.67322623   180.62391077
 O     13  12  11     2.584829396837   125.45580997   179.72514605
 C     21   2   1     2.724034485847   120.27503933    59.32519227
 C     24  21   2     2.901849448226   111.17265311    84.79420725
 C     25  24  21     2.850861557624   113.31266065   302.29231963
 C     24  21   2     2.870382954661   103.82369751   206.16771406
 O     27  24  21     2.691667014316   111.31103154    58.92871907
 C     26  25  24     2.646187331999   120.55453925   307.03915517
 C     29  26  25     2.614373228563   120.33692408   177.52597118
 C     30  29  26     2.654890966413   119.98237373     0.55533894
 C     31  30  29     2.612312049197   119.78639340     0.65588192
 C     26  25  24     2.620527077671   120.30703890   125.99787724
 C     20   1   2     2.691453342548   118.63444790   184.04861978
 C     19   3   2     2.689099785390   118.10069573   176.39507283
 C     23  13  12     2.699267148161   118.09339189     9.44058387
 O     25  24  21     2.720035219526   109.11129900   176.53141238
 O     17   8   7     2.696603057870   114.28751811   176.92508414
 O     18   9   8     2.728457207326   114.57112150    76.60905373
 O     30  29  26     2.578789688842   125.74887970   181.81740163
 O     31  30  29     2.576968050711   120.14058417   181.06144879
 C     40  30  29     2.695588048007   118.23043530     0.19912802
 H      4   3   2     2.040397575424   120.35283133   179.57299263
 H      6   1   2     2.040861895216   120.02228658   180.91020445
 H      7   5   4     2.067721599896   109.75681561   133.57651099
 H      7   5   4     2.066276142025   109.78747799    16.31869464
 H      8   7   5     2.064741079783   106.79003998   306.20409270
 H      9   8   7     2.065527775083   106.46650291   334.22702244
 H     10   9   8     2.060836472166   110.10584817   302.12779418
 H     10   9   8     2.070637160025   108.02148030   185.70500644
 H     12  11  10     2.043169997122   119.28521701     0.13608721
 H     15  14  13     2.046615770069   118.90192948   180.03161478
 H     16  11  10     2.046711500739   119.67554297   359.29752967
 H     17   8   7     2.073311720092   110.23609833   301.36048563
 H     17   8   7     2.064029954261   108.49517434    58.33923861
 H     18   9   8     2.065414331209   109.08532918   198.70844043
 H     18   9   8     2.061361557137   110.59144969   317.12743653
 H     22  14  13     1.829342634577   108.58353236     3.77264540
 H     24  21   2     2.059391936517   109.83103759   322.98266521
 H     25  24  21     2.062823336939   108.41934401    62.77688575
 H     27  24  21     2.056476981347   110.13062321   177.94350081
 H     27  24  21     2.074698522701   108.91074160   296.76658006
 H     28  27  24     1.832815896418   107.12672543   315.31526658
 H     29  26  25     2.042530201329   120.01089760   359.65823344
 H     32  31  30     2.045988441970   119.03566597   179.87727866
 H     33  26  25     2.045730264718   119.64582981     0.52669199
 H     34  20   1     2.062039770672   111.24906790   297.45785620
 H     34  20   1     2.064183474349   111.04271912    59.80191028
 H     34  20   1     2.054445562192   105.74071432   178.68647337
 H     35  19   3     2.055254918279   105.86649348   182.02465741
 H     35  19   3     2.064485979351   111.09260034   300.82568770
 H     35  19   3     2.065388390847   111.29412357    63.14210458
 H     36  23  13     2.064214949601   110.41595844    57.32067997
 H     36  23  13     2.053835689218   105.94756692   176.30990010
 H     36  23  13     2.059770072862   111.07461877   295.13288810
 H     37  25  24     1.826482089843   108.48132850    72.73055126
 H     38  17   8     1.840395519016   105.27767768    73.74467391
 H     39  18   9     1.823589346156   108.38504450    81.73242562
 H     41  31  30     1.831837121982   108.37207536   359.69063816
 H     42  40  30     2.054126545113   106.00779258   179.67465669
 H     42  40  30     2.064702332703   110.84103465   298.72480514
 H     42  40  30     2.062227936388   110.65947535    60.69794760

---------------------
BASIS SET INFORMATION
---------------------
There are 3 groups of distinct atoms

 Group   1 Type C   : 11s7p2d1f contracted to 4s5p2d1f pattern {7211/31111/11/1}
 Group   2 Type O   : 11s7p2d1f contracted to 4s5p2d1f pattern {7211/31111/11/1}
 Group   3 Type H   : 6s3p1d contracted to 3s2p1d pattern {411/21/1}

Atom   0C    basis set group =>   1
Atom   1C    basis set group =>   1
Atom   2C    basis set group =>   1
Atom   3C    basis set group =>   1
Atom   4C    basis set group =>   1
Atom   5C    basis set group =>   1
Atom   6C    basis set group =>   1
Atom   7C    basis set group =>   1
Atom   8C    basis set group =>   1
Atom   9C    basis set group =>   1
Atom  10C    basis set group =>   1
Atom  11C    basis set group =>   1
Atom  12C    basis set group =>   1
Atom  13C    basis set group =>   1
Atom  14C    basis set group =>   1
Atom  15C    basis set group =>   1
Atom  16C    basis set group =>   1
Atom  17C    basis set group =>   1
Atom  18O    basis set group =>   2
Atom  19O    basis set group =>   2
Atom  20O    basis set group =>   2
Atom  21O    basis set group =>   2
Atom  22O    basis set group =>   2
Atom  23C    basis set group =>   1
Atom  24C    basis set group =>   1
Atom  25C    basis set group =>   1
Atom  26C    basis set group =>   1
Atom  27O    basis set group =>   2
Atom  28C    basis set group =>   1
Atom  29C    basis set group =>   1
Atom  30C    basis set group =>   1
Atom  31C    basis set group =>   1
Atom  32C    basis set group =>   1
Atom  33C    basis set group =>   1
Atom  34C    basis set group =>   1
Atom  35C    basis set group =>   1
Atom  36O    basis set group =>   2
Atom  37O    basis set group =>   2
Atom  38O    basis set group =>   2
Atom  39O    basis set group =>   2
Atom  40O    basis set group =>   2
Atom  41C    basis set group =>   1
Atom  42H    basis set group =>   3
Atom  43H    basis set group =>   3
Atom  44H    basis set group =>   3
Atom  45H    basis set group =>   3
Atom  46H    basis set group =>   3
Atom  47H    basis set group =>   3
Atom  48H    basis set group =>   3
Atom  49H    basis set group =>   3
Atom  50H    basis set group =>   3
Atom  51H    basis set group =>   3
Atom  52H    basis set group =>   3
Atom  53H    basis set group =>   3
Atom  54H    basis set group =>   3
Atom  55H    basis set group =>   3
Atom  56H    basis set group =>   3
Atom  57H    basis set group =>   3
Atom  58H    basis set group =>   3
Atom  59H    basis set group =>   3
Atom  60H    basis set group =>   3
Atom  61H    basis set group =>   3
Atom  62H    basis set group =>   3
Atom  63H    basis set group =>   3
Atom  64H    basis set group =>   3
Atom  65H    basis set group =>   3
Atom  66H    basis set group =>   3
Atom  67H    basis set group =>   3
Atom  68H    basis set group =>   3
Atom  69H    basis set group =>   3
Atom  70H    basis set group =>   3
Atom  71H    basis set group =>   3
Atom  72H    basis set group =>   3
Atom  73H    basis set group =>   3
Atom  74H    basis set group =>   3
Atom  75H    basis set group =>   3
Atom  76H    basis set group =>   3
Atom  77H    basis set group =>   3
Atom  78H    basis set group =>   3
Atom  79H    basis set group =>   3
Atom  80H    basis set group =>   3
Atom  81H    basis set group =>   3
---------------------------------
AUXILIARY/J BASIS SET INFORMATION
---------------------------------
There are 3 groups of distinct atoms

 Group   1 Type C   : 15s13p12d5f5g contracted to 15s13p12d5f5g pattern {111111111111111/1111111111111/111111111111/11111/11111}
 Group   2 Type O   : 15s13p12d5f5g contracted to 15s13p12d5f5g pattern {111111111111111/1111111111111/111111111111/11111/11111}
 Group   3 Type H   : 12s4p3d2f contracted to 12s4p3d2f pattern {111111111111/1111/111/11}

Atom   0C    basis set group =>   1
Atom   1C    basis set group =>   1
Atom   2C    basis set group =>   1
Atom   3C    basis set group =>   1
Atom   4C    basis set group =>   1
Atom   5C    basis set group =>   1
Atom   6C    basis set group =>   1
Atom   7C    basis set group =>   1
Atom   8C    basis set group =>   1
Atom   9C    basis set group =>   1
Atom  10C    basis set group =>   1
Atom  11C    basis set group =>   1
Atom  12C    basis set group =>   1
Atom  13C    basis set group =>   1
Atom  14C    basis set group =>   1
Atom  15C    basis set group =>   1
Atom  16C    basis set group =>   1
Atom  17C    basis set group =>   1
Atom  18O    basis set group =>   2
Atom  19O    basis set group =>   2
Atom  20O    basis set group =>   2
Atom  21O    basis set group =>   2
Atom  22O    basis set group =>   2
Atom  23C    basis set group =>   1
Atom  24C    basis set group =>   1
Atom  25C    basis set group =>   1
Atom  26C    basis set group =>   1
Atom  27O    basis set group =>   2
Atom  28C    basis set group =>   1
Atom  29C    basis set group =>   1
Atom  30C    basis set group =>   1
Atom  31C    basis set group =>   1
Atom  32C    basis set group =>   1
Atom  33C    basis set group =>   1
Atom  34C    basis set group =>   1
Atom  35C    basis set group =>   1
Atom  36O    basis set group =>   2
Atom  37O    basis set group =>   2
Atom  38O    basis set group =>   2
Atom  39O    basis set group =>   2
Atom  40O    basis set group =>   2
Atom  41C    basis set group =>   1
Atom  42H    basis set group =>   3
Atom  43H    basis set group =>   3
Atom  44H    basis set group =>   3
Atom  45H    basis set group =>   3
Atom  46H    basis set group =>   3
Atom  47H    basis set group =>   3
Atom  48H    basis set group =>   3
Atom  49H    basis set group =>   3
Atom  50H    basis set group =>   3
Atom  51H    basis set group =>   3
Atom  52H    basis set group =>   3
Atom  53H    basis set group =>   3
Atom  54H    basis set group =>   3
Atom  55H    basis set group =>   3
Atom  56H    basis set group =>   3
Atom  57H    basis set group =>   3
Atom  58H    basis set group =>   3
Atom  59H    basis set group =>   3
Atom  60H    basis set group =>   3
Atom  61H    basis set group =>   3
Atom  62H    basis set group =>   3
Atom  63H    basis set group =>   3
Atom  64H    basis set group =>   3
Atom  65H    basis set group =>   3
Atom  66H    basis set group =>   3
Atom  67H    basis set group =>   3
Atom  68H    basis set group =>   3
Atom  69H    basis set group =>   3
Atom  70H    basis set group =>   3
Atom  71H    basis set group =>   3
Atom  72H    basis set group =>   3
Atom  73H    basis set group =>   3
Atom  74H    basis set group =>   3
Atom  75H    basis set group =>   3
Atom  76H    basis set group =>   3
Atom  77H    basis set group =>   3
Atom  78H    basis set group =>   3
Atom  79H    basis set group =>   3
Atom  80H    basis set group =>   3
Atom  81H    basis set group =>   3
---------------------------------
AUXILIARY/C BASIS SET INFORMATION
---------------------------------
There are 3 groups of distinct atoms

 Group   1 Type C   : 15s13p12d5f5g contracted to 15s13p12d5f5g pattern {111111111111111/1111111111111/111111111111/11111/11111}
 Group   2 Type O   : 15s13p12d5f5g contracted to 15s13p12d5f5g pattern {111111111111111/1111111111111/111111111111/11111/11111}
 Group   3 Type H   : 12s4p3d2f contracted to 12s4p3d2f pattern {111111111111/1111/111/11}

Atom   0C    basis set group =>   1
Atom   1C    basis set group =>   1
Atom   2C    basis set group =>   1
Atom   3C    basis set group =>   1
Atom   4C    basis set group =>   1
Atom   5C    basis set group =>   1
Atom   6C    basis set group =>   1
Atom   7C    basis set group =>   1
Atom   8C    basis set group =>   1
Atom   9C    basis set group =>   1
Atom  10C    basis set group =>   1
Atom  11C    basis set group =>   1
Atom  12C    basis set group =>   1
Atom  13C    basis set group =>   1
Atom  14C    basis set group =>   1
Atom  15C    basis set group =>   1
Atom  16C    basis set group =>   1
Atom  17C    basis set group =>   1
Atom  18O    basis set group =>   2
Atom  19O    basis set group =>   2
Atom  20O    basis set group =>   2
Atom  21O    basis set group =>   2
Atom  22O    basis set group =>   2
Atom  23C    basis set group =>   1
Atom  24C    basis set group =>   1
Atom  25C    basis set group =>   1
Atom  26C    basis set group =>   1
Atom  27O    basis set group =>   2
Atom  28C    basis set group =>   1
Atom  29C    basis set group =>   1
Atom  30C    basis set group =>   1
Atom  31C    basis set group =>   1
Atom  32C    basis set group =>   1
Atom  33C    basis set group =>   1
Atom  34C    basis set group =>   1
Atom  35C    basis set group =>   1
Atom  36O    basis set group =>   2
Atom  37O    basis set group =>   2
Atom  38O    basis set group =>   2
Atom  39O    basis set group =>   2
Atom  40O    basis set group =>   2
Atom  41C    basis set group =>   1
Atom  42H    basis set group =>   3
Atom  43H    basis set group =>   3
Atom  44H    basis set group =>   3
Atom  45H    basis set group =>   3
Atom  46H    basis set group =>   3
Atom  47H    basis set group =>   3
Atom  48H    basis set group =>   3
Atom  49H    basis set group =>   3
Atom  50H    basis set group =>   3
Atom  51H    basis set group =>   3
Atom  52H    basis set group =>   3
Atom  53H    basis set group =>   3
Atom  54H    basis set group =>   3
Atom  55H    basis set group =>   3
Atom  56H    basis set group =>   3
Atom  57H    basis set group =>   3
Atom  58H    basis set group =>   3
Atom  59H    basis set group =>   3
Atom  60H    basis set group =>   3
Atom  61H    basis set group =>   3
Atom  62H    basis set group =>   3
Atom  63H    basis set group =>   3
Atom  64H    basis set group =>   3
Atom  65H    basis set group =>   3
Atom  66H    basis set group =>   3
Atom  67H    basis set group =>   3
Atom  68H    basis set group =>   3
Atom  69H    basis set group =>   3
Atom  70H    basis set group =>   3
Atom  71H    basis set group =>   3
Atom  72H    basis set group =>   3
Atom  73H    basis set group =>   3
Atom  74H    basis set group =>   3
Atom  75H    basis set group =>   3
Atom  76H    basis set group =>   3
Atom  77H    basis set group =>   3
Atom  78H    basis set group =>   3
Atom  79H    basis set group =>   3
Atom  80H    basis set group =>   3
Atom  81H    basis set group =>   3
----------------------------------
AUXILIARY/JK BASIS SET INFORMATION
----------------------------------
There are 3 groups of distinct atoms

 Group   1 Type C   : 15s13p12d5f5g contracted to 15s13p12d5f5g pattern {111111111111111/1111111111111/111111111111/11111/11111}
 Group   2 Type O   : 15s13p12d5f5g contracted to 15s13p12d5f5g pattern {111111111111111/1111111111111/111111111111/11111/11111}
 Group   3 Type H   : 12s4p3d2f contracted to 12s4p3d2f pattern {111111111111/1111/111/11}

Atom   0C    basis set group =>   1
Atom   1C    basis set group =>   1
Atom   2C    basis set group =>   1
Atom   3C    basis set group =>   1
Atom   4C    basis set group =>   1
Atom   5C    basis set group =>   1
Atom   6C    basis set group =>   1
Atom   7C    basis set group =>   1
Atom   8C    basis set group =>   1
Atom   9C    basis set group =>   1
Atom  10C    basis set group =>   1
Atom  11C    basis set group =>   1
Atom  12C    basis set group =>   1
Atom  13C    basis set group =>   1
Atom  14C    basis set group =>   1
Atom  15C    basis set group =>   1
Atom  16C    basis set group =>   1
Atom  17C    basis set group =>   1
Atom  18O    basis set group =>   2
Atom  19O    basis set group =>   2
Atom  20O    basis set group =>   2
Atom  21O    basis set group =>   2
Atom  22O    basis set group =>   2
Atom  23C    basis set group =>   1
Atom  24C    basis set group =>   1
Atom  25C    basis set group =>   1
Atom  26C    basis set group =>   1
Atom  27O    basis set group =>   2
Atom  28C    basis set group =>   1
Atom  29C    basis set group =>   1
Atom  30C    basis set group =>   1
Atom  31C    basis set group =>   1
Atom  32C    basis set group =>   1
Atom  33C    basis set group =>   1
Atom  34C    basis set group =>   1
Atom  35C    basis set group =>   1
Atom  36O    basis set group =>   2
Atom  37O    basis set group =>   2
Atom  38O    basis set group =>   2
Atom  39O    basis set group =>   2
Atom  40O    basis set group =>   2
Atom  41C    basis set group =>   1
Atom  42H    basis set group =>   3
Atom  43H    basis set group =>   3
Atom  44H    basis set group =>   3
Atom  45H    basis set group =>   3
Atom  46H    basis set group =>   3
Atom  47H    basis set group =>   3
Atom  48H    basis set group =>   3
Atom  49H    basis set group =>   3
Atom  50H    basis set group =>   3
Atom  51H    basis set group =>   3
Atom  52H    basis set group =>   3
Atom  53H    basis set group =>   3
Atom  54H    basis set group =>   3
Atom  55H    basis set group =>   3
Atom  56H    basis set group =>   3
Atom  57H    basis set group =>   3
Atom  58H    basis set group =>   3
Atom  59H    basis set group =>   3
Atom  60H    basis set group =>   3
Atom  61H    basis set group =>   3
Atom  62H    basis set group =>   3
Atom  63H    basis set group =>   3
Atom  64H    basis set group =>   3
Atom  65H    basis set group =>   3
Atom  66H    basis set group =>   3
Atom  67H    basis set group =>   3
Atom  68H    basis set group =>   3
Atom  69H    basis set group =>   3
Atom  70H    basis set group =>   3
Atom  71H    basis set group =>   3
Atom  72H    basis set group =>   3
Atom  73H    basis set group =>   3
Atom  74H    basis set group =>   3
Atom  75H    basis set group =>   3
Atom  76H    basis set group =>   3
Atom  77H    basis set group =>   3
Atom  78H    basis set group =>   3
Atom  79H    basis set group =>   3
Atom  80H    basis set group =>   3
Atom  81H    basis set group =>   3
---------------------------------
AUXILIARY/X BASIS SET INFORMATION
---------------------------------
There are 3 groups of distinct atoms

 Group   1 Type C   : 15s13p12d5f5g contracted to 15s13p12d5f5g pattern {111111111111111/1111111111111/111111111111/11111/11111}
 Group   2 Type O   : 15s13p12d5f5g contracted to 15s13p12d5f5g pattern {111111111111111/1111111111111/111111111111/11111/11111}
 Group   3 Type H   : 12s4p3d2f contracted to 12s4p3d2f pattern {111111111111/1111/111/11}

Atom   0C    basis set group =>   1
Atom   1C    basis set group =>   1
Atom   2C    basis set group =>   1
Atom   3C    basis set group =>   1
Atom   4C    basis set group =>   1
Atom   5C    basis set group =>   1
Atom   6C    basis set group =>   1
Atom   7C    basis set group =>   1
Atom   8C    basis set group =>   1
Atom   9C    basis set group =>   1
Atom  10C    basis set group =>   1
Atom  11C    basis set group =>   1
Atom  12C    basis set group =>   1
Atom  13C    basis set group =>   1
Atom  14C    basis set group =>   1
Atom  15C    basis set group =>   1
Atom  16C    basis set group =>   1
Atom  17C    basis set group =>   1
Atom  18O    basis set group =>   2
Atom  19O    basis set group =>   2
Atom  20O    basis set group =>   2
Atom  21O    basis set group =>   2
Atom  22O    basis set group =>   2
Atom  23C    basis set group =>   1
Atom  24C    basis set group =>   1
Atom  25C    basis set group =>   1
Atom  26C    basis set group =>   1
Atom  27O    basis set group =>   2
Atom  28C    basis set group =>   1
Atom  29C    basis set group =>   1
Atom  30C    basis set group =>   1
Atom  31C    basis set group =>   1
Atom  32C    basis set group =>   1
Atom  33C    basis set group =>   1
Atom  34C    basis set group =>   1
Atom  35C    basis set group =>   1
Atom  36O    basis set group =>   2
Atom  37O    basis set group =>   2
Atom  38O    basis set group =>   2
Atom  39O    basis set group =>   2
Atom  40O    basis set group =>   2
Atom  41C    basis set group =>   1
Atom  42H    basis set group =>   3
Atom  43H    basis set group =>   3
Atom  44H    basis set group =>   3
Atom  45H    basis set group =>   3
Atom  46H    basis set group =>   3
Atom  47H    basis set group =>   3
Atom  48H    basis set group =>   3
Atom  49H    basis set group =>   3
Atom  50H    basis set group =>   3
Atom  51H    basis set group =>   3
Atom  52H    basis set group =>   3
Atom  53H    basis set group =>   3
Atom  54H    basis set group =>   3
Atom  55H    basis set group =>   3
Atom  56H    basis set group =>   3
Atom  57H    basis set group =>   3
Atom  58H    basis set group =>   3
Atom  59H    basis set group =>   3
Atom  60H    basis set group =>   3
Atom  61H    basis set group =>   3
Atom  62H    basis set group =>   3
Atom  63H    basis set group =>   3
Atom  64H    basis set group =>   3
Atom  65H    basis set group =>   3
Atom  66H    basis set group =>   3
Atom  67H    basis set group =>   3
Atom  68H    basis set group =>   3
Atom  69H    basis set group =>   3
Atom  70H    basis set group =>   3
Atom  71H    basis set group =>   3
Atom  72H    basis set group =>   3
Atom  73H    basis set group =>   3
Atom  74H    basis set group =>   3
Atom  75H    basis set group =>   3
Atom  76H    basis set group =>   3
Atom  77H    basis set group =>   3
Atom  78H    basis set group =>   3
Atom  79H    basis set group =>   3
Atom  80H    basis set group =>   3
Atom  81H    basis set group =>   3
--------------------------------------------------------------------------
WARNING: There is at least one non-excluded one OpenFabrics device found,
but there are no active ports detected (or Open MPI was unable to use
them).  This is most certainly not what you wanted.  Check your
cables, subnet manager configuration, etc.  The openib BTL will be
ignored for this job.

  Local host: c09b01n02
--------------------------------------------------------------------------
--------------------------------------------------------------------------
WARNING: There was an error initializing an OpenFabrics device.

  Local host:   c09b01n02
  Local device: mlx5_0
--------------------------------------------------------------------------
[c09b01n02:2409087] 9 more processes have sent help message help-mpi-btl-openib.txt / no active ports found
[c09b01n02:2409087] Set MCA parameter "orte_base_help_aggregate" to 0 to see all help / error messages
[c09b01n02:2409087] 49 more processes have sent help message help-mpi-btl-openib.txt / error in device init


           ************************************************************
           *        Program running with 60 parallel MPI-processes    *
           *              working on a common directory               *
           ************************************************************
------------------------------------------------------------------------------
                             ORCA STARTUP CALCULATIONS
                           -- RI-GTO INTEGRALS CHOSEN --
------------------------------------------------------------------------------
------------------------------------------------------------------------------
                   ___                                                        
                  /   \      - P O W E R E D   B Y -                         
                 /     \                                                     
                 |  |  |   _    _      __       _____    __    __             
                 |  |  |  | |  | |    /  \     |  _  \  |  |  /  |          
                  \  \/   | |  | |   /    \    | | | |  |  | /  /          
                 / \  \   | |__| |  /  /\  \   | |_| |  |  |/  /          
                |  |  |   |  __  | /  /__\  \  |    /   |      \           
                |  |  |   | |  | | |   __   |  |    \   |  |\   \          
                \     /   | |  | | |  |  |  |  | |\  \  |  | \   \       
                 \___/    |_|  |_| |__|  |__|  |_| \__\ |__|  \__/        
                                                                              
                      - O R C A' S   B I G   F R I E N D -                    
                                      &                                       
                       - I N T E G R A L  F E E D E R -                       
                                                                              
 v1 FN, 2020, v2 2021, v3 2022-2024                                           
------------------------------------------------------------------------------


----------------------
SHARK INTEGRAL PACKAGE
----------------------

Number of atoms                             ...     82
Number of basis functions                   ...   2072
Number of shells                            ...    744
Maximum angular momentum                    ...      3
Integral batch strategy                     ... SHARK/LIBINT Hybrid
RI-J (if used) integral strategy            ... SPLIT-RIJ (Revised 2003 algorithm where possible)
Printlevel                                  ...      1
Contraction scheme used                     ... SEGMENTED contraction
Prescreening option                         ... SCHWARTZ
   Thresh                                   ... 1.000e-10
   Tcut                                     ... 1.000e-11
   Tpresel                                  ... 1.000e-11 
Coulomb Range Separation                    ... NOT USED
Exchange Range Separation                   ... NOT USED
Multipole approximations                    ... NOT USED
Finite Nucleus Model                        ... NOT USED
CABS basis                                  ... NOT available
Auxiliary Coulomb fitting basis             ... AVAILABLE
   # of basis functions in Aux-J            ...  10268
   # of shells in Aux-J                     ...   2940
   Maximum angular momentum in Aux-J        ...      4
Auxiliary J/K fitting basis                 ... AVAILABLE
   # of basis functions in Aux-JK           ...  10268
   # of shells in Aux-JK                    ...   2940
   Maximum angular momentum in Aux-JK       ...      4
Auxiliary Correlation fitting basis         ... AVAILABLE
   # of basis functions in Aux-C            ...  10268
   # of shells in Aux-C                     ...   2940
   Maximum angular momentum in Aux-C        ...      4
Auxiliary 'external' fitting basis          ... NOT available

Checking pre-screening integrals            ... done (  0.0 sec) Dimension = 744
   => SHARK Basis and OBASIS are compatible. Storing Pre-screening
Shell pair information
Shell pair cut-off parameter TPreSel        ...   1.0e-11
Total number of shell pairs                 ...    277140
Shell pairs after pre-screening             ...    153454
Total number of primitive shell pairs       ...    823733
Primitive shell pairs kept                  ...    281391
          la=0 lb=0:  29220 shell pairs
          la=1 lb=0:  50991 shell pairs
          la=1 lb=1:  20779 shell pairs
          la=2 lb=0:  20120 shell pairs
          la=2 lb=1:  15202 shell pairs
          la=2 lb=2:   2720 shell pairs
          la=3 lb=0:   6955 shell pairs
          la=3 lb=1:   5225 shell pairs
          la=3 lb=2:   1876 shell pairs
          la=3 lb=3:    366 shell pairs

Checking whether 4 symmetric matrices of dimension 2072 fit in memory
:Max Core in MB      =   5000.00
 MB in use           =    189.40
 MB left             =   4810.60
 MB needed           =     65.54
 Data fit in memory  = YES
Calculating RI/J V-Matrix + Cholesky decomp.... done ( 10.0 sec)
Calculating RI/JK V-Matrix + Cholesky decomp.... done (  4.1 sec)
Calculating RI/C V-Matrix + Cholesky decomp.... done (  4.1 sec)
Calculating Nuclear repulsion               ... done (  0.0 sec) ENN=   5773.461527957501 Eh

Diagonalization of the overlap matrix:
Smallest eigenvalue                        ... 6.296e-06
Time for diagonalization                   ...    7.377 sec
Threshold for overlap eigenvalues          ... 1.000e-07
Number of eigenvalues below threshold      ... 0
Time for construction of square roots      ...    0.728 sec
Total time needed                          ...    8.152 sec

-------------------
DFT GRID GENERATION
-------------------

General Integration Accuracy     IntAcc      ... 4.388
Radial Grid Type                 RadialGrid  ... OptM3 with GC (2021)
Angular Grid (max. ang.)         AngularGrid ... 4 (Lebedev-302)
Angular grid pruning method      GridPruning ... 4 (adaptive)
Weight generation scheme         WeightScheme... mBecke (2022)
Basis function cutoff            BFCut       ... 1.0000e-10
Integration weight cutoff        WCut        ... 1.0000e-14
Partially contracted basis set               ... off
Rotationally invariant grid construction     ... off
Angular grids for H and He will be reduced by one unit
Diffuse basis detected: some atoms will have their outermost
                        angular grid increased by 1.

Total number of grid points                  ...   376716
Total number of batches                      ...     5926
Average number of points per batch           ...       63
Average number of grid points per atom       ...     4594
Grids setup in   3.2 sec
Initializing property integral containers    ... done (  0.1 sec)

SHARK setup successfully completed in  48.3 seconds

Maximum memory used throughout the entire STARTUP-calculation: 261.5 MB
--------------------------------------------------------------------------
WARNING: There was an error initializing an OpenFabrics device.

  Local host:   c09b01n02
  Local device: mlx5_0
--------------------------------------------------------------------------
--------------------------------------------------------------------------
WARNING: There is at least one non-excluded one OpenFabrics device found,
but there are no active ports detected (or Open MPI was unable to use
them).  This is most certainly not what you wanted.  Check your
cables, subnet manager configuration, etc.  The openib BTL will be
ignored for this job.

  Local host: c09b01n02
--------------------------------------------------------------------------


           ************************************************************
           *        Program running with 60 parallel MPI-processes    *
           *              working on a common directory               *
           ************************************************************
-------------------------------------------------------------------------------
                                 ORCA GUESS
                   Start orbitals & Density for SCF / CASSCF
-------------------------------------------------------------------------------

------------
SCF SETTINGS
------------
Hamiltonian:
 Density Functional     Method          .... DFT(GTOs)
 Exchange Functional    Exchange        .... TPSS
 Correlation Functional Correlation     .... TPSS
 LDA part of GGA corr.  LDAOpt          .... PW91-LDA
 Gradients option       PostSCFGGA      .... off
   NL short-range parameter             ....  5.000000
 RI-approximation to the Coulomb term is turned on
   Number of AuxJ basis functions       .... 10268


General Settings:
 Integral files         IntName         .... nmr-conf-7
 Hartree-Fock type      HFTyp           .... RHF
 Total Charge           Charge          ....    0
 Multiplicity           Mult            ....    1
 Number of Electrons    NEL             ....  314
 Basis Dimension        Dim             .... 2072
 Nuclear Repulsion      ENuc            ....   5773.4615279575 Eh

Convergence Acceleration:
 AO-DIIS                CNVDIIS         .... on
   Start iteration      DIISMaxIt       ....    12
   Startup error        DIISStart       ....  0.200000
   # of expansion vecs  DIISMaxEq       ....     5
   Bias factor          DIISBfac        ....   1.050
   Max. coefficient     DIISMaxC        ....  10.000
 MO-DIIS                CNVKDIIS        .... off
 Trust-Rad. Augm. Hess. CNVTRAH         .... auto
   Auto Start mean grad. ratio tolernc. ....  1.125000
   Auto Start start iteration           ....    50
   Auto Start num. interpolation iter.  ....    10
   Max. Number of Micro iterations      ....    24
   Max. Number of Macro iterations      .... Maxiter - #DIIS iter
   Number of Davidson start vectors     ....     2
   Converg. threshold    (grad. norm)   ....   5.000e-05
   Grad. Scal. Fac. for Micro threshold ....   0.100
   Minimum threshold for Micro iter.    ....   1.000e-02
   NR start threshold (gradient norm)   ....   1.000e-04
   Initial trust radius                 ....   0.400
   Minimum AH scaling param. (alpha)    ....   1.000
   Maximum AH scaling param. (alpha)    .... 1000.000
   Quad. conv. algorithm                .... NR
   White noise on init. David. guess    .... on
   Maximum white noise                  ....   0.010
   Pseudo random numbers                .... off
   Inactive MOs                         .... canonical
   Orbital update algorithm             .... Taylor
   Preconditioner                       .... Diag
   Full preconditioner red. dimension   ....   250
 SOSCF                 CNVSOSCF           .... on
   Start iteration     SOSCFMaxIt         ....   150
   Startup grad/error  SOSCFStart         ....  0.003300
   Hessian update      SOSCFHessUp        .... L-BFGS
   Autom. constraints  SOSCFAutoConstrain .... off
 Level Shifting         CNVShift        .... on
   Level shift para.    LevelShift      ....    0.2500
   Turn off err/grad.   ShiftErr        ....    0.0010
 Zerner damping         CNVZerner       .... off
 Static damping         CNVDamp         .... on
   Fraction old density DampFac         ....    0.7000
   Max. Damping (<1)    DampMax         ....    0.9800
   Min. Damping (>=0)   DampMin         ....    0.0000
   Turn off err/grad.   DampErr         ....    0.1000

SCF Procedure:
 Maximum # iterations   MaxIter         ....   125
 SCF integral mode      SCFMode         .... Direct
   Integral package                     .... SHARK and LIBINT hybrid scheme
 Reset frequency        DirectResetFreq ....    20
 Integral Threshold     Thresh          ....  1.000e-10 Eh
 Primitive CutOff       TCut            ....  1.000e-11 Eh

Convergence Tolerance:
 Convergence Check Mode ConvCheckMode   .... Total+1el-Energy
 Convergence forced     ConvForced      .... 0
 Energy Change          TolE            ....  1.000e-06 Eh
 1-El. energy change                    ....  1.000e-03 Eh
 Orbital Gradient       TolG            ....  5.000e-05
 Orbital Rotation angle TolX            ....  5.000e-05
 DIIS Error             TolErr          ....  1.000e-06

------------------------------
INITIAL GUESS: MODEL POTENTIAL
------------------------------
Loading Hartree-Fock densities                     ... done
Calculating cut-offs                               ... done
Initializing the effective Hamiltonian             ... done
Setting up the integral package (SHARK)            ... done
Starting the Coulomb interaction                   ... [c09b01n02:2409533] 47 more processes have sent help message help-mpi-btl-openib.txt / error in device init
[c09b01n02:2409533] Set MCA parameter "orte_base_help_aggregate" to 0 to see all help / error messages
[c09b01n02:2409533] 11 more processes have sent help message help-mpi-btl-openib.txt / no active ports found
done (   4.7 sec)
Making the grid                                    ... done (   0.6 sec)
Mapping shells                                     ... done
Starting the XC term evaluation                    ... done (   1.2 sec)
  promolecular density results
     # of electrons  =    313.980641009
     EX              =   -260.290953332
     EC              =    -10.639140973
     EX+EC           =   -270.930094304
Transforming the Hamiltonian                       ... done (   0.4 sec)
Diagonalizing the Hamiltonian                      ... done (   0.5 sec)
Back transforming the eigenvectors                 ... done (   1.1 sec)
Now organizing SCF variables                       ... done
                      ------------------
                      INITIAL GUESS DONE (   9.4 sec)
                      ------------------
             **** ENERGY FILE WAS UPDATED (nmr-conf-7.en.tmp) ****
Finished Guess after  14.0 sec
Maximum memory used throughout the entire GUESS-calculation: 296.7 MB
--------------------------------------------------------------------------
WARNING: There was an error initializing an OpenFabrics device.

  Local host:   c09b01n02
  Local device: mlx5_0
--------------------------------------------------------------------------
--------------------------------------------------------------------------
WARNING: There is at least one non-excluded one OpenFabrics device found,
but there are no active ports detected (or Open MPI was unable to use
them).  This is most certainly not what you wanted.  Check your
cables, subnet manager configuration, etc.  The openib BTL will be
ignored for this job.

  Local host: c09b01n02
--------------------------------------------------------------------------


           ************************************************************
           *        Program running with 60 parallel MPI-processes    *
           *              working on a common directory               *
           ************************************************************

-------------------------------------------------------------------------------------------
                                      ORCA LEAN-SCF
                              memory conserving SCF solver
-------------------------------------------------------------------------------------------

--------------------
CPCM SOLVATION MODEL
--------------------
CPCM parameters:
  Epsilon                                         ...      33.4280
  Refrac                                          ...       1.3288
  Rsolv                                           ...       1.3000
  Surface type                                    ... GAUSSIAN VDW
  Discretization scheme                           ... Constant charge density
    Threshold for H atoms                         ...       5.0000 (charges/Ang^2)
    Threshold for non-H atoms                     ...       5.0000 (charges/Ang^2)
  Epsilon function type                           ...         CPCM
Solvent:                                          ... METHANOL
Radii:
  Scheme                                          ... Element-dependent radii
  Radius for C  used is    3.8550 Bohr (=   2.0400 Ang.)
  Radius for O  used is    3.4469 Bohr (=   1.8240 Ang.)
  Radius for H  used is    2.4944 Bohr (=   1.3200 Ang.)
Calculating surface                               ...        [c09b01n02:2409948] 47 more processes have sent help message help-mpi-btl-openib.txt / error in device init
[c09b01n02:2409948] Set MCA parameter "orte_base_help_aggregate" to 0 to see all help / error messages
[c09b01n02:2409948] 11 more processes have sent help message help-mpi-btl-openib.txt / no active ports found
done! (  0.2s)
Cavity surface points                             ...         6134
Cavity Volume                                     ...    4496.1835
Cavity Surface-area                               ...    2031.3719
Calculating surface distance matrix               ...        done! (  0.2s)
Performing Cholesky decomposition & store         ...        done! (  0.7s)
Overall time for CPCM initialization              ...                 1.4s

----------------------------------------D-I-I-S--------------------------------------------
Iteration    Energy (Eh)           Delta-E    RMSDP     MaxDP     DIISErr   Damp  Time(sec)
-------------------------------------------------------------------------------------------
               ***  Starting incremental Fock matrix formation  ***
    1    -2033.0113990359641321     0.00e+00  8.14e-03  2.51e-01  2.31e-01  0.700  17.8
    2    -2033.4228211546696912    -4.11e-01  6.68e-03  1.87e-01  8.04e-02  0.700  19.0
                               ***Turning on AO-DIIS***
    3    -2033.5756887563957207    -1.53e-01  2.76e-03  6.59e-02  2.43e-02  0.700  17.9
    4    -2033.6682016145105081    -9.25e-02  4.78e-03  8.90e-02  1.12e-02  0.000   9.2
    5    -2033.8734085317637437    -2.05e-01  1.36e-03  4.13e-02  4.72e-03  0.000   8.2
                              *** Initializing SOSCF ***
---------------------------------------S-O-S-C-F--------------------------------------
Iteration    Energy (Eh)           Delta-E    RMSDP     MaxDP     MaxGrad    Time(sec)
--------------------------------------------------------------------------------------
    6    -2033.8747835942631355    -1.38e-03  4.29e-04  8.11e-03  1.42e-03     9.8
               *** Restarting incremental Fock matrix formation ***
    7    -2033.8748944994931662    -1.11e-04  3.37e-04  7.42e-03  1.46e-04     7.3
    8    -2033.8748674030866823     2.71e-05  8.50e-05  2.97e-03  7.17e-04     5.9
    9    -2033.8749109188820512    -4.35e-05  6.97e-05  1.46e-03  1.32e-04     5.9
   10    -2033.8749103244108483     5.94e-07  2.54e-05  8.60e-04  1.32e-04     5.9
                 **** Energy Check signals convergence ****

               *****************************************************
               *                     SUCCESS                       *
               *           SCF CONVERGED AFTER  10 CYCLES          *
               *****************************************************

             **** ENERGY FILE WAS UPDATED (nmr-conf-7.en.tmp) ****

----------------
TOTAL SCF ENERGY
----------------

Total Energy       :      -2033.87491139360827 Eh          -55344.55000 eV

Components:
Nuclear Repulsion  :       5773.46152795750095 Eh          157103.87518 eV
Electronic Energy  :      -7807.28657256553743 Eh         -212447.06824 eV
One Electron Energy:     -14274.84461910545906 Eh         -388438.26991 eV
Two Electron Energy:       6467.55804653992163 Eh          175991.20167 eV
CPCM Dielectric    :         -0.04986678557182 Eh              -1.35694 eV

Virial components:
Potential Energy   :      -4061.11537963465526 Eh         -110508.56763 eV
Kinetic Energy     :       2027.24046824104721 Eh           55164.01763 eV
Virial Ratio       :          2.00327264735314

DFT components:
N(Alpha)           :      157.000286130698 electrons
N(Beta)            :      157.000286130698 electrons
N(Total)           :      314.000572261396 electrons
E(X)               :     -268.083697762562 Eh       
E(C)               :      -10.604420899602 Eh       
E(XC)              :     -278.688118662164 Eh       

CPCM Solvation Model Properties:
Surface-charge          :         -0.04248166591894
Corrected charge        :         -0.00000000000000
Outlying charge corr.   :          0.00007819729407 Eh               0.00213 eV
Free-energy (cav+disp)  :  This term is not implemented in the current solvation scheme

---------------
SCF CONVERGENCE
---------------

  Last Energy change         ...   -5.9447e-07  Tolerance :   1.0000e-06
  Last MAX-Density change    ...    8.6014e-04  Tolerance :   1.0000e-05
  Last RMS-Density change    ...    2.5378e-05  Tolerance :   1.0000e-06
  Last DIIS Error            ...    1.4215e-03  Tolerance :   1.0000e-06
  Last Orbital Gradient      ...    1.3218e-04  Tolerance :   5.0000e-05
  Last Orbital Rotation      ...    2.5278e-04  Tolerance :   5.0000e-05


----------------
ORBITAL ENERGIES
----------------

  NO   OCC          E(Eh)            E(eV) 
   0   2.0000     -18.918541      -514.7997 
   1   2.0000     -18.918221      -514.7910 
   2   2.0000     -18.911652      -514.6122 
   3   2.0000     -18.909416      -514.5514 
   4   2.0000     -18.908317      -514.5215 
   5   2.0000     -18.907727      -514.5054 
   6   2.0000     -18.900905      -514.3198 
   7   2.0000     -18.890807      -514.0450 
   8   2.0000     -18.884748      -513.8801 
   9   2.0000     -18.875810      -513.6369 
  10   2.0000     -18.864663      -513.3336 
  11   2.0000     -10.045137      -273.3421 
  12   2.0000     -10.044689      -273.3299 
  13   2.0000     -10.042368      -273.2667 
  14   2.0000     -10.041893      -273.2538 
  15   2.0000     -10.040826      -273.2248 
  16   2.0000     -10.039974      -273.2016 
  17   2.0000     -10.039651      -273.1928 
  18   2.0000     -10.038080      -273.1500 
  19   2.0000     -10.035888      -273.0904 
  20   2.0000     -10.033952      -273.0377 
  21   2.0000     -10.030951      -272.9561 
  22   2.0000     -10.030855      -272.9535 
  23   2.0000     -10.030690      -272.9490 
  24   2.0000     -10.030685      -272.9488 
  25   2.0000     -10.027861      -272.8720 
  26   2.0000     -10.021116      -272.6884 
  27   2.0000      -9.988085      -271.7896 
  28   2.0000      -9.987613      -271.7768 
  29   2.0000      -9.987603      -271.7765 
  30   2.0000      -9.985467      -271.7184 
  31   2.0000      -9.984318      -271.6871 
  32   2.0000      -9.983596      -271.6675 
  33   2.0000      -9.982526      -271.6383 
  34   2.0000      -9.982362      -271.6339 
  35   2.0000      -9.982045      -271.6252 
  36   2.0000      -9.981778      -271.6180 
  37   2.0000      -9.981748      -271.6172 
  38   2.0000      -9.981195      -271.6021 
  39   2.0000      -9.977689      -271.5067 
  40   2.0000      -9.973744      -271.3994 
  41   2.0000      -9.972442      -271.3639 
  42   2.0000      -1.012554       -27.5530 
  43   2.0000      -1.009857       -27.4796 
  44   2.0000      -1.006475       -27.3876 
  45   2.0000      -0.995437       -27.0872 
  46   2.0000      -0.985116       -26.8064 
  47   2.0000      -0.982465       -26.7342 
  48   2.0000      -0.980245       -26.6738 
  49   2.0000      -0.961632       -26.1673 
  50   2.0000      -0.956669       -26.0323 
  51   2.0000      -0.946336       -25.7511 
  52   2.0000      -0.937521       -25.5112 
  53   2.0000      -0.796596       -21.6765 
  54   2.0000      -0.796074       -21.6623 
  55   2.0000      -0.791956       -21.5502 
  56   2.0000      -0.758119       -20.6295 
  57   2.0000      -0.732424       -19.9303 
  58   2.0000      -0.716601       -19.4997 
  59   2.0000      -0.702193       -19.1076 
  60   2.0000      -0.698644       -19.0111 
  61   2.0000      -0.696786       -18.9605 
  62   2.0000      -0.694860       -18.9081 
  63   2.0000      -0.685213       -18.6456 
  64   2.0000      -0.671093       -18.2614 
  65   2.0000      -0.651650       -17.7323 
  66   2.0000      -0.648273       -17.6404 
  67   2.0000      -0.647988       -17.6327 
  68   2.0000      -0.636957       -17.3325 
  69   2.0000      -0.621956       -16.9243 
  70   2.0000      -0.617533       -16.8039 
  71   2.0000      -0.609306       -16.5801 
  72   2.0000      -0.575481       -15.6596 
  73   2.0000      -0.568307       -15.4644 
  74   2.0000      -0.559377       -15.2214 
  75   2.0000      -0.558269       -15.1913 
  76   2.0000      -0.547138       -14.8884 
  77   2.0000      -0.542935       -14.7740 
  78   2.0000      -0.537217       -14.6184 
  79   2.0000      -0.531493       -14.4626 
  80   2.0000      -0.510385       -13.8883 
  81   2.0000      -0.509013       -13.8510 
  82   2.0000      -0.502433       -13.6719 
  83   2.0000      -0.499767       -13.5993 
  84   2.0000      -0.483642       -13.1606 
  85   2.0000      -0.475236       -12.9318 
  86   2.0000      -0.472963       -12.8700 
  87   2.0000      -0.470437       -12.8012 
  88   2.0000      -0.464346       -12.6355 
  89   2.0000      -0.458354       -12.4724 
  90   2.0000      -0.448938       -12.2162 
  91   2.0000      -0.446887       -12.1604 
  92   2.0000      -0.444914       -12.1067 
  93   2.0000      -0.443545       -12.0695 
  94   2.0000      -0.441159       -12.0045 
  95   2.0000      -0.435000       -11.8369 
  96   2.0000      -0.427878       -11.6432 
  97   2.0000      -0.422763       -11.5040 
  98   2.0000      -0.420968       -11.4551 
  99   2.0000      -0.418985       -11.4012 
 100   2.0000      -0.417682       -11.3657 
 101   2.0000      -0.409495       -11.1429 
 102   2.0000      -0.407784       -11.0964 
 103   2.0000      -0.403193       -10.9714 
 104   2.0000      -0.399446       -10.8695 
 105   2.0000      -0.395012       -10.7488 
 106   2.0000      -0.394281       -10.7289 
 107   2.0000      -0.393888       -10.7182 
 108   2.0000      -0.386395       -10.5144 
 109   2.0000      -0.383491       -10.4353 
 110   2.0000      -0.381326       -10.3764 
 111   2.0000      -0.380259       -10.3474 
 112   2.0000      -0.376606       -10.2480 
 113   2.0000      -0.374825       -10.1995 
 114   2.0000      -0.372046       -10.1239 
 115   2.0000      -0.368787       -10.0352 
 116   2.0000      -0.367302        -9.9948 
 117   2.0000      -0.364502        -9.9186 
[...]
  X           0.7270061    0.6792276    0.1005588
  Y          -0.6798845    0.6916217    0.2437550
  Z           0.0960165   -0.2455797    0.9646095

 --------------
 Nucleus  73H :
 --------------

Diamagnetic contribution to the shielding tensor (ppm) : 
            63.691         -7.545         6.644
            18.891         20.183        19.004
           -69.851         91.785       -32.515

Paramagnetic contribution to the shielding tensor (ppm): 
           -35.736          6.626        -8.224
           -21.015          5.664       -16.804
            65.975        -89.707        61.881

Total shielding tensor (ppm): 
            27.955         -0.918        -1.580
            -2.124         25.847         2.200
            -3.876          2.078        29.366


 Diagonalized sT*s matrix:
 
 sDSO           -16.276            7.136           60.499  iso=      17.120
 sPSO            41.081           18.720          -27.992  iso=      10.603
        ---------------  ---------------  ---------------
 Total           24.805           25.855           32.507  iso=      27.723

 Orientation: 
  X           0.1399703   -0.8002006   -0.5831701
  Y           0.9278194   -0.0996781    0.3594656
  Z          -0.3457738   -0.5913910    0.7284896

 --------------
 Nucleus  74H :
 --------------

Diamagnetic contribution to the shielding tensor (ppm) : 
            48.154         34.899         3.695
            12.984         72.163         9.513
           -72.211         78.856       -53.230

Paramagnetic contribution to the shielding tensor (ppm): 
           -23.785        -35.968        -2.286
           -11.923        -40.605       -12.093
            72.122        -79.582        82.170

Total shielding tensor (ppm): 
            24.369         -1.069         1.409
             1.061         31.558        -2.580
            -0.088         -0.726        28.940


 Diagonalized sT*s matrix:
 
 sDSO            53.613            4.099            9.376  iso=      22.362
 sPSO           -29.340           24.133           22.987  iso=       5.927
        ---------------  ---------------  ---------------
 Total           24.273           28.232           32.363  iso=      28.289

 Orientation: 
  X           0.9896142    0.1430368    0.0142920
  Y          -0.0524715    0.4520040   -0.8904713
  Z          -0.1338302    0.8804731    0.4548149

 --------------
 Nucleus  75H :
 --------------

Diamagnetic contribution to the shielding tensor (ppm) : 
            37.588       -101.604        79.553
             0.347        -54.384        72.346
            33.676        -51.328       -15.065

Paramagnetic contribution to the shielding tensor (ppm): 
            -7.991        102.345       -79.743
            -1.232         79.239       -66.227
           -32.363         59.032        51.457

Total shielding tensor (ppm): 
            29.597          0.741        -0.190
            -0.886         24.855         6.120
             1.313          7.703        36.392


 Diagonalized sT*s matrix:
 
 sDSO           -57.522           36.678          -11.017  iso=     -10.620
 sPSO            79.138           -7.095           50.662  iso=      40.902
        ---------------  ---------------  ---------------
 Total           21.616           29.583           39.645  iso=      30.281

 Orientation: 
  X           0.0170432    0.9984038    0.0538454
  Y           0.8997625   -0.0388007    0.4346515
  Z          -0.4360470   -0.0410402    0.8989876

 --------------
 Nucleus  76H :
 --------------

Diamagnetic contribution to the shielding tensor (ppm) : 
            50.641         63.923         1.881
             9.568         67.951         4.054
             1.557         57.327       110.194

Paramagnetic contribution to the shielding tensor (ppm): 
           -27.456        -64.796         3.279
           -10.489        -43.911         6.397
             3.343        -45.798       -76.729

Total shielding tensor (ppm): 
            23.186         -0.874         5.160
            -0.920         24.041        10.451
             4.901         11.530        33.465


 Diagonalized sT*s matrix:
 
 sDSO            75.035           22.619          131.133  iso=      76.262
 sPSO           -59.888            1.445          -89.652  iso=     -49.365
        ---------------  ---------------  ---------------
 Total           15.147           24.063           41.481  iso=      26.897

 Orientation: 
  X           0.4259977    0.8818179    0.2022948
  Y           0.7149369   -0.4651358    0.5220286
  Z          -0.5544287    0.0777549    0.8285910

 --------------
 Nucleus  77H :
 --------------

Diamagnetic contribution to the shielding tensor (ppm) : 
            59.646         71.617       -27.318
            13.209         70.190       -28.402
           -34.941         49.217        89.973

Paramagnetic contribution to the shielding tensor (ppm): 
           -30.993        -73.125        32.555
           -13.791        -46.913        22.130
            40.165        -55.212       -53.435

Total shielding tensor (ppm): 
            28.653         -1.508         5.237
            -0.582         23.277        -6.272
             5.224         -5.994        36.538


 Diagonalized sT*s matrix:
 
 sDSO            73.511           99.925           46.373  iso=      73.269
 sPSO           -52.772          -73.350           -5.219  iso=     -43.780
        ---------------  ---------------  ---------------
 Total           20.739           26.575           41.153  iso=      29.489

 Orientation: 
  X          -0.1355190    0.9124419    0.3861144
  Y           0.9079441    0.2703589   -0.3202242
  Z           0.3965754   -0.3071738    0.8650851

 --------------
 Nucleus  78H :
 --------------

Diamagnetic contribution to the shielding tensor (ppm) : 
           -38.983         -9.951       -39.003
           -45.542         31.692       -13.584
            93.507        -44.273        60.361

Paramagnetic contribution to the shielding tensor (ppm): 
            60.536          9.072        31.635
            46.131         -2.540        16.770
          -100.850         48.020       -33.846

Total shielding tensor (ppm): 
            21.553         -0.879        -7.368
             0.589         29.151         3.186
            -7.343          3.748        26.515


 Diagonalized sT*s matrix:
 
 sDSO            36.572            9.607            6.892  iso=      17.690
 sPSO           -20.587           17.904           26.832  iso=       8.050
        ---------------  ---------------  ---------------
 Total           15.986           27.511           33.724  iso=      25.740

 Orientation: 
  X          -0.7841693    0.4486088   -0.4287524
  Y           0.1581043    0.8125599    0.5610253
  Z          -0.6000679   -0.3721512    0.7081116

 --------------
 Nucleus  79H :
 --------------

Diamagnetic contribution to the shielding tensor (ppm) : 
            22.130        -10.184        -3.261
            -0.784         20.459        13.717
            93.333        -79.741        82.644

Paramagnetic contribution to the shielding tensor (ppm): 
             2.957          9.815         1.286
            -1.043          7.423       -10.466
           -96.359         82.302       -52.187

Total shielding tensor (ppm): 
            25.087         -0.370        -1.975
            -1.827         27.882         3.251
            -3.026          2.561        30.457


 Diagonalized sT*s matrix:
 
 sDSO            63.225           49.305           12.703  iso=      41.744
 sPSO           -39.121          -23.222           20.536  iso=     -13.936
        ---------------  ---------------  ---------------
 Total           24.104           26.083           33.239  iso=      27.809

 Orientation: 
  X           0.9237233    0.1970924   -0.3284660
  Y          -0.0102195    0.8698527    0.4932057
  Z           0.3829241   -0.4522288    0.8055174

 --------------
 Nucleus  80H :
 --------------

Diamagnetic contribution to the shielding tensor (ppm) : 
            36.792        -70.859        40.726
            11.331        -32.259        30.871
           116.330        -94.958        34.824

Paramagnetic contribution to the shielding tensor (ppm): 
            -9.952         73.223       -38.113
            -7.673         59.801       -29.211
          -113.457         98.568        -4.908

Total shielding tensor (ppm): 
            26.840          2.363         2.613
             3.658         27.542         1.659
             2.873          3.610        29.915


 Diagonalized sT*s matrix:
 
 sDSO            26.158          -17.924           31.123  iso=      13.119
 sPSO            -2.023           44.220            2.743  iso=      14.980
        ---------------  ---------------  ---------------
 Total           24.135           26.296           33.866  iso=      28.099

 Orientation: 
  X           0.7710350    0.3925424    0.5014135
  Y          -0.6324258    0.5640918    0.5308841
  Z          -0.0744487   -0.7264371    0.6831885

 --------------
 Nucleus  81H :
 --------------

Diamagnetic contribution to the shielding tensor (ppm) : 
            44.335        -21.348        29.099
            10.971         31.661        22.338
           101.566        -66.183       101.702

Paramagnetic contribution to the shielding tensor (ppm): 
           -19.937         19.253       -27.630
           -12.564         -1.370       -27.023
          -100.124         65.395       -71.428

Total shielding tensor (ppm): 
            24.399         -2.096         1.469
            -1.592         30.291        -4.685
             1.443         -0.788        30.274


 Diagonalized sT*s matrix:
 
 sDSO            27.412           39.415          110.871  iso=      59.233
 sPSO            -3.622          -11.847          -77.265  iso=     -30.911
        ---------------  ---------------  ---------------
 Total           23.790           27.568           33.606  iso=      28.321

 Orientation: 
  X           0.9686732   -0.0607718    0.2407885
  Y           0.2119111    0.7078207   -0.6738572
  Z          -0.1294835    0.7037732    0.6985251



--------------------------------
CHEMICAL SHIELDING SUMMARY (ppm)
--------------------------------


  Nucleus  Element    Isotropic     Anisotropy
  -------  -------  ------------   ------------
      0       C           25.420        125.026 
      1       C           45.654         98.191 
      2       C           26.825        128.189 
      3       C           75.549        130.792 
      4       C           42.372        195.223 
      5       C           77.719        142.053 
      6       C          141.510         29.072 
      7       C          135.557         26.483 
      8       C          135.406         14.990 
      9       C          140.830         20.945 
     10       C           44.444        184.898 
     11       C           69.363        155.281 
     12       C           30.078        121.568 
     13       C           32.838        123.699 
     14       C           67.954        141.187 
     15       C           57.371        148.129 
     16       C          108.835         67.494 
     17       C          111.949         66.564 
     23       C           95.641         48.806 
     24       C           98.318         35.339 
     25       C           46.268        179.098 
     26       C          110.501         60.277 
     28       C           73.400        165.130 
     29       C           31.919        120.563 
     30       C           30.285        126.789 
     31       C           68.642        143.642 
     32       C           56.043        153.911 
     33       C          125.400         76.109 
     34       C          124.522         75.314 
     35       C          124.163         74.333 
     41       C          124.294         75.932 
     42       H           26.104          8.733 
     43       H           26.166          7.379 
     44       H           29.464          5.808 
     45       H           30.073          5.146 
     46       H           29.915          4.947 
     47       H           30.136         11.306 
     48       H           29.157          5.752 
     49       H           29.143          7.346 
     50       H           25.834          8.289 
     51       H           24.815          4.183 
     52       H           24.954          6.205 
     53       H           27.806          4.242 
     54       H           28.010          5.335 
     55       H           27.621          7.069 
     56       H           27.519          4.872 
     57       H           25.857         13.160 
     58       H           26.296          4.635 
     59       H           27.469          2.799 
     60       H           27.303          5.772 
     61       H           27.643          7.124 
     62       H           28.363         20.099 
     63       H           25.214          7.925 
     64       H           24.848          2.907 
     65       H           24.818          4.944 
     66       H           28.384          6.338 
     67       H           28.176          8.406 
     68       H           27.643          8.326 
     69       H           27.876          9.487 
     70       H           28.539          6.175 
     71       H           28.135          9.059 
     72       H           28.428         10.096 
     73       H           27.723          7.177 
     74       H           28.289          6.111 
     75       H           30.281         14.045 
     76       H           26.897         21.876 
     77       H           29.489         17.496 
     78       H           25.740         11.976 
     79       H           27.809          8.146 
     80       H           28.099          8.651 
     81       H           28.321          7.927 


NMR shielding tensor and spin rotation calculation done in   2.5 sec 

Maximum memory used throughout the entire PROP-calculation: 370.4 MB
[c09b01n02:2412085] 47 more processes have sent help message help-mpi-btl-openib.txt / error in device init
[c09b01n02:2412085] Set MCA parameter "orte_base_help_aggregate" to 0 to see all help / error messages
[c09b01n02:2412085] 11 more processes have sent help message help-mpi-btl-openib.txt / no active ports found
--------------------------------------------------------------------------
WARNING: There was an error initializing an OpenFabrics device.

  Local host:   c09b01n02
  Local device: mlx5_0
--------------------------------------------------------------------------
--------------------------------------------------------------------------
WARNING: There is at least one non-excluded one OpenFabrics device found,
but there are no active ports detected (or Open MPI was unable to use
them).  This is most certainly not what you wanted.  Check your
cables, subnet manager configuration, etc.  The openib BTL will be
ignored for this job.

  Local host: c09b01n02
--------------------------------------------------------------------------
[c09b01n02:2412597] 51 more processes have sent help message help-mpi-btl-openib.txt / error in device init
[c09b01n02:2412597] Set MCA parameter "orte_base_help_aggregate" to 0 to see all help / error messages
[c09b01n02:2412597] 7 more processes have sent help message help-mpi-btl-openib.txt / no active ports found

--------------------------------
SUGGESTED CITATIONS FOR THIS RUN
--------------------------------

Below you find a list of papers that are relevant to this ORCA run
We neither can nor want to force you to cite these papers, but we appreciate if you do
You receive ORCA, which is the product of decades of hard work by many enthusiastic individuals, for free
The only thing we kindly ask in return is that you cite our papers,
We deeply appreciate it, if you show your appreciation for ORCA by not just citing the generic ORCA reference.

Please note that relegating all ORCA citations to the supporting information does *not* help us.
SI sections are not indexed - citations you put there will not count into any citation statistics
But we need these citations in order to attract the funding resources that allow us to do what we are doing

Therefore, if you are a happy ORCA user, please consider citing a few of the papers listed below in the main body of your paper

In addition to the list printed below, the program has created the file nmr-conf-7.bibtex that contains the list in bibtex format
You can import this file easily into all common literature databanks and citation aid programs


List of essential papers. We consider these as the minimum necessary citations

  1. Neese, F.
     Software update: the ORCA program system, version 6.0
     WIRES Comput. Molec. Sci. 2025 15(1), e70019
     doi.org/10.1002/wcms.7019

List of papers to cite with high priority. The work reported in these papers was absolutely
necessary for this run to complete.
Our perspective: the developers of density functionals and basis sets usually get cited in chemistry papers
Good! But without the algorithms to do something with them, the functionals or basis sets would not do anything.
Hence, in our opinion, the algorithm design and method developments papers are equally worthy of getting cited

  1. Neese, F.
     An improvement of the resolution of the identity approximation for the formation of the Coulomb matrix
     J. Comp. Chem. 2003 24(14), 1740-1747
     doi.org/10.1002/jcc.10318
  2. Stoychev, G.L.; Auer, A.A.; Neese, F.
     Automatic Generation of Auxiliary Basis Sets
     J. Theo. Comp. Chem. 2017 13 , 554-562
     doi.org/10.1021/acs.jctc.6b01041
  3. Stoychev, G.L.; Auer, A.A.; Izsak, R.; Neese, F.
     Self-Consistent Field Calculation of Nuclear Magnetic Resonance Chemical Shielding Constants Using Gauge-Including Atomic Orbitals and Approximate Two-Electron Integrals
     J. Chem. Theory Comput. 2018 14(2), 619-637
     doi.org/10.1021/acs.jctc.7b01006
  4. Garcia-Rates, M.; Neese, F.
     Effect of the Solute Cavity on the Solvation Energy and its Derivatives within the Framework of the Gaussian Charge Scheme
     J. Comput. Chem. 2020 41 , 922-939
     doi.org/10.1002/jcc.26139
  5. Neese, F.
     The SHARK Integral Generation and Digestion System
     J. Comp. Chem. 2022 44(3), 381
     doi.org/10.1002/jcc.26942

List of suggested additional citations. These are papers that are important in the 'surrounding' of 
of this run, or papers that preceded the highly important papers. If you like your results we are grateful for a citation.

  1. Neese, F.
     The ORCA program system
     WIRES Comput. Molec. Sci. 2012 2(1), 73-78
     doi.org/10.1002/wcms.81
  2. Neese, F.
     Software update: the ORCA program system, version 4.0
     WIRES Comput. Molec. Sci. 2018 8(1), 1-6
     doi.org/10.1002/wcms.1327
  3. Neese, F.; Wennmohs, F.; Becker, U.; Riplinger, C.
     The ORCA quantum chemistry program package
     J. Chem. Phys. 2020 152(22), 224108
     doi.org/10.1063/5.0004608
  4. Neese, F.
     Software update: The ORCA program system—Version 5.0
     WIRES Comput. Molec. Sci. 2022 12(1), e1606
     doi.org/10.1002/wcms.1606

List of optional additional citations

  1. Neese, F.
     Approximate second-order SCF convergence for spin unrestricted wavefunctions
     Chem. Phys. Lett. 2000 325(1-3), 93-98
     doi.org/10.1016/s0009-2614(00)00662-x

Timings for individual modules:

Sum of individual times          ...      330.819 sec (=   5.514 min)
Startup calculation              ...      110.515 sec (=   1.842 min)  33.4 %
SCF iterations                   ...      144.736 sec (=   2.412 min)  43.8 %
Property integrals               ...       50.552 sec (=   0.843 min)  15.3 %
SCF Response                     ...       15.824 sec (=   0.264 min)   4.8 %
Property calculations            ...        9.192 sec (=   0.153 min)   2.8 %
                             ****ORCA TERMINATED NORMALLY****
TOTAL RUN TIME: 0 days 0 hours 5 minutes 40 seconds 919 msec
