
                                 *****************
                                 * O   R   C   A *
                                 *****************

                                            #,                                       
                                            ###                                      
                                            ####                                     
                                            #####                                    
                                            ######                                   
                                           ########,                                 
                                     ,,################,,,,,                         
                               ,,#################################,,                 
                          ,,##########################################,,             
                       ,#########################################, ''#####,          
                    ,#############################################,,   '####,        
                  ,##################################################,,,,####,       
                ,###########''''           ''''###############################       
              ,#####''   ,,,,##########,,,,          '''####'''          '####       
            ,##' ,,,,###########################,,,                        '##       
           ' ,,###''''                  '''############,,,                           
         ,,##''                                '''############,,,,        ,,,,,,###''
      ,#''                                            '''#######################'''  
     '                                                          ''''####''''         
             ,#######,   #######,   ,#######,      ##                                
            ,#'     '#,  ##    ##  ,#'     '#,    #''#        ,####,    ,#,          
            ##       ##  ##   ,#'  ##            #'  '#       #'       ,# #          
            ##       ##  #######   ##           ,######,      #####,      #          
            '#,     ,#'  ##    ##  '#,     ,#' ,#      #,     #,   #      #          
             '#######'   ##     ##  '#######'  #'      '#     '####' #    #          



                #########################################################
                #                        -***-                          #
                #          Department of theory and spectroscopy        #
                #                                                       #
                #                      Frank Neese                      #
                #                                                       #
                #     Directorship, Architecture, Infrastructure        #
                #                    SHARK, DRIVERS                     #
                #        Core code/Algorithms in most modules           #
                #                                                       #
                #        Max Planck Institute fuer Kohlenforschung      #
                #                Kaiser Wilhelm Platz 1                 #
                #                 D-45470 Muelheim/Ruhr                 #
                #                      Germany                          #
                #                                                       #
                #                  All rights reserved                  #
                #                        -***-                          #
                #########################################################


                         Program Version 6.1.0-f.0  -   RELEASE   -


 With contributions from (in alphabetic order):
[Max-Planck-Institut fuer Kohlenforschung]                               
  Daniel Aravena         : Magnetic Suceptibility                        
  Michael Atanasov       : Ab Initio Ligand Field Theory (pilot matlab implementation)
  Alexander A. Auer      : GIAO ZORA, VPT2 properties, NMR spectrum      
  Ute Becker             : All parallelization in ORCA, NUMFREQ, NUMCALC 
  Giovanni Bistoni       : ED, misc. LED, open-shell LED, HFLD           
  Dmytro Bykov           : pre 5.0 version of the SCF Hessian            
  Marcos Casanova-Páez   : Triplet and SCS-CIS(D). UHF-(DLPNO)-IP/EA/STEOM-CCSD. UHF-CVS-IP/STEOM-CCSD   
  Vijay G. Chilkuri      : MRCI spin determinant printing, contributions to CSF-ICE 
  Pauline Colinet        : FMM embedding                                 
  Dipayan Datta          : RHF DLPNO-CCSD density                        
  Achintya Kumar Dutta   : EOM-CC, STEOM-CC                              
  Nicolas Foglia         : Exact transition moments, OPA infrastructure, MCD improvements    
  Dmitry Ganyushin       : Spin-Orbit,Spin-Spin,Magnetic field MRCI      
  Miquel Garcia-Rates    : C-PCM and meta-GGA Hessian, CCSD/C-PCM, Gaussian charge scheme 
  Tiago L. C. Gouveia    : GS-ROHF, GS-ROCIS                             
  Yang Guo               : DLPNO-NEVPT2, F12-NEVPT2, CIM, IAO-localization        
  Andreas Hansen         : Spin unrestricted coupled pair/coupled cluster methods 
  Ingolf Harden          : AUTO-CI MPn and infrastructure                
  Benjamin Helmich-Paris : MC-RPA, TRAH-(SCF,CASSCF), AVAS, COSX integrals, SCF dyn. polar., MC-PDFT, srDFT 
  Lee Huntington         : MR-EOM, pCC                                   
  Robert Izsak           : Overlap fitted RIJCOSX, COSX-SCS-MP3, EOM     
  Riya Kayal             : Wick's Theorem for AUTO-CI, AUTO-CI UHF-CCSDT 
  Emily Kempfer          : AUTO-CI RHF CISDT and CCSDT, approximate NEVPT4
  Christian Kollmar      : KDIIS, OOCD, Brueckner-CCSD(T), CCSD density, CASPT2, CASPT2-K, improved NEVPT2 
  Axel Koslowski         : Symmetry handling                             
  Simone Kossmann        : meta-GGA functionals, TD-DFT gradient, OOMP2, (MP2 Hessian; deprecated post 5.0) 
  Lucas Lang             : DCDCAS, Hyperfine gauge corrections, ICE-SOC+SSC
  Marvin Lechner         : AUTO-CI (C++ implementation), FIC-MRCC        
  Spencer Leger          : CASSCF response                               
  Dagmar Lenk            : GEPOL surface, SMD, ORCA-2-JSON               
  Dimitrios Liakos       : Extrapolation schemes; Compound Job, Property file
  Dimitrios Manganas     : Further ROCIS development; embedding schemes. LFT, Crystal Embedding 
  Dimitrios Pantazis     : SARC Basis sets                               
  Anastasios Papadopoulos: AUTO-CI, single reference methods and gradients 
  Taras Petrenko         : pre 6.0 DFT Hessian and TD-DFT gradient,  ECA, NRVS 
  Petra Pikulova         : Analytic Raman intensities                    
  Peter Pinski           : DLPNO-MP2, DLPNO-MP2 Gradient                 
  Shashank Vittal Rao    : ES-AILFT, MagRelax                            
  Christoph Reimann      : Effective Core Potentials                     
  Marius Retegan         : Local ZFS, SOC                                
  Christoph Riplinger    : Optimizer, TS searches, QM/MM, DLPNO-CCSD(T), (RO)-DLPNO pert. Triples 
  Michael Roemelt        : Original ROCIS implementation, recursive CI coupling coefficients
  Masaaki Saitow         : Open-shell DLPNO-CCSD energy and density      
  Barbara Sandhoefer     : DKH picture change effects                    
  Yorick L. A. Schmerwitz: GMF and freeze-and-release deltaSCF, NEB S-IDPP initial path                    
  Kantharuban Sivalingam : CASSCF convergence/infrastructure, NEVPT2, NEVPT3, NEVPT4(SD), FIC-MRCI and CEPA variants
  Bernardo de Souza      : ESD, SOC TD-DFT                               
  Georgi L. Stoychev     : AutoAux, RI-MP2 NMR, DLPNO-MP2 response, X2C  
  Van Anh Tran           : RI-MP2 g-tensors                              
  Willem Van den Heuvel  : Paramagnetic NMR                              
  Zikuan Wang            : NOTCH, Electric field optimization            
  Frank Wennmohs         : Technical directorship and infrastructure     
  Hang Xu                : AUTO-CI-Response properties                   
                                                                         
[FACCTs GmbH]                                                            
  Markus Bursch, Nicolas Foglia, Miquel Garcia-Rates, Ingolf Harden, Hagen Neugebauer, Anastasios Papadopoulos, 
  Christoph Riplinger, Bernardo de Souza, Georgi L. Stoychev                                                    
                                                                 
  APM, various basis sets, CI-OPT, improved COSX, DLPNO-Multilevel,           
  DOCKER, DRACO, updates on ESD, Fragmentator, GOAT, IRC, LR-CPCM, L-BFGS, MBIS, meta-GGA TD-DFT gradient, ML-optimized integration grids, 
  MM, NACMEs, nearIR, NEB, NEB-TS, NL-DFT gradient (VV10), 2- and 3-layer-ONIOM, interface openCOSMO-RS, QMMM,   
  Crystal-QMMM, RESP, rigid body optimization, SF, symmetry and pop. for TD-DFT, various functionals, SOLVATOR                                   
                                                                         
[Other institutions]                                                     
  V. Asgeirsson          : NEB                                           
  Christoph Bannwarth    : sTDA-DFT, sTD-DFT, PBEh-3c, B97-3c, D3        
  Giovanni Bistoni       : ETS/NOCV, ADLD/ADEX, COVALED                  
  Martin Brehm           : Molecular dynamics                            
  Ronald Cardenas        : ETS/NOCV                                      
  Martina Colucci        : COVALED                                       
  Sebastian Ehlert       : rSCAN, r2SCAN, r2SCAN-3c, D4, dhf basis sets  
  Marvin Friede          : D4 for Fr, Ra, Ac-Lr                          
  Lars Goerigk           : TD-DFT with DH, B97 family of functionals     
  Stefan Grimme          : VdW corrections, initial TS optimization, DFT functionals, gCP, sTDA/sTD-DF 
  Waldemar Hujo          : DFT-NL                                        
  H. Jonsson             : NEB                                           
  Holger Kruse           : gCP                                           
  Marcel Mueller         : wB97X-3c, vDZP basis set                      
  Hagen Neugebauer       : wr2SCAN, Native XTB                           
  Gianluca Regni         : ADLD/ADEX                                     
  Tobias Risthaus        : pre 6.0 range-separated hybrid DFT and stability analysis
  Lukas Wittmann         : regularized MP2, r2SCAN double-hybrids, wr2SCAN        
                                                                         
We gratefully acknowledge several colleagues who have allowed us to      
interface, adapt or use parts of their codes:                            
  Ed Valeev, F. Pavosevic, A. Kumar             : LibInt (2-el integral package), F12 methods 
  Garnet Chan, S. Sharma, J. Yang, R. Olivares  : DMRG                   
  Ulf Ekstrom                                   : XCFun DFT Library      
  Mihaly Kallay                                 : mrcc  (arbitrary order and MRCC methods)
  Frank Weinhold                                : gennbo (NPA and NBO analysis)           
  Simon Mueller                                 : openCOSMO-RS                            
  Christopher J. Cramer and Donald G. Truhlar   : smd solvation model                     
  S Lehtola, MJT Oliveira, MAL Marques          : LibXC Library                           
  Liviu Ungur et al                             : ANISO software                          


 Your calculation uses the libint2 library for the computation of 2-el integrals
 For citations please refer to: http://libint.valeyev.net

 Your ORCA version has been built with support for libXC version: 7.0.0
 For citations please refer to: https://libxc.gitlab.io

 This ORCA versions uses:
   CBLAS   interface :  Fast vector & matrix operations
   LAPACKE interface :  Fast linear algebra routines
   SCALAPACK package :  Parallel linear algebra routines
   Shared memory     :  Shared parallel matrices
   BLAS/LAPACK       :  OpenBLAS 0.3.29  USE64BITINT DYNAMIC_ARCH NO_AFFINITY Cooperlake SINGLE_THREADED
        Core in use  :  Cooperlake
   Copyright (c) 2011-2014, The OpenBLAS Project


  ***********************************
  * Starting time: Tue Mar  3 21:05:09 2026
  * Host name:     c08b01n08
  * Process ID:    1520600
  * Working dir.:  /lustre1/jiangy/jiangy_liuxy/NMR/B9D7C2-SSRS-NMR/opt_conf
  ***********************************

NOTE: MaxCore=5000 MB was set to SCF,MP2,MDCI,CIPSI,MRCI,RASCI and CIS
      => If you want to overwrite this, your respective input block should be placed after the MaxCore statement


***************************************
The coordinates will be read from file: opt-conf-2.xyz
***************************************



Warning: The global flag for NMR shieldings has been found
         but shieldings for certain elements have also been explicitly requested in the EPRNMR block
         ==>> only the requested shieldings will be calculated

================================================================================

----- Orbital basis set information -----
Your calculation utilizes the basis: pcSseg-2
   F. Jensen, J. Chem. Theory Comput. 11, 132 (2015).

----- AuxJ basis set information -----
Your calculation utilizes the AutoAux generation procedure.
  G. L. Stoychev, A. A. Auer, F. Neese, J. Chem. Theory Comput. 13, 554 (2017)

----- AuxC basis set information -----
Your calculation utilizes the AutoAux generation procedure.
  G. L. Stoychev, A. A. Auer, F. Neese, J. Chem. Theory Comput. 13, 554 (2017)

----- AuxJK basis set information -----
Your calculation utilizes the AutoAux generation procedure.
  G. L. Stoychev, A. A. Auer, F. Neese, J. Chem. Theory Comput. 13, 554 (2017)

----- AuxX basis set information -----
Your calculation utilizes the AutoAux generation procedure.
  G. L. Stoychev, A. A. Auer, F. Neese, J. Chem. Theory Comput. 13, 554 (2017)

================================================================================
                                        WARNINGS
                       Please study these warnings very carefully!
================================================================================


================================================================================
                                       INPUT FILE
================================================================================
NAME = nmr-conf-2.inp
|  1> !TPSS PCSSEG-2 AUTOAUX NMR CPCM(Methanol)
|  2> 
|  3> %pal nprocs 60 end
|  4> %maxcore 5000
|  5> 
|  6> *XYZFILE 0 1 opt-conf-2.xyz
|  7> 
|  8> %EPRNMR
|  9>    NUCLEI = ALL C {SHIFT}
| 10>    NUCLEI = ALL H {SHIFT}
| 11>    TAU DOBSON
| 12> END
| 13> 
| 14> 
| 15>                          ****END OF INPUT****
================================================================================

                       ****************************
                       * Single Point Calculation *
                       ****************************

---------------------------------
CARTESIAN COORDINATES (ANGSTROEM)
---------------------------------
  C     14.509645  -20.356804   -0.469577
  C     15.254549  -19.216040   -0.146759
  C     14.646738  -18.212136    0.616875
  C     13.335752  -18.369169    1.053712
  C     12.591370  -19.487252    0.703264
  C     13.188719  -20.489115   -0.053130
  C     11.125528  -19.537805    1.047218
  C     10.317682  -18.525036    0.203354
  C     10.322107  -18.859348   -1.312946
  C     10.486680  -17.579697   -2.162472
  C     11.875834  -16.993920   -2.101638
  C     12.941197  -17.681830   -2.690728
  C     14.234643  -17.184287   -2.648617
  C     14.500754  -15.978529   -1.977452
  C     13.444144  -15.288754   -1.407195
  C     12.143989  -15.786492   -1.469671
  C      8.941238  -18.258609    0.811708
  C      9.110993  -19.642359   -1.824003
  O     15.380503  -17.096673    0.872427
  O     15.163909  -21.295394   -1.213992
  O     16.499945  -19.144159   -0.711284
  O     15.753342  -15.439476   -1.902242
  O     15.308250  -17.790918   -3.244783
  C     17.639036  -18.536141   -0.086939
  C     18.275251  -19.506638    0.917770
  C     17.316193  -19.839575    2.034684
  C     18.557320  -18.194491   -1.248617
  O     17.894891  -17.361021   -2.202397
  C     16.651959  -21.067248    2.031875
  C     15.658744  -21.327110    2.962671
  C     15.332581  -20.360133    3.924802
  C     16.019535  -19.157913    3.953189
  C     17.004599  -18.897439    3.007928
  C     14.409426  -22.390086   -1.722165
  C     14.856726  -16.124398    1.767870
  C     15.088202  -19.008394   -3.957602
  O     19.460628  -18.853099    1.385303
  O      8.147945  -19.441282    1.045744
  O      8.910384  -20.896355   -1.173785
  O     14.917806  -22.471123    3.038060
  O     14.340802  -20.598748    4.830783
  C     15.224296  -23.532589    2.136268
  H     12.869043  -17.582707    1.627832
  H     12.613715  -21.359638   -0.331072
  H     10.988380  -19.294233    2.106102
  H     10.743498  -20.547765    0.893914
  H     10.841964  -17.570418    0.306031
  H     11.197182  -19.483329   -1.506427
  H      9.757741  -16.829478   -1.844016
  H     10.250454  -17.822573   -3.203505
  H     12.745319  -18.619357   -3.191276
  H     13.655094  -14.355541   -0.899758
  H     11.337865  -15.227233   -1.010221
  H      9.066412  -17.726477    1.758252
  H      8.346585  -17.626504    0.150711
  H      8.201993  -19.031767   -1.753511
  H      9.266084  -19.864451   -2.882006
  H     16.452560  -16.116887   -1.970777
  H     17.353270  -17.625097    0.429513
  H     18.538540  -20.428058    0.384876
  H     19.422748  -17.644082   -0.887017
  H     18.902649  -19.113533   -1.735088
  H     17.132345  -17.854185   -2.548799
  H     16.889818  -21.796468    1.270520
  H     15.760551  -18.424426    4.706514
  H     17.513101  -17.942798    3.015925
  H     14.002030  -23.006455   -0.917167
  H     13.591096  -22.041646   -2.357884
  H     15.104525  -22.981976   -2.313318
  H     13.945923  -15.670885    1.372540
  H     14.654543  -16.565399    2.747157
  H     15.627756  -15.363134    1.862165
  H     16.057292  -19.296364   -4.358347
  H     14.720759  -19.789401   -3.292087
  H     14.383308  -18.854679   -4.777472
  H     19.832201  -19.383369    2.101593
  H      8.435638  -19.843182    1.874638
  H      8.572590  -20.676306   -0.287109
  H     13.974418  -21.479434    4.658185
  H     15.075825  -23.218819    1.101807
  H     16.254437  -23.870821    2.271435
  H     14.537298  -24.339834    2.376884

----------------------------
CARTESIAN COORDINATES (A.U.)
----------------------------
  NO LB      ZA    FRAG     MASS         X           Y           Z
   0 C     6.0000    0    12.011   27.419255  -38.468785   -0.887373
   1 C     6.0000    0    12.011   28.826920  -36.313054   -0.277335
   2 C     6.0000    0    12.011   27.678323  -34.415949    1.165726
   3 C     6.0000    0    12.011   25.200919  -34.712699    1.991227
   4 C     6.0000    0    12.011   23.794241  -36.825570    1.328976
   5 C     6.0000    0    12.011   24.923067  -38.718816   -0.100402
   6 C     6.0000    0    12.011   21.024201  -36.921101    1.978955
   7 C     6.0000    0    12.011   19.497594  -35.007244    0.384283
   8 C     6.0000    0    12.011   19.505956  -35.639003   -2.481109
   9 C     6.0000    0    12.011   19.816953  -33.220814   -4.086480
  10 C     6.0000    0    12.011   22.442074  -32.113854   -3.971520
  11 C     6.0000    0    12.011   24.455318  -33.413816   -5.084740
  12 C     6.0000    0    12.011   26.899576  -32.473595   -5.005162
  13 C     6.0000    0    12.011   27.402454  -30.195045   -3.736842
  14 C     6.0000    0    12.011   25.405750  -28.891558   -2.659214
  15 C     6.0000    0    12.011   22.948814  -29.832147   -2.777276
  16 C     6.0000    0    12.011   16.896491  -34.503770    1.533907
  17 C     6.0000    0    12.011   17.217282  -37.118679   -3.446866
  18 O     8.0000    0    15.999   29.064939  -32.308030    1.648647
  19 O     8.0000    0    15.999   28.655634  -40.242462   -2.294113
  20 O     8.0000    0    15.999   31.180377  -36.177218   -1.344132
  21 O     8.0000    0    15.999   29.769502  -29.176381   -3.594716
  22 O     8.0000    0    15.999   28.928399  -33.619962   -6.131751
  23 C     6.0000    0    12.011   33.332947  -35.028230   -0.164290
  24 C     6.0000    0    12.011   34.535219  -36.862203    1.734334
  25 C     6.0000    0    12.011   32.722862  -37.491363    3.844995
  26 C     6.0000    0    12.011   35.068252  -34.382606   -2.359544
  27 O     8.0000    0    15.999   33.816444  -32.807576   -4.161927
  28 C     6.0000    0    12.011   31.467643  -39.811330    3.839686
  29 C     6.0000    0    12.011   29.590739  -40.302398    5.598637
  30 C     6.0000    0    12.011   28.974380  -38.475075    7.416800
  31 C     6.0000    0    12.011   30.272534  -36.203208    7.470445
  32 C     6.0000    0    12.011   32.134035  -35.710985    5.684160
  33 C     6.0000    0    12.011   27.229869  -42.311130   -3.254421
  34 C     6.0000    0    12.011   28.075144  -30.470696    3.340791
  35 C     6.0000    0    12.011   28.512571  -35.920660   -7.478784
  36 O     8.0000    0    15.999   36.775258  -35.627193    2.617843
  37 O     8.0000    0    15.999   15.397385  -36.738699    1.976170
  38 O     8.0000    0    15.999   16.838185  -39.488389   -2.218133
  39 O     8.0000    0    15.999   28.190568  -42.464268    5.741102
  40 O     8.0000    0    15.999   27.100189  -38.925992    9.128857
  41 C     6.0000    0    12.011   28.769749  -44.470148    4.036962
  42 H     1.0000    0     1.008   24.318966  -33.226502    3.076156
  43 H     1.0000    0     1.008   23.836466  -40.363866   -0.625635
  44 H     1.0000    0     1.008   20.765029  -36.460817    3.979956
  45 H     1.0000    0     1.008   20.302268  -38.829649    1.689253
  46 H     1.0000    0     1.008   20.488342  -33.203279    0.578314
  47 H     1.0000    0     1.008   21.159608  -36.818155   -2.846735
  48 H     1.0000    0     1.008   18.439458  -31.803104   -3.484686
  49 H     1.0000    0     1.008   19.370550  -33.679782   -6.053746
  50 H     1.0000    0     1.008   24.085163  -35.185486   -6.030638
  51 H     1.0000    0     1.008   25.804388  -27.128041   -1.700297
  52 H     1.0000    0     1.008   21.425461  -28.775300   -1.909040
  53 H     1.0000    0     1.008   17.133036  -33.498186    3.322616
  54 H     1.0000    0     1.008   15.772760  -33.309266    0.284803
  55 H     1.0000    0     1.008   15.499520  -35.964828   -3.313655
  56 H     1.0000    0     1.008   17.510361  -37.538372   -5.446203
  57 H     1.0000    0     1.008   31.090832  -30.456502   -3.724229
  58 H     1.0000    0     1.008   32.792927  -33.306607    0.811661
  59 H     1.0000    0     1.008   35.032763  -38.603436    0.727310
  60 H     1.0000    0     1.008   36.703674  -33.342483   -1.676220
  61 H     1.0000    0     1.008   35.720829  -36.119342   -3.278842
  62 H     1.0000    0     1.008   32.375439  -33.739521   -4.816532
  63 H     1.0000    0     1.008   31.917130  -41.189355    2.400936
  64 H     1.0000    0     1.008   29.783125  -34.817120    8.894022
  65 H     1.0000    0     1.008   33.094964  -33.906974    5.699272
  66 H     1.0000    0     1.008   26.460002  -43.475899   -1.733194
  67 H     1.0000    0     1.008   25.683449  -41.652674   -4.455755
  68 H     1.0000    0     1.008   28.543416  -43.429641   -4.371537
  69 H     1.0000    0     1.008   26.353976  -29.613682    2.593725
  70 H     1.0000    0     1.008   27.693073  -31.304067    5.191374
  71 H     1.0000    0     1.008   29.532179  -29.032116    3.518981
  72 H     1.0000    0     1.008   30.343885  -36.464843   -8.236081
  73 H     1.0000    0     1.008   27.818204  -37.396548   -6.221142
  74 H     1.0000    0     1.008   27.180513  -35.630179   -9.028113
  75 H     1.0000    0     1.008   37.477428  -36.629260    3.971435
  76 H     1.0000    0     1.008   15.941046  -37.498180    3.542552
  77 H     1.0000    0     1.008   16.199847  -39.072555   -0.542557
  78 H     1.0000    0     1.008   26.407823  -40.590248    8.802694
  79 H     1.0000    0     1.008   28.489181  -43.877209    2.082114
  80 H     1.0000    0     1.008   30.716435  -45.109314    4.292390
  81 H     1.0000    0     1.008   27.471511  -45.995621    4.491659

--------------------------------
INTERNAL COORDINATES (ANGSTROEM)
--------------------------------
 C      0   0   0     0.000000000000     0.00000000     0.00000000
 C      1   0   0     1.400155881459     0.00000000     0.00000000
 C      2   1   0     1.400141259256   118.61788011     0.00000000
 C      3   2   1     1.390744107418   119.97110944     0.89888442
 C      4   3   2     1.388174510396   121.13970235   357.48580076
 C      5   4   3     1.390211152667   119.16898684     2.58302590
 C      5   4   3     1.506503250172   119.41600579   187.76533544
 C      7   5   4     1.546099522685   111.21127029    69.27873467
 C      8   7   5     1.552723336423   112.98396267    65.21551465
 C      9   8   7     1.544759895938   111.03800239   221.15581287
 C     10   9   8     1.508835775510   113.42302171    72.11324019
 C     11  10   9     1.398301234352   119.56978655    68.62747042
 C     12  11  10     1.386479255309   121.42865362   180.51006884
 C     13  12  11     1.405392998700   119.93573702     1.43362066
 C     14  13  12     1.384705155548   118.65707410   357.86587148
 C     11  10   9     1.388945913467   122.24827558   248.98049129
 C      8   7   5     1.528292391800   111.56286517   197.16448913
 C      9   8   7     1.530059502118   115.72828011    96.31081355
 O      3   2   1     1.359402720512   117.16463848   182.30417754
 O      1   2   3     1.364977910176   115.52893768   180.08493609
 O      2   1   3     1.369257400844   115.56943102   185.05479663
 O     14  13  12     1.365727393499   122.58817247   179.99710600
 O     13  12  11     1.369688550401   123.99234372   182.24053912
 C     21   2   1     1.434232344339   124.41291620   212.96541170
 C     24  21   2     1.534950624355   110.24843057    80.95671904
 C     25  24  21     1.509348848120   111.12886390   297.25665307
 C     24  21   2     1.519692667613   104.03140522   202.48393479
 O     27  24  21     1.429398503270   111.16900897    56.53319871
 C     26  25  24     1.395849809364   119.66225964   102.76876988
 C     29  26  25     1.385780021612   120.30719098   187.32501750
 C     30  29  26     1.402541849324   119.87785940   359.05208418
 C     31  30  29     1.384934719494   119.81485718   358.98532365
 C     32  31  30     1.389861746011   120.01965086     1.71661961
 C     20   1   2     1.423318087337   118.00130043   188.18200193
 C     19   3   2     1.421788000729   118.72946582   187.04966332
 C     23  13  12     1.427858925944   118.30294552     0.17002630
 O     25  24  21     1.432068461317   105.55951195   174.83898894
 O     17   8   7     1.443191770066   114.62994283   305.52841800
 O     18   9   8     1.426721265377   114.13403997   301.83967193
 O     30  29  26     1.365077907425   125.68078896   178.21084719
 O     31  30  29     1.364318558268   120.26525852   178.89959004
 C     40  30  29     1.426139671839   118.17653048     3.61817328
 H      4   3   2     1.079793142076   119.48530956   181.03933224
 H      6   5   4     1.079671492183   119.49060249   180.17859425
 H      7   5   4     1.095158417642   109.58098520   309.37750512
 H      7   5   4     1.090627983938   109.86542641   191.67853454
 H      8   7   5     1.093941389674   105.66289536   309.57370245
 H      9   8   7     1.092036154209   107.35712224   337.66509678
 H     10   9   8     1.093432878129   109.70486413   309.17661483
 H     10   9   8     1.094778680552   108.43198565   193.14870908
 H     12  11  10     1.080681888626   118.93571374     0.73048482
 H     15  14  13     1.082994958437   118.26647558   180.57692334
 H     16  11  10     1.083374856737   119.87177963   359.22256567
 H     17   8   7     1.093059462202   109.05250355    67.70099864
 H     17   8   7     1.090910457711   110.53372466   185.99287606
 H     18   9   8     1.097302523207   110.45632447    66.49609920
 H     18   9   8     1.092130896027   108.37506882   183.46199906
 H     22  14  13     0.975954818671   112.28808737   333.49137937
 H     24  21   2     1.085534119856   110.72098118   320.04514310
 H     25  24  21     1.096500559157   108.22357833    57.00158181
 H     27  24  21     1.087505961542   109.90576357   175.04238974
 H     27  24  21     1.095693313674   109.95385152   294.71554830
 H     28  27  24     0.971947923451   107.79065657   298.67341784
 H     29  26  25     1.080739536190   119.34927148     4.69919424
 H     32  31  30     1.082853944682   118.92255701   180.42208829
 H     33  32  31     1.081655384056   119.57535248   177.91930730
 H     34  20   1     1.092659879257   111.62063336   296.44999397
 H     34  20   1     1.093257968166   111.05509679    58.58518043
 H     34  20   1     1.087638719618   105.89233970   177.51209221
 H     35  19   3     1.091568329501   111.30960944   295.54109561
 H     35  19   3     1.092868738676   110.88860108    58.01940301
 H     35  19   3     1.087612221354   105.78860249   176.80576633
 H     36  23  13     1.087500451049   105.80816218   178.89273246
 H     36  23  13     1.089906202733   110.98484891   297.72592629
 H     36  23  13     1.092103969106   110.74656914    60.17846111
 H     37  25  24     0.965569707351   108.06508461   173.04243856
 H     38  17   8     0.965067933407   108.46301475    81.24926692
 H     39  18   9     0.974023757825   105.37103302    73.25385509
 H     41  31  30     0.969348419855   108.38634047   359.85223830
 H     42  40  30     1.091148423331   110.86756630   298.07875865
 H     42  40  30     1.092640284313   110.78067675    59.92522966
 H     42  40  30     1.086971486512   106.07826004   179.02153577

---------------------------
INTERNAL COORDINATES (A.U.)
---------------------------
 C      0   0   0     0.000000000000     0.00000000     0.00000000
 C      1   0   0     2.645911160757     0.00000000     0.00000000
 C      2   1   0     2.645883528797   118.61788011     0.00000000
 C      3   2   1     2.628125485385   119.97110944     0.89888442
 C      4   3   2     2.623269650738   121.13970235   357.48580076
 C      5   4   3     2.627118346863   119.16898684     2.58302590
 C      5   4   3     2.846878562687   119.41600579   187.76533544
 C      7   5   4     2.921704673660   111.21127029    69.27873467
 C      8   7   5     2.934221867588   112.98396267    65.21551465
 C      9   8   7     2.919173145987   111.03800239   221.15581287
 C     10   9   8     2.851286396776   113.42302171    72.11324019
 C     11  10   9     2.642406385650   119.56978655    68.62747042
 C     12  11  10     2.620066082897   121.42865362   180.51006884
 C     13  12  11     2.655807878073   119.93573702     1.43362066
 C     14  13  12     2.616713520214   118.65707410   357.86587148
 C     11  10   9     2.624727391282   122.24827558   248.98049129
 C      8   7   5     2.888054073058   111.56286517   197.16448913
 C      9   8   7     2.891393427606   115.72828011    96.31081355
 O      3   2   1     2.568898847476   117.16463848   182.30417754
 O      1   2   3     2.579434429084   115.52893768   180.08493609
 O      2   1   3     2.587521494441   115.56943102   185.05479663
 O     14  13  12     2.580850747308   122.58817247   179.99710600
 O     13  12  11     2.588336249025   123.99234372   182.24053912
 C     21   2   1     2.710306343212   124.41291620   212.96541170
 C     24  21   2     2.900636309122   110.24843057    80.95671904
 C     25  24  21     2.852255963496   111.12886390   297.25665307
 C     24  21   2     2.871802949517   104.03140522   202.48393479
 O     27  24  21     2.701171707418   111.16900897    56.53319871
 C     26  25  24     2.637773863784   119.66225964   102.76876988
 C     29  26  25     2.618744722706   120.30719098   187.32501750
 C     30  29  26     2.650419986586   119.87785940   359.05208418
 C     31  30  29     2.617147333203   119.81485718   358.98532365
 C     32  31  30     2.626458063974   120.01965086     1.71661961
 C     20   1   2     2.689681386523   118.00130043   188.18200193
 C     19   3   2     2.686789941873   118.72946582   187.04966332
 C     23  13  12     2.698262327909   118.30294552     0.17002630
 O     25  24  21     2.706217196915   105.55951195   174.83898894
 O     17   8   7     2.727237204154   114.62994283   305.52841800
 O     18   9   8     2.696112461004   114.13403997   301.83967193
 O     30  29  26     2.579623396499   125.68078896   178.21084719
 O     31  30  29     2.578188434553   120.26525852   178.89959004
 C     40  30  29     2.695013408497   118.17653048     3.61817328
 H      4   3   2     2.040513319810   119.48530956   181.03933224
 H      6   5   4     2.040283434829   119.49060249   180.17859425
 H      7   5   4     2.069549482603   109.58098520   309.37750512
 H      7   5   4     2.060988203633   109.86542641   191.67853454
 H      8   7   5     2.067249633045   105.66289536   309.57370245
 H      9   8   7     2.063649259795   107.35712224   337.66509678
 H     10   9   8     2.066288685488   109.70486413   309.17661483
 H     10   9   8     2.068831883499   108.43198565   193.14870908
 H     12  11  10     2.042192807392   118.93571374     0.73048482
 H     15  14  13     2.046563875863   118.26647558   180.57692334
 H     16  11  10     2.047281779609   119.87177963   359.22256567
 H     17   8   7     2.065583031652   109.05250355    67.70099864
 H     17   8   7     2.061522001705   110.53372466   185.99287606
 H     18   9   8     2.073601254923   110.45632447    66.49609920
 H     18   9   8     2.063828295885   108.37506882   183.46199906
 H     22  14  13     1.844287326370   112.28808737   333.49137937
 H     24  21   2     2.051362195555   110.72098118   320.04514310
 H     25  24  21     2.072085762498   108.22357833    57.00158181
 H     27  24  21     2.055088436322   109.90576357   175.04238974
 H     27  24  21     2.070560289612   109.95385152   294.71554830
 H     28  27  24     1.836715391756   107.79065657   298.67341784
 H     29  26  25     2.042301745500   119.34927148     4.69919424
 H     32  31  30     2.046297398485   118.92255701   180.42208829
 H     33  32  31     2.044032447147   119.57535248   177.91930730
 H     34  20   1     2.064827929320   111.62063336   296.44999397
 H     34  20   1     2.065958153561   111.05509679    58.58518043
 H     34  20   1     2.055339312727   105.89233970   177.51209221
 H     35  19   3     2.062765199219   111.30960944   295.54109561
 H     35  19   3     2.065222616421   110.88860108    58.01940301
 H     35  19   3     2.055289238264   105.78860249   176.80576633
 H     36  23  13     2.055078022998   105.80816218   178.89273246
 H     36  23  13     2.059624234828   110.98484891   297.72592629
 H     36  23  13     2.063777411379   110.74656914    60.17846111
 H     37  25  24     1.824662310103   108.06508461   173.04243856
 H     38  17   8     1.823714094769   108.46301475    81.24926692
 H     39  18   9     1.840638150222   105.37103302    73.25385509
 H     41  31  30     1.831803041875   108.38634047   359.85223830
 H     42  40  30     2.061971691555   110.86756630   298.07875865
 H     42  40  30     2.064790900241   110.78067675    59.92522966
 H     42  40  30     2.054078424888   106.07826004   179.02153577

---------------------
BASIS SET INFORMATION
---------------------
There are 3 groups of distinct atoms

 Group   1 Type C   : 11s7p2d1f contracted to 4s5p2d1f pattern {7211/31111/11/1}
 Group   2 Type O   : 11s7p2d1f contracted to 4s5p2d1f pattern {7211/31111/11/1}
 Group   3 Type H   : 6s3p1d contracted to 3s2p1d pattern {411/21/1}

Atom   0C    basis set group =>   1
Atom   1C    basis set group =>   1
Atom   2C    basis set group =>   1
Atom   3C    basis set group =>   1
Atom   4C    basis set group =>   1
Atom   5C    basis set group =>   1
Atom   6C    basis set group =>   1
Atom   7C    basis set group =>   1
Atom   8C    basis set group =>   1
Atom   9C    basis set group =>   1
Atom  10C    basis set group =>   1
Atom  11C    basis set group =>   1
Atom  12C    basis set group =>   1
Atom  13C    basis set group =>   1
Atom  14C    basis set group =>   1
Atom  15C    basis set group =>   1
Atom  16C    basis set group =>   1
Atom  17C    basis set group =>   1
Atom  18O    basis set group =>   2
Atom  19O    basis set group =>   2
Atom  20O    basis set group =>   2
Atom  21O    basis set group =>   2
Atom  22O    basis set group =>   2
Atom  23C    basis set group =>   1
Atom  24C    basis set group =>   1
Atom  25C    basis set group =>   1
Atom  26C    basis set group =>   1
Atom  27O    basis set group =>   2
Atom  28C    basis set group =>   1
Atom  29C    basis set group =>   1
Atom  30C    basis set group =>   1
Atom  31C    basis set group =>   1
Atom  32C    basis set group =>   1
Atom  33C    basis set group =>   1
Atom  34C    basis set group =>   1
Atom  35C    basis set group =>   1
Atom  36O    basis set group =>   2
Atom  37O    basis set group =>   2
Atom  38O    basis set group =>   2
Atom  39O    basis set group =>   2
Atom  40O    basis set group =>   2
Atom  41C    basis set group =>   1
Atom  42H    basis set group =>   3
Atom  43H    basis set group =>   3
Atom  44H    basis set group =>   3
Atom  45H    basis set group =>   3
Atom  46H    basis set group =>   3
Atom  47H    basis set group =>   3
Atom  48H    basis set group =>   3
Atom  49H    basis set group =>   3
Atom  50H    basis set group =>   3
Atom  51H    basis set group =>   3
Atom  52H    basis set group =>   3
Atom  53H    basis set group =>   3
Atom  54H    basis set group =>   3
Atom  55H    basis set group =>   3
Atom  56H    basis set group =>   3
Atom  57H    basis set group =>   3
Atom  58H    basis set group =>   3
Atom  59H    basis set group =>   3
Atom  60H    basis set group =>   3
Atom  61H    basis set group =>   3
Atom  62H    basis set group =>   3
Atom  63H    basis set group =>   3
Atom  64H    basis set group =>   3
Atom  65H    basis set group =>   3
Atom  66H    basis set group =>   3
Atom  67H    basis set group =>   3
Atom  68H    basis set group =>   3
Atom  69H    basis set group =>   3
Atom  70H    basis set group =>   3
Atom  71H    basis set group =>   3
Atom  72H    basis set group =>   3
Atom  73H    basis set group =>   3
Atom  74H    basis set group =>   3
Atom  75H    basis set group =>   3
Atom  76H    basis set group =>   3
Atom  77H    basis set group =>   3
Atom  78H    basis set group =>   3
Atom  79H    basis set group =>   3
Atom  80H    basis set group =>   3
Atom  81H    basis set group =>   3
---------------------------------
AUXILIARY/J BASIS SET INFORMATION
---------------------------------
There are 3 groups of distinct atoms

 Group   1 Type C   : 15s13p12d5f5g contracted to 15s13p12d5f5g pattern {111111111111111/1111111111111/111111111111/11111/11111}
 Group   2 Type O   : 15s13p12d5f5g contracted to 15s13p12d5f5g pattern {111111111111111/1111111111111/111111111111/11111/11111}
 Group   3 Type H   : 12s4p3d2f contracted to 12s4p3d2f pattern {111111111111/1111/111/11}

Atom   0C    basis set group =>   1
Atom   1C    basis set group =>   1
Atom   2C    basis set group =>   1
Atom   3C    basis set group =>   1
Atom   4C    basis set group =>   1
Atom   5C    basis set group =>   1
Atom   6C    basis set group =>   1
Atom   7C    basis set group =>   1
Atom   8C    basis set group =>   1
Atom   9C    basis set group =>   1
Atom  10C    basis set group =>   1
Atom  11C    basis set group =>   1
Atom  12C    basis set group =>   1
Atom  13C    basis set group =>   1
Atom  14C    basis set group =>   1
Atom  15C    basis set group =>   1
Atom  16C    basis set group =>   1
Atom  17C    basis set group =>   1
Atom  18O    basis set group =>   2
Atom  19O    basis set group =>   2
Atom  20O    basis set group =>   2
Atom  21O    basis set group =>   2
Atom  22O    basis set group =>   2
Atom  23C    basis set group =>   1
Atom  24C    basis set group =>   1
Atom  25C    basis set group =>   1
Atom  26C    basis set group =>   1
Atom  27O    basis set group =>   2
Atom  28C    basis set group =>   1
Atom  29C    basis set group =>   1
Atom  30C    basis set group =>   1
Atom  31C    basis set group =>   1
Atom  32C    basis set group =>   1
Atom  33C    basis set group =>   1
Atom  34C    basis set group =>   1
Atom  35C    basis set group =>   1
Atom  36O    basis set group =>   2
Atom  37O    basis set group =>   2
Atom  38O    basis set group =>   2
Atom  39O    basis set group =>   2
Atom  40O    basis set group =>   2
Atom  41C    basis set group =>   1
Atom  42H    basis set group =>   3
Atom  43H    basis set group =>   3
Atom  44H    basis set group =>   3
Atom  45H    basis set group =>   3
Atom  46H    basis set group =>   3
Atom  47H    basis set group =>   3
Atom  48H    basis set group =>   3
Atom  49H    basis set group =>   3
Atom  50H    basis set group =>   3
Atom  51H    basis set group =>   3
Atom  52H    basis set group =>   3
Atom  53H    basis set group =>   3
Atom  54H    basis set group =>   3
Atom  55H    basis set group =>   3
Atom  56H    basis set group =>   3
Atom  57H    basis set group =>   3
Atom  58H    basis set group =>   3
Atom  59H    basis set group =>   3
Atom  60H    basis set group =>   3
Atom  61H    basis set group =>   3
Atom  62H    basis set group =>   3
Atom  63H    basis set group =>   3
Atom  64H    basis set group =>   3
Atom  65H    basis set group =>   3
Atom  66H    basis set group =>   3
Atom  67H    basis set group =>   3
Atom  68H    basis set group =>   3
Atom  69H    basis set group =>   3
Atom  70H    basis set group =>   3
Atom  71H    basis set group =>   3
Atom  72H    basis set group =>   3
Atom  73H    basis set group =>   3
Atom  74H    basis set group =>   3
Atom  75H    basis set group =>   3
Atom  76H    basis set group =>   3
Atom  77H    basis set group =>   3
Atom  78H    basis set group =>   3
Atom  79H    basis set group =>   3
Atom  80H    basis set group =>   3
Atom  81H    basis set group =>   3
---------------------------------
AUXILIARY/C BASIS SET INFORMATION
---------------------------------
There are 3 groups of distinct atoms

 Group   1 Type C   : 15s13p12d5f5g contracted to 15s13p12d5f5g pattern {111111111111111/1111111111111/111111111111/11111/11111}
 Group   2 Type O   : 15s13p12d5f5g contracted to 15s13p12d5f5g pattern {111111111111111/1111111111111/111111111111/11111/11111}
 Group   3 Type H   : 12s4p3d2f contracted to 12s4p3d2f pattern {111111111111/1111/111/11}

Atom   0C    basis set group =>   1
Atom   1C    basis set group =>   1
Atom   2C    basis set group =>   1
Atom   3C    basis set group =>   1
Atom   4C    basis set group =>   1
Atom   5C    basis set group =>   1
Atom   6C    basis set group =>   1
Atom   7C    basis set group =>   1
Atom   8C    basis set group =>   1
Atom   9C    basis set group =>   1
Atom  10C    basis set group =>   1
Atom  11C    basis set group =>   1
Atom  12C    basis set group =>   1
Atom  13C    basis set group =>   1
Atom  14C    basis set group =>   1
Atom  15C    basis set group =>   1
Atom  16C    basis set group =>   1
Atom  17C    basis set group =>   1
Atom  18O    basis set group =>   2
Atom  19O    basis set group =>   2
Atom  20O    basis set group =>   2
Atom  21O    basis set group =>   2
Atom  22O    basis set group =>   2
Atom  23C    basis set group =>   1
Atom  24C    basis set group =>   1
Atom  25C    basis set group =>   1
Atom  26C    basis set group =>   1
Atom  27O    basis set group =>   2
Atom  28C    basis set group =>   1
Atom  29C    basis set group =>   1
Atom  30C    basis set group =>   1
Atom  31C    basis set group =>   1
Atom  32C    basis set group =>   1
Atom  33C    basis set group =>   1
Atom  34C    basis set group =>   1
Atom  35C    basis set group =>   1
Atom  36O    basis set group =>   2
Atom  37O    basis set group =>   2
Atom  38O    basis set group =>   2
Atom  39O    basis set group =>   2
Atom  40O    basis set group =>   2
Atom  41C    basis set group =>   1
Atom  42H    basis set group =>   3
Atom  43H    basis set group =>   3
Atom  44H    basis set group =>   3
Atom  45H    basis set group =>   3
Atom  46H    basis set group =>   3
Atom  47H    basis set group =>   3
Atom  48H    basis set group =>   3
Atom  49H    basis set group =>   3
Atom  50H    basis set group =>   3
Atom  51H    basis set group =>   3
Atom  52H    basis set group =>   3
Atom  53H    basis set group =>   3
Atom  54H    basis set group =>   3
Atom  55H    basis set group =>   3
Atom  56H    basis set group =>   3
Atom  57H    basis set group =>   3
Atom  58H    basis set group =>   3
Atom  59H    basis set group =>   3
Atom  60H    basis set group =>   3
Atom  61H    basis set group =>   3
Atom  62H    basis set group =>   3
Atom  63H    basis set group =>   3
Atom  64H    basis set group =>   3
Atom  65H    basis set group =>   3
Atom  66H    basis set group =>   3
Atom  67H    basis set group =>   3
Atom  68H    basis set group =>   3
Atom  69H    basis set group =>   3
Atom  70H    basis set group =>   3
Atom  71H    basis set group =>   3
Atom  72H    basis set group =>   3
Atom  73H    basis set group =>   3
Atom  74H    basis set group =>   3
Atom  75H    basis set group =>   3
Atom  76H    basis set group =>   3
Atom  77H    basis set group =>   3
Atom  78H    basis set group =>   3
Atom  79H    basis set group =>   3
Atom  80H    basis set group =>   3
Atom  81H    basis set group =>   3
----------------------------------
AUXILIARY/JK BASIS SET INFORMATION
----------------------------------
There are 3 groups of distinct atoms

 Group   1 Type C   : 15s13p12d5f5g contracted to 15s13p12d5f5g pattern {111111111111111/1111111111111/111111111111/11111/11111}
 Group   2 Type O   : 15s13p12d5f5g contracted to 15s13p12d5f5g pattern {111111111111111/1111111111111/111111111111/11111/11111}
 Group   3 Type H   : 12s4p3d2f contracted to 12s4p3d2f pattern {111111111111/1111/111/11}

Atom   0C    basis set group =>   1
Atom   1C    basis set group =>   1
Atom   2C    basis set group =>   1
Atom   3C    basis set group =>   1
Atom   4C    basis set group =>   1
Atom   5C    basis set group =>   1
Atom   6C    basis set group =>   1
Atom   7C    basis set group =>   1
Atom   8C    basis set group =>   1
Atom   9C    basis set group =>   1
Atom  10C    basis set group =>   1
Atom  11C    basis set group =>   1
Atom  12C    basis set group =>   1
Atom  13C    basis set group =>   1
Atom  14C    basis set group =>   1
Atom  15C    basis set group =>   1
Atom  16C    basis set group =>   1
Atom  17C    basis set group =>   1
Atom  18O    basis set group =>   2
Atom  19O    basis set group =>   2
Atom  20O    basis set group =>   2
Atom  21O    basis set group =>   2
Atom  22O    basis set group =>   2
Atom  23C    basis set group =>   1
Atom  24C    basis set group =>   1
Atom  25C    basis set group =>   1
Atom  26C    basis set group =>   1
Atom  27O    basis set group =>   2
Atom  28C    basis set group =>   1
Atom  29C    basis set group =>   1
Atom  30C    basis set group =>   1
Atom  31C    basis set group =>   1
Atom  32C    basis set group =>   1
Atom  33C    basis set group =>   1
Atom  34C    basis set group =>   1
Atom  35C    basis set group =>   1
Atom  36O    basis set group =>   2
Atom  37O    basis set group =>   2
Atom  38O    basis set group =>   2
Atom  39O    basis set group =>   2
Atom  40O    basis set group =>   2
Atom  41C    basis set group =>   1
Atom  42H    basis set group =>   3
Atom  43H    basis set group =>   3
Atom  44H    basis set group =>   3
Atom  45H    basis set group =>   3
Atom  46H    basis set group =>   3
Atom  47H    basis set group =>   3
Atom  48H    basis set group =>   3
Atom  49H    basis set group =>   3
Atom  50H    basis set group =>   3
Atom  51H    basis set group =>   3
Atom  52H    basis set group =>   3
Atom  53H    basis set group =>   3
Atom  54H    basis set group =>   3
Atom  55H    basis set group =>   3
Atom  56H    basis set group =>   3
Atom  57H    basis set group =>   3
Atom  58H    basis set group =>   3
Atom  59H    basis set group =>   3
Atom  60H    basis set group =>   3
Atom  61H    basis set group =>   3
Atom  62H    basis set group =>   3
Atom  63H    basis set group =>   3
Atom  64H    basis set group =>   3
Atom  65H    basis set group =>   3
Atom  66H    basis set group =>   3
Atom  67H    basis set group =>   3
Atom  68H    basis set group =>   3
Atom  69H    basis set group =>   3
Atom  70H    basis set group =>   3
Atom  71H    basis set group =>   3
Atom  72H    basis set group =>   3
Atom  73H    basis set group =>   3
Atom  74H    basis set group =>   3
Atom  75H    basis set group =>   3
Atom  76H    basis set group =>   3
Atom  77H    basis set group =>   3
Atom  78H    basis set group =>   3
Atom  79H    basis set group =>   3
Atom  80H    basis set group =>   3
Atom  81H    basis set group =>   3
---------------------------------
AUXILIARY/X BASIS SET INFORMATION
---------------------------------
There are 3 groups of distinct atoms

 Group   1 Type C   : 15s13p12d5f5g contracted to 15s13p12d5f5g pattern {111111111111111/1111111111111/111111111111/11111/11111}
 Group   2 Type O   : 15s13p12d5f5g contracted to 15s13p12d5f5g pattern {111111111111111/1111111111111/111111111111/11111/11111}
 Group   3 Type H   : 12s4p3d2f contracted to 12s4p3d2f pattern {111111111111/1111/111/11}

Atom   0C    basis set group =>   1
Atom   1C    basis set group =>   1
Atom   2C    basis set group =>   1
Atom   3C    basis set group =>   1
Atom   4C    basis set group =>   1
Atom   5C    basis set group =>   1
Atom   6C    basis set group =>   1
Atom   7C    basis set group =>   1
Atom   8C    basis set group =>   1
Atom   9C    basis set group =>   1
Atom  10C    basis set group =>   1
Atom  11C    basis set group =>   1
Atom  12C    basis set group =>   1
Atom  13C    basis set group =>   1
Atom  14C    basis set group =>   1
Atom  15C    basis set group =>   1
Atom  16C    basis set group =>   1
Atom  17C    basis set group =>   1
Atom  18O    basis set group =>   2
Atom  19O    basis set group =>   2
Atom  20O    basis set group =>   2
Atom  21O    basis set group =>   2
Atom  22O    basis set group =>   2
Atom  23C    basis set group =>   1
Atom  24C    basis set group =>   1
Atom  25C    basis set group =>   1
Atom  26C    basis set group =>   1
Atom  27O    basis set group =>   2
Atom  28C    basis set group =>   1
Atom  29C    basis set group =>   1
Atom  30C    basis set group =>   1
Atom  31C    basis set group =>   1
Atom  32C    basis set group =>   1
Atom  33C    basis set group =>   1
Atom  34C    basis set group =>   1
Atom  35C    basis set group =>   1
Atom  36O    basis set group =>   2
Atom  37O    basis set group =>   2
Atom  38O    basis set group =>   2
Atom  39O    basis set group =>   2
Atom  40O    basis set group =>   2
Atom  41C    basis set group =>   1
Atom  42H    basis set group =>   3
Atom  43H    basis set group =>   3
Atom  44H    basis set group =>   3
Atom  45H    basis set group =>   3
Atom  46H    basis set group =>   3
Atom  47H    basis set group =>   3
Atom  48H    basis set group =>   3
Atom  49H    basis set group =>   3
Atom  50H    basis set group =>   3
Atom  51H    basis set group =>   3
Atom  52H    basis set group =>   3
Atom  53H    basis set group =>   3
Atom  54H    basis set group =>   3
Atom  55H    basis set group =>   3
Atom  56H    basis set group =>   3
Atom  57H    basis set group =>   3
Atom  58H    basis set group =>   3
Atom  59H    basis set group =>   3
Atom  60H    basis set group =>   3
Atom  61H    basis set group =>   3
Atom  62H    basis set group =>   3
Atom  63H    basis set group =>   3
Atom  64H    basis set group =>   3
Atom  65H    basis set group =>   3
Atom  66H    basis set group =>   3
Atom  67H    basis set group =>   3
Atom  68H    basis set group =>   3
Atom  69H    basis set group =>   3
Atom  70H    basis set group =>   3
Atom  71H    basis set group =>   3
Atom  72H    basis set group =>   3
Atom  73H    basis set group =>   3
Atom  74H    basis set group =>   3
Atom  75H    basis set group =>   3
Atom  76H    basis set group =>   3
Atom  77H    basis set group =>   3
Atom  78H    basis set group =>   3
Atom  79H    basis set group =>   3
Atom  80H    basis set group =>   3
Atom  81H    basis set group =>   3
--------------------------------------------------------------------------
WARNING: There was an error initializing an OpenFabrics device.

  Local host:   c08b01n08
  Local device: mlx5_0
--------------------------------------------------------------------------
--------------------------------------------------------------------------
WARNING: There is at least one non-excluded one OpenFabrics device found,
but there are no active ports detected (or Open MPI was unable to use
them).  This is most certainly not what you wanted.  Check your
cables, subnet manager configuration, etc.  The openib BTL will be
ignored for this job.

  Local host: c08b01n08
--------------------------------------------------------------------------


           ************************************************************
           *        Program running with 60 parallel MPI-processes    *
           *              working on a common directory               *
           ************************************************************
[c08b01n08:1520602] 47 more processes have sent help message help-mpi-btl-openib.txt / error in device init
[c08b01n08:1520602] Set MCA parameter "orte_base_help_aggregate" to 0 to see all help / error messages
[c08b01n08:1520602] 11 more processes have sent help message help-mpi-btl-openib.txt / no active ports found
------------------------------------------------------------------------------
                             ORCA STARTUP CALCULATIONS
                           -- RI-GTO INTEGRALS CHOSEN --
------------------------------------------------------------------------------
------------------------------------------------------------------------------
                   ___                                                        
                  /   \      - P O W E R E D   B Y -                         
                 /     \                                                     
                 |  |  |   _    _      __       _____    __    __             
                 |  |  |  | |  | |    /  \     |  _  \  |  |  /  |          
                  \  \/   | |  | |   /    \    | | | |  |  | /  /          
                 / \  \   | |__| |  /  /\  \   | |_| |  |  |/  /          
                |  |  |   |  __  | /  /__\  \  |    /   |      \           
                |  |  |   | |  | | |   __   |  |    \   |  |\   \          
                \     /   | |  | | |  |  |  |  | |\  \  |  | \   \       
                 \___/    |_|  |_| |__|  |__|  |_| \__\ |__|  \__/        
                                                                              
                      - O R C A' S   B I G   F R I E N D -                    
                                      &                                       
                       - I N T E G R A L  F E E D E R -                       
                                                                              
 v1 FN, 2020, v2 2021, v3 2022-2024                                           
------------------------------------------------------------------------------


----------------------
SHARK INTEGRAL PACKAGE
----------------------

Number of atoms                             ...     82
Number of basis functions                   ...   2072
Number of shells                            ...    744
Maximum angular momentum                    ...      3
Integral batch strategy                     ... SHARK/LIBINT Hybrid
RI-J (if used) integral strategy            ... SPLIT-RIJ (Revised 2003 algorithm where possible)
Printlevel                                  ...      1
Contraction scheme used                     ... SEGMENTED contraction
Prescreening option                         ... SCHWARTZ
   Thresh                                   ... 1.000e-10
   Tcut                                     ... 1.000e-11
   Tpresel                                  ... 1.000e-11 
Coulomb Range Separation                    ... NOT USED
Exchange Range Separation                   ... NOT USED
Multipole approximations                    ... NOT USED
Finite Nucleus Model                        ... NOT USED
CABS basis                                  ... NOT available
Auxiliary Coulomb fitting basis             ... AVAILABLE
   # of basis functions in Aux-J            ...  10268
   # of shells in Aux-J                     ...   2940
   Maximum angular momentum in Aux-J        ...      4
Auxiliary J/K fitting basis                 ... AVAILABLE
   # of basis functions in Aux-JK           ...  10268
   # of shells in Aux-JK                    ...   2940
   Maximum angular momentum in Aux-JK       ...      4
Auxiliary Correlation fitting basis         ... AVAILABLE
   # of basis functions in Aux-C            ...  10268
   # of shells in Aux-C                     ...   2940
   Maximum angular momentum in Aux-C        ...      4
Auxiliary 'external' fitting basis          ... NOT available

Checking pre-screening integrals            ... done (  0.0 sec) Dimension = 744
   => SHARK Basis and OBASIS are compatible. Storing Pre-screening
Shell pair information
Shell pair cut-off parameter TPreSel        ...   1.0e-11
Total number of shell pairs                 ...    277140
Shell pairs after pre-screening             ...    154821
Total number of primitive shell pairs       ...    823733
Primitive shell pairs kept                  ...    283900
          la=0 lb=0:  29453 shell pairs
          la=1 lb=0:  51436 shell pairs
          la=1 lb=1:  20915 shell pairs
          la=2 lb=0:  20267 shell pairs
          la=2 lb=1:  15390 shell pairs
          la=2 lb=2:   2750 shell pairs
          la=3 lb=0:   7042 shell pairs
          la=3 lb=1:   5282 shell pairs
          la=3 lb=2:   1910 shell pairs
          la=3 lb=3:    376 shell pairs

Checking whether 4 symmetric matrices of dimension 2072 fit in memory
:Max Core in MB      =   5000.00
 MB in use           =    190.98
 MB left             =   4809.02
 MB needed           =     65.54
 Data fit in memory  = YES
Calculating RI/J V-Matrix + Cholesky decomp.... done (  6.5 sec)
Calculating RI/JK V-Matrix + Cholesky decomp.... done (  4.0 sec)
Calculating RI/C V-Matrix + Cholesky decomp.... done ( 15.9 sec)
Calculating Nuclear repulsion               ... done (  0.0 sec) ENN=   5829.788880919380 Eh

Diagonalization of the overlap matrix:
Smallest eigenvalue                        ... 5.334e-06
Time for diagonalization                   ...    0.739 sec
Threshold for overlap eigenvalues          ... 1.000e-07
Number of eigenvalues below threshold      ... 0
Time for construction of square roots      ...    0.336 sec
Total time needed                          ...    1.106 sec

-------------------
DFT GRID GENERATION
-------------------

General Integration Accuracy     IntAcc      ... 4.388
Radial Grid Type                 RadialGrid  ... OptM3 with GC (2021)
Angular Grid (max. ang.)         AngularGrid ... 4 (Lebedev-302)
Angular grid pruning method      GridPruning ... 4 (adaptive)
Weight generation scheme         WeightScheme... mBecke (2022)
Basis function cutoff            BFCut       ... 1.0000e-10
Integration weight cutoff        WCut        ... 1.0000e-14
Partially contracted basis set               ... off
Rotationally invariant grid construction     ... off
Angular grids for H and He will be reduced by one unit
Diffuse basis detected: some atoms will have their outermost
                        angular grid increased by 1.

Total number of grid points                  ...   376714
Total number of batches                      ...     5931
Average number of points per batch           ...       63
Average number of grid points per atom       ...     4594
Grids setup in   1.8 sec
Initializing property integral containers    ... done (  0.1 sec)

SHARK setup successfully completed in  45.4 seconds

Maximum memory used throughout the entire STARTUP-calculation: 263.1 MB
--------------------------------------------------------------------------
WARNING: There was an error initializing an OpenFabrics device.

  Local host:   c08b01n08
  Local device: mlx5_0
--------------------------------------------------------------------------
--------------------------------------------------------------------------
WARNING: There is at least one non-excluded one OpenFabrics device found,
but there are no active ports detected (or Open MPI was unable to use
them).  This is most certainly not what you wanted.  Check your
cables, subnet manager configuration, etc.  The openib BTL will be
ignored for this job.

  Local host: c08b01n08
--------------------------------------------------------------------------


           ************************************************************
           *        Program running with 60 parallel MPI-processes    *
           *              working on a common directory               *
           ************************************************************
-------------------------------------------------------------------------------
                                 ORCA GUESS
                   Start orbitals & Density for SCF / CASSCF
-------------------------------------------------------------------------------

------------
SCF SETTINGS
------------
Hamiltonian:
 Density Functional     Method          .... DFT(GTOs)
 Exchange Functional    Exchange        .... TPSS
 Correlation Functional Correlation     .... TPSS
 LDA part of GGA corr.  LDAOpt          .... PW91-LDA
 Gradients option       PostSCFGGA      .... off
   NL short-range parameter             ....  5.000000
 RI-approximation to the Coulomb term is turned on
   Number of AuxJ basis functions       .... 10268


General Settings:
 Integral files         IntName         .... nmr-conf-2
 Hartree-Fock type      HFTyp           .... RHF
 Total Charge           Charge          ....    0
 Multiplicity           Mult            ....    1
 Number of Electrons    NEL             ....  314
 Basis Dimension        Dim             .... 2072
 Nuclear Repulsion      ENuc            ....   5829.7888809194 Eh

Convergence Acceleration:
 AO-DIIS                CNVDIIS         .... on
   Start iteration      DIISMaxIt       ....    12
   Startup error        DIISStart       ....  0.200000
   # of expansion vecs  DIISMaxEq       ....     5
   Bias factor          DIISBfac        ....   1.050
   Max. coefficient     DIISMaxC        ....  10.000
 MO-DIIS                CNVKDIIS        .... off
 Trust-Rad. Augm. Hess. CNVTRAH         .... auto
   Auto Start mean grad. ratio tolernc. ....  1.125000
   Auto Start start iteration           ....    50
   Auto Start num. interpolation iter.  ....    10
   Max. Number of Micro iterations      ....    24
   Max. Number of Macro iterations      .... Maxiter - #DIIS iter
   Number of Davidson start vectors     ....     2
   Converg. threshold    (grad. norm)   ....   5.000e-05
   Grad. Scal. Fac. for Micro threshold ....   0.100
   Minimum threshold for Micro iter.    ....   1.000e-02
   NR start threshold (gradient norm)   ....   1.000e-04
   Initial trust radius                 ....   0.400
   Minimum AH scaling param. (alpha)    ....   1.000
   Maximum AH scaling param. (alpha)    .... 1000.000
   Quad. conv. algorithm                .... NR
   White noise on init. David. guess    .... on
   Maximum white noise                  ....   0.010
   Pseudo random numbers                .... off
   Inactive MOs                         .... canonical
   Orbital update algorithm             .... Taylor
   Preconditioner                       .... Diag
   Full preconditioner red. dimension   ....   250
 SOSCF                 CNVSOSCF           .... on
   Start iteration     SOSCFMaxIt         ....   150
   Startup grad/error  SOSCFStart         ....  0.003300
   Hessian update      SOSCFHessUp        .... L-BFGS
   Autom. constraints  SOSCFAutoConstrain .... off
 Level Shifting         CNVShift        .... on
   Level shift para.    LevelShift      ....    0.2500
   Turn off err/grad.   ShiftErr        ....    0.0010
 Zerner damping         CNVZerner       .... off
 Static damping         CNVDamp         .... on
   Fraction old density DampFac         ....    0.7000
   Max. Damping (<1)    DampMax         ....    0.9800
   Min. Damping (>=0)   DampMin         ....    0.0000
   Turn off err/grad.   DampErr         ....    0.1000

SCF Procedure:
 Maximum # iterations   MaxIter         ....   125
 SCF integral mode      SCFMode         .... Direct
   Integral package                     .... SHARK and LIBINT hybrid scheme
 Reset frequency        DirectResetFreq ....    20
 Integral Threshold     Thresh          ....  1.000e-10 Eh
 Primitive CutOff       TCut            ....  1.000e-11 Eh

Convergence Tolerance:
 Convergence Check Mode ConvCheckMode   .... Total+1el-Energy
 Convergence forced     ConvForced      .... 0
 Energy Change          TolE            ....  1.000e-06 Eh
 1-El. energy change                    ....  1.000e-03 Eh
 Orbital Gradient       TolG            ....  5.000e-05
 Orbital Rotation angle TolX            ....  5.000e-05
 DIIS Error             TolErr          ....  1.000e-06

------------------------------
INITIAL GUESS: MODEL POTENTIAL
------------------------------
Loading Hartree-Fock densities                     ... done
Calculating cut-offs                               ... done
Initializing the effective Hamiltonian             ... done
Setting up the integral package (SHARK)            ... done
Starting the Coulomb interaction                   ... done (   0.9 sec)
Making the grid                                    ... done (   0.4 sec)
Mapping shells                                     ... done
Starting the XC term evaluation                    ... done (   0.1 sec)
  promolecular density results
     # of electrons  =    313.987924388
     EX              =   -260.304516197
     EC              =    -10.645989549
     EX+EC           =   -270.950505746
Transforming the Hamiltonian                       ... done (   0.3 sec)
Diagonalizing the Hamiltonian                      ... [c08b01n08:1521013] 50 more processes have sent help message help-mpi-btl-openib.txt / error in device init
[c08b01n08:1521013] Set MCA parameter "orte_base_help_aggregate" to 0 to see all help / error messages
[c08b01n08:1521013] 8 more processes have sent help message help-mpi-btl-openib.txt / no active ports found
done (   0.5 sec)
Back transforming the eigenvectors                 ... done (   0.3 sec)
Now organizing SCF variables                       ... done
                      ------------------
                      INITIAL GUESS DONE (   3.2 sec)
                      ------------------
             **** ENERGY FILE WAS UPDATED (nmr-conf-2.en.tmp) ****
Finished Guess after  15.1 sec
Maximum memory used throughout the entire GUESS-calculation: 295.8 MB
--------------------------------------------------------------------------
WARNING: There was an error initializing an OpenFabrics device.

  Local host:   c08b01n08
  Local device: mlx5_0
--------------------------------------------------------------------------
--------------------------------------------------------------------------
WARNING: There is at least one non-excluded one OpenFabrics device found,
but there are no active ports detected (or Open MPI was unable to use
them).  This is most certainly not what you wanted.  Check your
cables, subnet manager configuration, etc.  The openib BTL will be
ignored for this job.

  Local host: c08b01n08
--------------------------------------------------------------------------


           ************************************************************
           *        Program running with 60 parallel MPI-processes    *
           *              working on a common directory               *
           ************************************************************

-------------------------------------------------------------------------------------------
                                      ORCA LEAN-SCF
                              memory conserving SCF solver
-------------------------------------------------------------------------------------------

--------------------
CPCM SOLVATION MODEL
--------------------
CPCM parameters:
  Epsilon                                         ...      33.4280
  Refrac                                          ...       1.3288
  Rsolv                                           ...       1.3000
  Surface type                                    ... GAUSSIAN VDW
  Discretization scheme                           ... Constant charge density
    Threshold for H atoms                         ...       5.0000 (charges/Ang^2)
    Threshold for non-H atoms                     ...       5.0000 (charges/Ang^2)
  Epsilon function type                           ...         CPCM
Solvent:                                          ... METHANOL
Radii:
  Scheme                                          ... Element-dependent radii
  Radius for C  used is    3.8550 Bohr (=   2.0400 Ang.)
  Radius for O  used is    3.4469 Bohr (=   1.8240 Ang.)
  Radius for H  used is    2.4944 Bohr (=   1.3200 Ang.)
Calculating surface                               ...        done! (  0.0s)
Cavity surface points                             ...         6072
Cavity Volume                                     ...    4510.2146
Cavity Surface-area                               ...    1993.6641
Calculating surface distance matrix               ...        done! (  0.2s)
Performing Cholesky decomposition & store         ...        done! (  0.7s)
Overall time for CPCM initialization              ...                 0.9s

----------------------------------------D-I-I-S--------------------------------------------
Iteration    Energy (Eh)           Delta-E    RMSDP     MaxDP     DIISErr   Damp  Time(sec)
-------------------------------------------------------------------------------------------
               ***  Starting incremental Fock matrix formation  ***
[c08b01n08:1521413] 52 more processes have sent help message help-mpi-btl-openib.txt / error in device init
[c08b01n08:1521413] Set MCA parameter "orte_base_help_aggregate" to 0 to see all help / error messages
[c08b01n08:1521413] 6 more processes have sent help message help-mpi-btl-openib.txt / no active ports found
    1    -2033.0105439904082232     0.00e+00  8.13e-03  2.68e-01  2.39e-01  0.700   8.8
    2    -2033.4208130821934901    -4.10e-01  6.78e-03  2.14e-01  8.47e-02  0.700  10.1
                               ***Turning on AO-DIIS***
    3    -2033.5731370518833501    -1.52e-01  2.87e-03  6.92e-02  2.39e-02  0.700   7.6
    4    -2033.6652319079348672    -9.21e-02  4.96e-03  8.96e-02  1.12e-02  0.000   8.0
    5    -2033.8696801653668444    -2.04e-01  1.42e-03  4.76e-02  5.06e-03  0.000   7.1
                              *** Initializing SOSCF ***
---------------------------------------S-O-S-C-F--------------------------------------
Iteration    Energy (Eh)           Delta-E    RMSDP     MaxDP     MaxGrad    Time(sec)
--------------------------------------------------------------------------------------
    6    -2033.8710402555589098    -1.36e-03  4.52e-04  1.11e-02  1.53e-03     8.0
               *** Restarting incremental Fock matrix formation ***
    7    -2033.8711560042211204    -1.16e-04  3.40e-04  9.02e-03  1.35e-04     7.3
    8    -2033.8711296714700438     2.63e-05  8.19e-05  3.11e-03  7.04e-04     6.2
    9    -2033.8711712152326072    -4.15e-05  7.63e-05  1.24e-03  1.48e-04     6.4
   10    -2033.8711707255079091     4.90e-07  2.76e-05  7.19e-04  1.52e-04     6.7
                 **** Energy Check signals convergence ****

               *****************************************************
               *                     SUCCESS                       *
               *           SCF CONVERGED AFTER  10 CYCLES          *
               *****************************************************

             **** ENERGY FILE WAS UPDATED (nmr-conf-2.en.tmp) ****

----------------
TOTAL SCF ENERGY
----------------

Total Energy       :      -2033.87117153709460 Eh          -55344.44823 eV

Components:
Nuclear Repulsion  :       5829.78888091938006 Eh          158636.62038 eV
Electronic Energy  :      -7863.61364304279050 Eh         -213979.80575 eV
One Electron Energy:     -14388.90679812867165 Eh         -391542.05959 eV
Two Electron Energy:       6525.29315508588115 Eh          177562.25384 eV
CPCM Dielectric    :         -0.04640941368391 Eh              -1.26286 eV

Virial components:
Potential Energy   :      -4061.13690005181434 Eh         -110509.15323 eV
Kinetic Energy     :       2027.26572851471997 Eh           55164.70499 eV
Virial Ratio       :          2.00325830152874

DFT components:
N(Alpha)           :      157.000171038905 electrons
N(Beta)            :      157.000171038905 electrons
N(Total)           :      314.000342077810 electrons
E(X)               :     -268.093227847709 Eh       
E(C)               :      -10.608451163434 Eh       
E(XC)              :     -278.701679011143 Eh       

CPCM Solvation Model Properties:
Surface-charge          :         -0.04276517028932
Corrected charge        :          0.00000000000000
Outlying charge corr.   :          0.00007972755806 Eh               0.00217 eV
Free-energy (cav+disp)  :  This term is not implemented in the current solvation scheme

---------------
SCF CONVERGENCE
---------------

  Last Energy change         ...   -4.8972e-07  Tolerance :   1.0000e-06
  Last MAX-Density change    ...    7.1875e-04  Tolerance :   1.0000e-05
  Last RMS-Density change    ...    2.7610e-05  Tolerance :   1.0000e-06
  Last DIIS Error            ...    1.5332e-03  Tolerance :   1.0000e-06
  Last Orbital Gradient      ...    1.5211e-04  Tolerance :   5.0000e-05
  Last Orbital Rotation      ...    2.9767e-04  Tolerance :   5.0000e-05


----------------
ORBITAL ENERGIES
----------------

  NO   OCC          E(Eh)            E(eV) 
   0   2.0000     -18.918048      -514.7863 
   1   2.0000     -18.917481      -514.7708 
   2   2.0000     -18.911193      -514.5997 
   3   2.0000     -18.907516      -514.4997 
   4   2.0000     -18.906279      -514.4660 
   5   2.0000     -18.903167      -514.3813 
   6   2.0000     -18.895976      -514.1856 
   7   2.0000     -18.891029      -514.0510 
   8   2.0000     -18.886022      -513.9148 
   9   2.0000     -18.885120      -513.8902 
  10   2.0000     -18.864099      -513.3182 
  11   2.0000     -10.044047      -273.3124 
  12   2.0000     -10.043663      -273.3020 
  13   2.0000     -10.042650      -273.2744 
  14   2.0000     -10.041186      -273.2346 
  15   2.0000     -10.039509      -273.1889 
  16   2.0000     -10.038101      -273.1506 
  17   2.0000     -10.037101      -273.1234 
  18   2.0000     -10.037039      -273.1217 
  19   2.0000     -10.036150      -273.0975 
  20   2.0000     -10.034311      -273.0475 
  21   2.0000     -10.034100      -273.0417 
  22   2.0000     -10.031894      -272.9817 
  23   2.0000     -10.031624      -272.9744 
  24   2.0000     -10.030700      -272.9492 
  25   2.0000     -10.029842      -272.9259 
  26   2.0000     -10.020569      -272.6735 
  27   2.0000      -9.986878      -271.7568 
  28   2.0000      -9.986450      -271.7451 
  29   2.0000      -9.985071      -271.7076 
  30   2.0000      -9.983967      -271.6775 
  31   2.0000      -9.983806      -271.6732 
  32   2.0000      -9.983707      -271.6705 
  33   2.0000      -9.981531      -271.6113 
  34   2.0000      -9.981394      -271.6075 
  35   2.0000      -9.981343      -271.6062 
  36   2.0000      -9.980533      -271.5841 
  37   2.0000      -9.978894      -271.5395 
  38   2.0000      -9.977668      -271.5061 
  39   2.0000      -9.975623      -271.4505 
  40   2.0000      -9.971945      -271.3504 
  41   2.0000      -9.970065      -271.2993 
  42   2.0000      -1.011842       -27.5336 
  43   2.0000      -1.007772       -27.4229 
  44   2.0000      -1.004093       -27.3228 
  45   2.0000      -0.994179       -27.0530 
  46   2.0000      -0.984563       -26.7913 
  47   2.0000      -0.981866       -26.7179 
  48   2.0000      -0.973918       -26.5017 
  49   2.0000      -0.961965       -26.1764 
  50   2.0000      -0.958951       -26.0944 
  51   2.0000      -0.954031       -25.9605 
  52   2.0000      -0.937068       -25.4989 
  53   2.0000      -0.795803       -21.6549 
  54   2.0000      -0.794829       -21.6284 
  55   2.0000      -0.789818       -21.4920 
  56   2.0000      -0.757601       -20.6154 
  57   2.0000      -0.735035       -20.0013 
  58   2.0000      -0.715639       -19.4735 
  59   2.0000      -0.701506       -19.0890 
  60   2.0000      -0.698464       -19.0062 
  61   2.0000      -0.695328       -18.9208 
  62   2.0000      -0.693123       -18.8608 
  63   2.0000      -0.685488       -18.6531 
  64   2.0000      -0.669656       -18.2223 
  65   2.0000      -0.649384       -17.6706 
  66   2.0000      -0.646618       -17.5954 
  67   2.0000      -0.645409       -17.5625 
  68   2.0000      -0.641434       -17.4543 
  69   2.0000      -0.620841       -16.8939 
  70   2.0000      -0.618230       -16.8229 
  71   2.0000      -0.609674       -16.5901 
  72   2.0000      -0.578096       -15.7308 
  73   2.0000      -0.565150       -15.3785 
  74   2.0000      -0.560244       -15.2450 
  75   2.0000      -0.554813       -15.0972 
  76   2.0000      -0.547507       -14.8984 
  77   2.0000      -0.542310       -14.7570 
  78   2.0000      -0.534561       -14.5461 
  79   2.0000      -0.528831       -14.3902 
  80   2.0000      -0.510486       -13.8910 
  81   2.0000      -0.509260       -13.8577 
  82   2.0000      -0.502210       -13.6658 
  83   2.0000      -0.501223       -13.6390 
  84   2.0000      -0.485449       -13.2097 
  85   2.0000      -0.476673       -12.9709 
  86   2.0000      -0.473286       -12.8788 
  87   2.0000      -0.464998       -12.6532 
  88   2.0000      -0.460556       -12.5324 
  89   2.0000      -0.456855       -12.4317 
  90   2.0000      -0.450713       -12.2645 
  91   2.0000      -0.447051       -12.1649 
  92   2.0000      -0.444377       -12.0921 
  93   2.0000      -0.443388       -12.0652 
  94   2.0000      -0.437577       -11.9071 
  95   2.0000      -0.437098       -11.8940 
  96   2.0000      -0.428031       -11.6473 
  97   2.0000      -0.423691       -11.5292 
  98   2.0000      -0.421257       -11.4630 
  99   2.0000      -0.420208       -11.4344 
 100   2.0000      -0.416941       -11.3455 
 101   2.0000      -0.415439       -11.3047 
 102   2.0000      -0.409457       -11.1419 
 103   2.0000      -0.402128       -10.9424 
 104   2.0000      -0.401187       -10.9169 
 105   2.0000      -0.399681       -10.8759 
 106   2.0000      -0.396289       -10.7836 
 107   2.0000      -0.391320       -10.6484 
 108   2.0000      -0.382318       -10.4034 
 109   2.0000      -0.381546       -10.3824 
 110   2.0000      -0.381011       -10.3678 
 111   2.0000      -0.380718       -10.3599 
 112   2.0000      -0.377443       -10.2707 
 113   2.0000      -0.375912       -10.2291 
 114   2.0000      -0.372973       -10.1491 
 115   2.0000      -0.369907       -10.0657 
 116   2.0000      -0.365401        -9.9431 
 117   2.0000      -0.357401        -9.7254 
[...]
 
 sDSO           -67.619           36.573           62.703  iso=      10.553
 sPSO            91.612          -10.653          -29.666  iso=      17.097
        ---------------  ---------------  ---------------
 Total           23.993           25.920           33.037  iso=      27.650

 Orientation: 
  X          -0.2481846    0.8860151   -0.3916396
  Y           0.7185644    0.4395174    0.5389710
  Z          -0.6496689    0.1476540    0.7457403

 --------------
 Nucleus  73H :
 --------------

Diamagnetic contribution to the shielding tensor (ppm) : 
            46.559         27.008        -4.228
            11.095         62.629         3.729
           -56.610         83.163       -38.970

Paramagnetic contribution to the shielding tensor (ppm): 
           -22.330        -25.872         4.771
            -8.624        -30.963        -6.889
            56.417        -83.685        67.803

Total shielding tensor (ppm): 
            24.229          1.137         0.543
             2.471         31.666        -3.160
            -0.193         -0.522        28.833


 Diagonalized sT*s matrix:
 
 sDSO            45.800            1.597           22.822  iso=      23.406
 sPSO           -22.054           26.536           10.028  iso=       4.837
        ---------------  ---------------  ---------------
 Total           23.746           28.133           32.850  iso=      28.243

 Orientation: 
  X           0.9600423    0.2035105   -0.1920998
  Y          -0.2588782    0.3850664   -0.8858363
  Z          -0.1063058    0.9001707    0.4223645

 --------------
 Nucleus  74H :
 --------------

Diamagnetic contribution to the shielding tensor (ppm) : 
            61.325         25.559        10.926
            25.915         40.075         7.884
           -67.490        127.837        23.555

Paramagnetic contribution to the shielding tensor (ppm): 
           -35.308        -25.253        -8.850
           -23.638        -15.062        -5.787
            69.527       -124.808        10.075

Total shielding tensor (ppm): 
            26.017          0.306         2.077
             2.277         25.013         2.097
             2.036          3.029        33.630


 Diagonalized sT*s matrix:
 
 sDSO             1.580           71.194           52.181  iso=      41.652
 sPSO            22.404          -45.462          -17.237  iso=     -13.432
        ---------------  ---------------  ---------------
 Total           23.984           25.732           34.943  iso=      28.220

 Orientation: 
  X           0.4010275    0.8792716    0.2570182
  Y          -0.9024111    0.3309200    0.2759459
  Z           0.1575789   -0.3425980    0.9261725

 --------------
 Nucleus  75H :
 --------------

Diamagnetic contribution to the shielding tensor (ppm) : 
            47.740        -93.137        40.258
             6.476        -43.265         5.158
            55.040         -3.970      -120.772

Paramagnetic contribution to the shielding tensor (ppm): 
           -15.667         91.424       -33.264
            -9.578         69.554       -10.023
           -45.657         -1.991       152.366

Total shielding tensor (ppm): 
            32.074         -1.713         6.994
            -3.101         26.289        -4.865
             9.383         -5.961        31.593


 Diagonalized sT*s matrix:
 
 sDSO           -71.135          -68.374           23.213  iso=     -38.766
 sPSO            93.013           94.476           18.763  iso=      68.751
        ---------------  ---------------  ---------------
 Total           21.878           26.102           41.976  iso=      29.985

 Orientation: 
  X          -0.3931127    0.6374765    0.6626357
  Y           0.6053562    0.7218705   -0.3353310
  Z           0.6921028   -0.2693078    0.6696768

 --------------
 Nucleus  76H :
 --------------

Diamagnetic contribution to the shielding tensor (ppm) : 
           -22.562         45.553       -37.636
           -27.180         62.543       -31.197
            31.859        -75.854        80.576

Paramagnetic contribution to the shielding tensor (ppm): 
            49.115        -43.805        38.733
            27.731        -36.859        22.987
           -30.605         67.919       -44.452

Total shielding tensor (ppm): 
            26.553          1.748         1.097
             0.551         25.684        -8.209
             1.254         -7.935        36.124


 Diagonalized sT*s matrix:
 
 sDSO            14.557          -14.396          120.396  iso=      40.186
 sPSO             6.300           41.366          -79.862  iso=     -10.732
        ---------------  ---------------  ---------------
 Total           20.857           26.971           40.534  iso=      29.454

 Orientation: 
  X          -0.2762808    0.9602384    0.0401380
  Y           0.8411862    0.2618043   -0.4731429
  Z           0.4648383    0.0969568    0.8800709

 --------------
 Nucleus  77H :
 --------------

Diamagnetic contribution to the shielding tensor (ppm) : 
            -0.425         55.465       -12.380
           -15.667         67.242        -0.548
            10.696        -41.041        60.016

Paramagnetic contribution to the shielding tensor (ppm): 
            20.661        -54.650         4.511
            16.043        -43.565         6.297
           -18.765         48.131       -23.450

Total shielding tensor (ppm): 
            20.237          0.815        -7.869
             0.376         23.677         5.749
            -8.069          7.090        36.566


 Diagonalized sT*s matrix:
 
 sDSO            15.564           72.363           38.907  iso=      42.278
 sPSO             0.103          -49.216            2.758  iso=     -15.452
        ---------------  ---------------  ---------------
 Total           15.667           23.148           41.665  iso=      26.826

 Orientation: 
  X          -0.8080946    0.4899558   -0.3269962
  Y           0.3946158    0.8624258    0.3170176
  Z          -0.4373345   -0.1271423    0.8902659

 --------------
 Nucleus  78H :
 --------------

Diamagnetic contribution to the shielding tensor (ppm) : 
           -48.293         36.550       -42.866
           -49.168         64.929       -26.883
            69.804        -62.671        30.983

Paramagnetic contribution to the shielding tensor (ppm): 
            70.124        -30.760        39.152
            54.326        -33.690        29.997
           -74.211         64.784        -6.490

Total shielding tensor (ppm): 
            21.831          5.790        -3.713
             5.159         31.239         3.114
            -4.406          2.112        24.493


 Diagonalized sT*s matrix:
 
 sDSO            20.459           -9.293           36.453  iso=      15.873
 sPSO            -3.996           36.581           -2.642  iso=       9.981
        ---------------  ---------------  ---------------
 Total           16.462           27.289           33.812  iso=      25.854

 Orientation: 
  X          -0.7703192   -0.5089546   -0.3841530
  Y           0.3768378    0.1226340   -0.9181253
  Z          -0.5143944    0.8520130   -0.0973261

 --------------
 Nucleus  79H :
 --------------

Diamagnetic contribution to the shielding tensor (ppm) : 
           -34.655          3.389       -37.161
           -58.653         52.081       -35.131
           -35.798         26.139       -58.858

Paramagnetic contribution to the shielding tensor (ppm): 
            58.483         -3.444        38.746
            57.879        -24.011        36.962
            37.358        -27.889        91.114

Total shielding tensor (ppm): 
            23.828         -0.055         1.585
            -0.775         28.070         1.832
             1.560         -1.750        32.256


 Diagonalized sT*s matrix:
 
 sDSO           -27.613           56.095          -69.914  iso=     -13.811
 sPSO            51.120          -27.985          102.451  iso=      41.862
        ---------------  ---------------  ---------------
 Total           23.507           28.110           32.537  iso=      28.051

 Orientation: 
  X          -0.9799183   -0.0947607    0.1754437
  Y          -0.1024507    0.9941121   -0.0352848
  Z           0.1710671    0.0525506    0.9838569

 --------------
 Nucleus  80H :
 --------------

Diamagnetic contribution to the shielding tensor (ppm) : 
           -49.055        -56.519       -27.271
           -77.200          4.215       -34.864
            -1.163        -17.309      -126.155

Paramagnetic contribution to the shielding tensor (ppm): 
            76.673         52.634        26.906
            72.193         27.350        35.508
             0.017         16.164       151.391

Total shielding tensor (ppm): 
            27.617         -3.885        -0.366
            -5.007         31.565         0.644
            -1.145         -1.144        25.236


 Diagonalized sT*s matrix:
 
 sDSO          -130.665          -88.816           48.486  iso=     -56.998
 sPSO           154.835          114.606          -14.027  iso=      85.138
        ---------------  ---------------  ---------------
 Total           24.170           25.790           34.459  iso=      28.139

 Orientation: 
  X          -0.6760835   -0.4860276   -0.5537945
  Y          -0.4271210   -0.3539210    0.8320502
  Z          -0.6003988    0.7990727    0.0316876

 --------------
 Nucleus  81H :
 --------------

Diamagnetic contribution to the shielding tensor (ppm) : 
           -58.066         21.580       -34.759
           -59.033         54.108       -30.467
            10.095        -22.776       -54.830

Paramagnetic contribution to the shielding tensor (ppm): 
            82.809        -20.322        33.744
            61.995        -21.202        30.585
           -10.261         23.489        80.260

Total shielding tensor (ppm): 
            24.742          1.258        -1.015
             2.962         32.906         0.118
            -0.165          0.714        25.431


 Diagonalized sT*s matrix:
 
 sDSO           -47.034          -48.264           36.509  iso=     -19.596
 sPSO            70.963           73.988           -3.084  iso=      47.289
        ---------------  ---------------  ---------------
 Total           23.929           25.724           33.425  iso=      27.693

 Orientation: 
  X          -0.8817717   -0.4009393   -0.2484478
  Y           0.2378003    0.0770083   -0.9682566
  Z          -0.4073446    0.9128622   -0.0274397



--------------------------------
CHEMICAL SHIELDING SUMMARY (ppm)
--------------------------------


  Nucleus  Element    Isotropic     Anisotropy
  -------  -------  ------------   ------------
      0       C           28.431        122.691 
      1       C           46.081        104.786 
      2       C           27.990        119.285 
      3       C           76.131        143.630 
      4       C           45.614        190.178 
      5       C           75.920        130.996 
      6       C          139.794         20.233 
      7       C          133.283         13.722 
      8       C          135.184         23.463 
      9       C          142.033         23.611 
     10       C           44.377        185.864 
     11       C           68.995        154.414 
     12       C           29.432        120.309 
     13       C           32.310        123.381 
     14       C           64.929        142.830 
     15       C           58.300        146.817 
     16       C          111.936         65.229 
     17       C          109.561         67.424 
     23       C           96.304         37.713 
     24       C           98.990         37.997 
     25       C           44.638        176.302 
     26       C          111.200         58.540 
     28       C           69.216        149.734 
     29       C           32.381        119.727 
     30       C           30.654        126.276 
     31       C           67.556        146.656 
     32       C           60.572        177.781 
     33       C          124.049         76.400 
     34       C          126.368         72.872 
     35       C          125.009         74.175 
     41       C          124.108         77.739 
     42       H           26.435          8.613 
     43       H           25.585          8.251 
     44       H           29.177          6.244 
     45       H           29.346          4.314 
     46       H           30.222          6.706 
     47       H           29.807          7.728 
     48       H           30.015          7.113 
     49       H           29.531          7.469 
     50       H           25.676          8.925 
     51       H           25.057          3.825 
     52       H           25.287          5.568 
     53       H           27.681          7.080 
     54       H           27.488          6.191 
     55       H           27.711          5.493 
     56       H           28.104          5.667 
     57       H           24.266         23.720 
     58       H           25.691          4.780 
     59       H           27.209          3.776 
     60       H           27.484          5.832 
     61       H           27.700          6.698 
     62       H           26.960         22.710 
     63       H           24.988          6.910 
     64       H           24.914          3.577 
     65       H           24.540          5.869 
     66       H           27.668          7.885 
     67       H           27.965          8.077 
     68       H           27.527          9.549 
     69       H           28.401          6.285 
     70       H           28.679          7.490 
     71       H           27.809          8.731 
     72       H           27.650          8.080 
     73       H           28.243          6.910 
     74       H           28.220         10.085 
     75       H           29.985         17.986 
     76       H           29.454         16.620 
     77       H           26.826         22.257 
     78       H           25.854         11.936 
     79       H           28.051          6.728 
     80       H           28.139          9.479 
     81       H           27.693          8.599 


NMR shielding tensor and spin rotation calculation done in   3.2 sec 

Maximum memory used throughout the entire PROP-calculation: 372.0 MB
--------------------------------------------------------------------------
WARNING: There was an error initializing an OpenFabrics device.

  Local host:   c08b01n08
  Local device: mlx5_0
--------------------------------------------------------------------------
--------------------------------------------------------------------------
WARNING: There is at least one non-excluded one OpenFabrics device found,
but there are no active ports detected (or Open MPI was unable to use
them).  This is most certainly not what you wanted.  Check your
cables, subnet manager configuration, etc.  The openib BTL will be
ignored for this job.

  Local host: c08b01n08
--------------------------------------------------------------------------
[c08b01n08:1523218] 51 more processes have sent help message help-mpi-btl-openib.txt / error in device init
[c08b01n08:1523218] Set MCA parameter "orte_base_help_aggregate" to 0 to see all help / error messages
[c08b01n08:1523218] 7 more processes have sent help message help-mpi-btl-openib.txt / no active ports found

--------------------------------
SUGGESTED CITATIONS FOR THIS RUN
--------------------------------

Below you find a list of papers that are relevant to this ORCA run
We neither can nor want to force you to cite these papers, but we appreciate if you do
You receive ORCA, which is the product of decades of hard work by many enthusiastic individuals, for free
The only thing we kindly ask in return is that you cite our papers,
We deeply appreciate it, if you show your appreciation for ORCA by not just citing the generic ORCA reference.

Please note that relegating all ORCA citations to the supporting information does *not* help us.
SI sections are not indexed - citations you put there will not count into any citation statistics
But we need these citations in order to attract the funding resources that allow us to do what we are doing

Therefore, if you are a happy ORCA user, please consider citing a few of the papers listed below in the main body of your paper

In addition to the list printed below, the program has created the file nmr-conf-2.bibtex that contains the list in bibtex format
You can import this file easily into all common literature databanks and citation aid programs


List of essential papers. We consider these as the minimum necessary citations

  1. Neese, F.
     Software update: the ORCA program system, version 6.0
     WIRES Comput. Molec. Sci. 2025 15(1), e70019
     doi.org/10.1002/wcms.7019

List of papers to cite with high priority. The work reported in these papers was absolutely
necessary for this run to complete.
Our perspective: the developers of density functionals and basis sets usually get cited in chemistry papers
Good! But without the algorithms to do something with them, the functionals or basis sets would not do anything.
Hence, in our opinion, the algorithm design and method developments papers are equally worthy of getting cited

  1. Neese, F.
     An improvement of the resolution of the identity approximation for the formation of the Coulomb matrix
     J. Comp. Chem. 2003 24(14), 1740-1747
     doi.org/10.1002/jcc.10318
  2. Stoychev, G.L.; Auer, A.A.; Neese, F.
     Automatic Generation of Auxiliary Basis Sets
     J. Theo. Comp. Chem. 2017 13 , 554-562
     doi.org/10.1021/acs.jctc.6b01041
  3. Stoychev, G.L.; Auer, A.A.; Izsak, R.; Neese, F.
     Self-Consistent Field Calculation of Nuclear Magnetic Resonance Chemical Shielding Constants Using Gauge-Including Atomic Orbitals and Approximate Two-Electron Integrals
     J. Chem. Theory Comput. 2018 14(2), 619-637
     doi.org/10.1021/acs.jctc.7b01006
  4. Garcia-Rates, M.; Neese, F.
     Effect of the Solute Cavity on the Solvation Energy and its Derivatives within the Framework of the Gaussian Charge Scheme
     J. Comput. Chem. 2020 41 , 922-939
     doi.org/10.1002/jcc.26139
  5. Neese, F.
     The SHARK Integral Generation and Digestion System
     J. Comp. Chem. 2022 44(3), 381
     doi.org/10.1002/jcc.26942

List of suggested additional citations. These are papers that are important in the 'surrounding' of 
of this run, or papers that preceded the highly important papers. If you like your results we are grateful for a citation.

  1. Neese, F.
     The ORCA program system
     WIRES Comput. Molec. Sci. 2012 2(1), 73-78
     doi.org/10.1002/wcms.81
  2. Neese, F.
     Software update: the ORCA program system, version 4.0
     WIRES Comput. Molec. Sci. 2018 8(1), 1-6
     doi.org/10.1002/wcms.1327
  3. Neese, F.; Wennmohs, F.; Becker, U.; Riplinger, C.
     The ORCA quantum chemistry program package
     J. Chem. Phys. 2020 152(22), 224108
     doi.org/10.1063/5.0004608
  4. Neese, F.
     Software update: The ORCA program system—Version 5.0
     WIRES Comput. Molec. Sci. 2022 12(1), e1606
     doi.org/10.1002/wcms.1606

List of optional additional citations

  1. Neese, F.
     Approximate second-order SCF convergence for spin unrestricted wavefunctions
     Chem. Phys. Lett. 2000 325(1-3), 93-98
     doi.org/10.1016/s0009-2614(00)00662-x

Timings for individual modules:

Sum of individual times          ...      285.026 sec (=   4.750 min)
Startup calculation              ...       95.199 sec (=   1.587 min)  33.4 %
SCF iterations                   ...      113.811 sec (=   1.897 min)  39.9 %
Property integrals               ...       51.641 sec (=   0.861 min)  18.1 %
SCF Response                     ...       15.793 sec (=   0.263 min)   5.5 %
Property calculations            ...        8.582 sec (=   0.143 min)   3.0 %
                             ****ORCA TERMINATED NORMALLY****
TOTAL RUN TIME: 0 days 0 hours 5 minutes 9 seconds 818 msec
