
                                 *****************
                                 * O   R   C   A *
                                 *****************

                                            #,                                       
                                            ###                                      
                                            ####                                     
                                            #####                                    
                                            ######                                   
                                           ########,                                 
                                     ,,################,,,,,                         
                               ,,#################################,,                 
                          ,,##########################################,,             
                       ,#########################################, ''#####,          
                    ,#############################################,,   '####,        
                  ,##################################################,,,,####,       
                ,###########''''           ''''###############################       
              ,#####''   ,,,,##########,,,,          '''####'''          '####       
            ,##' ,,,,###########################,,,                        '##       
           ' ,,###''''                  '''############,,,                           
         ,,##''                                '''############,,,,        ,,,,,,###''
      ,#''                                            '''#######################'''  
     '                                                          ''''####''''         
             ,#######,   #######,   ,#######,      ##                                
            ,#'     '#,  ##    ##  ,#'     '#,    #''#        ,####,    ,#,          
            ##       ##  ##   ,#'  ##            #'  '#       #'       ,# #          
            ##       ##  #######   ##           ,######,      #####,      #          
            '#,     ,#'  ##    ##  '#,     ,#' ,#      #,     #,   #      #          
             '#######'   ##     ##  '#######'  #'      '#     '####' #    #          



                #########################################################
                #                        -***-                          #
                #          Department of theory and spectroscopy        #
                #                                                       #
                #                      Frank Neese                      #
                #                                                       #
                #     Directorship, Architecture, Infrastructure        #
                #                    SHARK, DRIVERS                     #
                #        Core code/Algorithms in most modules           #
                #                                                       #
                #        Max Planck Institute fuer Kohlenforschung      #
                #                Kaiser Wilhelm Platz 1                 #
                #                 D-45470 Muelheim/Ruhr                 #
                #                      Germany                          #
                #                                                       #
                #                  All rights reserved                  #
                #                        -***-                          #
                #########################################################


                         Program Version 6.1.0-f.0  -   RELEASE   -


 With contributions from (in alphabetic order):
[Max-Planck-Institut fuer Kohlenforschung]                               
  Daniel Aravena         : Magnetic Suceptibility                        
  Michael Atanasov       : Ab Initio Ligand Field Theory (pilot matlab implementation)
  Alexander A. Auer      : GIAO ZORA, VPT2 properties, NMR spectrum      
  Ute Becker             : All parallelization in ORCA, NUMFREQ, NUMCALC 
  Giovanni Bistoni       : ED, misc. LED, open-shell LED, HFLD           
  Dmytro Bykov           : pre 5.0 version of the SCF Hessian            
  Marcos Casanova-Páez   : Triplet and SCS-CIS(D). UHF-(DLPNO)-IP/EA/STEOM-CCSD. UHF-CVS-IP/STEOM-CCSD   
  Vijay G. Chilkuri      : MRCI spin determinant printing, contributions to CSF-ICE 
  Pauline Colinet        : FMM embedding                                 
  Dipayan Datta          : RHF DLPNO-CCSD density                        
  Achintya Kumar Dutta   : EOM-CC, STEOM-CC                              
  Nicolas Foglia         : Exact transition moments, OPA infrastructure, MCD improvements    
  Dmitry Ganyushin       : Spin-Orbit,Spin-Spin,Magnetic field MRCI      
  Miquel Garcia-Rates    : C-PCM and meta-GGA Hessian, CCSD/C-PCM, Gaussian charge scheme 
  Tiago L. C. Gouveia    : GS-ROHF, GS-ROCIS                             
  Yang Guo               : DLPNO-NEVPT2, F12-NEVPT2, CIM, IAO-localization        
  Andreas Hansen         : Spin unrestricted coupled pair/coupled cluster methods 
  Ingolf Harden          : AUTO-CI MPn and infrastructure                
  Benjamin Helmich-Paris : MC-RPA, TRAH-(SCF,CASSCF), AVAS, COSX integrals, SCF dyn. polar., MC-PDFT, srDFT 
  Lee Huntington         : MR-EOM, pCC                                   
  Robert Izsak           : Overlap fitted RIJCOSX, COSX-SCS-MP3, EOM     
  Riya Kayal             : Wick's Theorem for AUTO-CI, AUTO-CI UHF-CCSDT 
  Emily Kempfer          : AUTO-CI RHF CISDT and CCSDT, approximate NEVPT4
  Christian Kollmar      : KDIIS, OOCD, Brueckner-CCSD(T), CCSD density, CASPT2, CASPT2-K, improved NEVPT2 
  Axel Koslowski         : Symmetry handling                             
  Simone Kossmann        : meta-GGA functionals, TD-DFT gradient, OOMP2, (MP2 Hessian; deprecated post 5.0) 
  Lucas Lang             : DCDCAS, Hyperfine gauge corrections, ICE-SOC+SSC
  Marvin Lechner         : AUTO-CI (C++ implementation), FIC-MRCC        
  Spencer Leger          : CASSCF response                               
  Dagmar Lenk            : GEPOL surface, SMD, ORCA-2-JSON               
  Dimitrios Liakos       : Extrapolation schemes; Compound Job, Property file
  Dimitrios Manganas     : Further ROCIS development; embedding schemes. LFT, Crystal Embedding 
  Dimitrios Pantazis     : SARC Basis sets                               
  Anastasios Papadopoulos: AUTO-CI, single reference methods and gradients 
  Taras Petrenko         : pre 6.0 DFT Hessian and TD-DFT gradient,  ECA, NRVS 
  Petra Pikulova         : Analytic Raman intensities                    
  Peter Pinski           : DLPNO-MP2, DLPNO-MP2 Gradient                 
  Shashank Vittal Rao    : ES-AILFT, MagRelax                            
  Christoph Reimann      : Effective Core Potentials                     
  Marius Retegan         : Local ZFS, SOC                                
  Christoph Riplinger    : Optimizer, TS searches, QM/MM, DLPNO-CCSD(T), (RO)-DLPNO pert. Triples 
  Michael Roemelt        : Original ROCIS implementation, recursive CI coupling coefficients
  Masaaki Saitow         : Open-shell DLPNO-CCSD energy and density      
  Barbara Sandhoefer     : DKH picture change effects                    
  Yorick L. A. Schmerwitz: GMF and freeze-and-release deltaSCF, NEB S-IDPP initial path                    
  Kantharuban Sivalingam : CASSCF convergence/infrastructure, NEVPT2, NEVPT3, NEVPT4(SD), FIC-MRCI and CEPA variants
  Bernardo de Souza      : ESD, SOC TD-DFT                               
  Georgi L. Stoychev     : AutoAux, RI-MP2 NMR, DLPNO-MP2 response, X2C  
  Van Anh Tran           : RI-MP2 g-tensors                              
  Willem Van den Heuvel  : Paramagnetic NMR                              
  Zikuan Wang            : NOTCH, Electric field optimization            
  Frank Wennmohs         : Technical directorship and infrastructure     
  Hang Xu                : AUTO-CI-Response properties                   
                                                                         
[FACCTs GmbH]                                                            
  Markus Bursch, Nicolas Foglia, Miquel Garcia-Rates, Ingolf Harden, Hagen Neugebauer, Anastasios Papadopoulos, 
  Christoph Riplinger, Bernardo de Souza, Georgi L. Stoychev                                                    
                                                                 
  APM, various basis sets, CI-OPT, improved COSX, DLPNO-Multilevel,           
  DOCKER, DRACO, updates on ESD, Fragmentator, GOAT, IRC, LR-CPCM, L-BFGS, MBIS, meta-GGA TD-DFT gradient, ML-optimized integration grids, 
  MM, NACMEs, nearIR, NEB, NEB-TS, NL-DFT gradient (VV10), 2- and 3-layer-ONIOM, interface openCOSMO-RS, QMMM,   
  Crystal-QMMM, RESP, rigid body optimization, SF, symmetry and pop. for TD-DFT, various functionals, SOLVATOR                                   
                                                                         
[Other institutions]                                                     
  V. Asgeirsson          : NEB                                           
  Christoph Bannwarth    : sTDA-DFT, sTD-DFT, PBEh-3c, B97-3c, D3        
  Giovanni Bistoni       : ETS/NOCV, ADLD/ADEX, COVALED                  
  Martin Brehm           : Molecular dynamics                            
  Ronald Cardenas        : ETS/NOCV                                      
  Martina Colucci        : COVALED                                       
  Sebastian Ehlert       : rSCAN, r2SCAN, r2SCAN-3c, D4, dhf basis sets  
  Marvin Friede          : D4 for Fr, Ra, Ac-Lr                          
  Lars Goerigk           : TD-DFT with DH, B97 family of functionals     
  Stefan Grimme          : VdW corrections, initial TS optimization, DFT functionals, gCP, sTDA/sTD-DF 
  Waldemar Hujo          : DFT-NL                                        
  H. Jonsson             : NEB                                           
  Holger Kruse           : gCP                                           
  Marcel Mueller         : wB97X-3c, vDZP basis set                      
  Hagen Neugebauer       : wr2SCAN, Native XTB                           
  Gianluca Regni         : ADLD/ADEX                                     
  Tobias Risthaus        : pre 6.0 range-separated hybrid DFT and stability analysis
  Lukas Wittmann         : regularized MP2, r2SCAN double-hybrids, wr2SCAN        
                                                                         
We gratefully acknowledge several colleagues who have allowed us to      
interface, adapt or use parts of their codes:                            
  Ed Valeev, F. Pavosevic, A. Kumar             : LibInt (2-el integral package), F12 methods 
  Garnet Chan, S. Sharma, J. Yang, R. Olivares  : DMRG                   
  Ulf Ekstrom                                   : XCFun DFT Library      
  Mihaly Kallay                                 : mrcc  (arbitrary order and MRCC methods)
  Frank Weinhold                                : gennbo (NPA and NBO analysis)           
  Simon Mueller                                 : openCOSMO-RS                            
  Christopher J. Cramer and Donald G. Truhlar   : smd solvation model                     
  S Lehtola, MJT Oliveira, MAL Marques          : LibXC Library                           
  Liviu Ungur et al                             : ANISO software                          


 Your calculation uses the libint2 library for the computation of 2-el integrals
 For citations please refer to: http://libint.valeyev.net

 Your ORCA version has been built with support for libXC version: 7.0.0
 For citations please refer to: https://libxc.gitlab.io

 This ORCA versions uses:
   CBLAS   interface :  Fast vector & matrix operations
   LAPACKE interface :  Fast linear algebra routines
   SCALAPACK package :  Parallel linear algebra routines
   Shared memory     :  Shared parallel matrices
   BLAS/LAPACK       :  OpenBLAS 0.3.29  USE64BITINT DYNAMIC_ARCH NO_AFFINITY Cooperlake SINGLE_THREADED
        Core in use  :  Cooperlake
   Copyright (c) 2011-2014, The OpenBLAS Project


  ***********************************
  * Starting time: Tue Mar  3 21:05:09 2026
  * Host name:     c01b01n07
  * Process ID:    49805
  * Working dir.:  /lustre1/jiangy/jiangy_liuxy/NMR/B9D7C2-SSRS-NMR/opt_conf
  ***********************************

NOTE: MaxCore=5000 MB was set to SCF,MP2,MDCI,CIPSI,MRCI,RASCI and CIS
      => If you want to overwrite this, your respective input block should be placed after the MaxCore statement


***************************************
The coordinates will be read from file: opt-conf-1.xyz
***************************************



Warning: The global flag for NMR shieldings has been found
         but shieldings for certain elements have also been explicitly requested in the EPRNMR block
         ==>> only the requested shieldings will be calculated

================================================================================

----- Orbital basis set information -----
Your calculation utilizes the basis: pcSseg-2
   F. Jensen, J. Chem. Theory Comput. 11, 132 (2015).

----- AuxJ basis set information -----
Your calculation utilizes the AutoAux generation procedure.
  G. L. Stoychev, A. A. Auer, F. Neese, J. Chem. Theory Comput. 13, 554 (2017)

----- AuxC basis set information -----
Your calculation utilizes the AutoAux generation procedure.
  G. L. Stoychev, A. A. Auer, F. Neese, J. Chem. Theory Comput. 13, 554 (2017)

----- AuxJK basis set information -----
Your calculation utilizes the AutoAux generation procedure.
  G. L. Stoychev, A. A. Auer, F. Neese, J. Chem. Theory Comput. 13, 554 (2017)

----- AuxX basis set information -----
Your calculation utilizes the AutoAux generation procedure.
  G. L. Stoychev, A. A. Auer, F. Neese, J. Chem. Theory Comput. 13, 554 (2017)

================================================================================
                                        WARNINGS
                       Please study these warnings very carefully!
================================================================================


================================================================================
                                       INPUT FILE
================================================================================
NAME = nmr-conf-1.inp
|  1> !TPSS PCSSEG-2 AUTOAUX NMR CPCM(Methanol)
|  2> 
|  3> %pal nprocs 60 end
|  4> %maxcore 5000
|  5> 
|  6> *XYZFILE 0 1 opt-conf-1.xyz
|  7> 
|  8> %EPRNMR
|  9>    NUCLEI = ALL C {SHIFT}
| 10>    NUCLEI = ALL H {SHIFT}
| 11>    TAU DOBSON
| 12> END
| 13> 
| 14> 
| 15>                          ****END OF INPUT****
================================================================================

                       ****************************
                       * Single Point Calculation *
                       ****************************

---------------------------------
CARTESIAN COORDINATES (ANGSTROEM)
---------------------------------
  C     14.575415  -19.561902    3.350113
  C     15.375109  -20.351357    2.519275
  C     14.842178  -20.835527    1.319280
  C     13.537093  -20.516199    0.950704
  C     12.735588  -19.749115    1.793478
  C     13.258632  -19.275499    2.992929
  C     11.308412  -19.450929    1.405949
  C     11.140207  -18.380292    0.304090
  C      9.705415  -18.481209   -0.284771
  C      9.577217  -19.625428   -1.341023
  C     10.790030  -19.913953   -2.194380
  C     11.407340  -18.904058   -2.939400
  C     12.572669  -19.153013   -3.640087
  C     13.123545  -20.441038   -3.667997
  C     12.504400  -21.453935   -2.957250
  C     11.355972  -21.184724   -2.214566
  C     11.546488  -17.007556    0.832061
  C      9.050186  -17.174114   -0.750090
  O     15.670856  -21.619216    0.579572
  O     15.172533  -19.106303    4.485226
  O     16.624994  -20.703502    2.964706
  O     14.257387  -20.699319   -4.381058
  O     13.298864  -18.193837   -4.306215
  C     17.814607  -20.355137    2.224243
  C     17.945908  -18.825395    2.061239
  C     16.996821  -18.263820    1.037064
  C     18.946966  -20.969199    3.028075
  O     19.166377  -20.311136    4.275479
  C     17.022174  -18.736868   -0.278019
  C     16.112360  -18.267292   -1.210191
  C     15.156820  -17.313951   -0.828595
  C     15.163087  -16.807207    0.457841
  C     16.081445  -17.283508    1.387906
  C     14.416214  -18.262184    5.348971
  C     15.205653  -22.078276   -0.686660
  C     12.601558  -17.026116   -4.758658
  O     19.282735  -18.489840    1.652254
  O     11.838222  -16.064525   -0.216526
  O      9.675307  -16.499366   -1.840298
  O     16.037885  -18.663803   -2.511811
  O     14.216080  -16.877246   -1.721496
  C     17.083340  -19.491967   -3.019153
  H     13.129234  -20.882337    0.019881
  H     12.635406  -18.678429    3.641872
  H     10.747539  -19.134314    2.290289
  H     10.840113  -20.373225    1.054884
  H     11.858815  -18.616886   -0.481462
  H      9.057118  -18.779090    0.548744
  H      8.723798  -19.387726   -1.983510
  H      9.313859  -20.550123   -0.824914
  H     10.985331  -17.910438   -2.920709
  H     12.932484  -22.448211   -2.978714
  H     10.902412  -21.981934   -1.637923
  H     10.758248  -16.555332    1.435590
  H     12.427762  -17.114496    1.467768
  H      8.034094  -17.407383   -1.075729
  H      8.964047  -16.492218    0.103213
  H     14.534540  -19.878357   -4.814749
  H     17.793671  -20.834087    1.244208
  H     17.732202  -18.365816    3.028472
  H     18.723595  -22.029885    3.181033
  H     19.878461  -20.897193    2.468979
  H     18.344343  -20.356419    4.781248
  H     17.741753  -19.489512   -0.563926
  H     14.442294  -16.047949    0.730676
  H     16.060003  -16.905259    2.401684
  H     13.539782  -18.782393    5.743282
  H     15.083012  -18.001301    6.167417
  H     14.097156  -17.353536    4.832432
  H     16.030738  -22.635903   -1.123158
  H     14.338913  -22.733584   -0.573406
  H     14.941985  -21.241893   -1.335124
  H     12.301810  -16.395865   -3.919662
  H     13.303449  -16.484561   -5.387885
  H     11.720275  -17.309990   -5.336852
  H     19.861448  -18.590450    2.419399
  H     12.592871  -16.396070   -0.733676
  H     10.518973  -16.166742   -1.478525
  H     14.293493  -17.372953   -2.555874
  H     17.067376  -20.476493   -2.548133
  H     16.896997  -19.595549   -4.084188
  H     18.056889  -19.023528   -2.857921

----------------------------
CARTESIAN COORDINATES (A.U.)
----------------------------
  NO LB      ZA    FRAG     MASS         X           Y           Z
   0 C     6.0000    0    12.011   27.543543  -36.966638    6.330797
   1 C     6.0000    0    12.011   29.054746  -38.458491    4.760740
   2 C     6.0000    0    12.011   28.047651  -39.373439    2.493078
   3 C     6.0000    0    12.011   25.581398  -38.769998    1.796571
   4 C     6.0000    0    12.011   24.066773  -37.320419    3.389183
   5 C     6.0000    0    12.011   25.055184  -36.425414    5.655816
   6 C     6.0000    0    12.011   21.369802  -36.756929    2.656858
   7 C     6.0000    0    12.011   21.051940  -34.733718    0.574647
   8 C     6.0000    0    12.011   18.340576  -34.924423   -0.538139
   9 C     6.0000    0    12.011   18.098318  -37.086685   -2.534167
  10 C     6.0000    0    12.011   20.390202  -37.631917   -4.146777
  11 C     6.0000    0    12.011   21.556749  -35.723493   -5.554661
  12 C     6.0000    0    12.011   23.758902  -36.193950   -6.878768
  13 C     6.0000    0    12.011   24.799906  -38.627964   -6.931510
  14 C     6.0000    0    12.011   23.629892  -40.542061   -5.588392
  15 C     6.0000    0    12.011   21.459677  -40.033327   -4.184922
  16 C     6.0000    0    12.011   21.819700  -32.139623    1.572368
  17 C     6.0000    0    12.011   17.102374  -32.454373   -1.417465
  18 O     8.0000    0    15.999   29.613627  -40.854398    1.095233
  19 O     8.0000    0    15.999   28.671933  -36.105681    8.475849
  20 O     8.0000    0    15.999   31.416685  -39.123948    5.602481
  21 O     8.0000    0    15.999   26.942557  -39.116043   -8.279000
  22 O     8.0000    0    15.999   25.131210  -34.381369   -8.137567
  23 C     6.0000    0    12.011   33.664728  -38.465634    4.203209
  24 C     6.0000    0    12.011   33.912852  -35.574841    3.895176
  25 C     6.0000    0    12.011   32.119338  -34.513618    1.959767
  26 C     6.0000    0    12.011   35.804576  -39.626044    5.722233
  27 O     8.0000    0    15.999   36.219204  -38.382484    8.079484
  28 C     6.0000    0    12.011   32.167247  -35.407549   -0.525379
  29 C     6.0000    0    12.011   30.447948  -34.520179   -2.286929
  30 C     6.0000    0    12.011   28.642239  -32.718626   -1.565818
  31 C     6.0000    0    12.011   28.654082  -31.761019    0.865194
  32 C     6.0000    0    12.011   30.389527  -32.661097    2.622762
  33 C     6.0000    0    12.011   27.242696  -34.510526   10.108090
  34 C     6.0000    0    12.011   28.734520  -41.721895   -1.297599
  35 C     6.0000    0    12.011   23.813493  -32.174696   -8.992560
  36 O     8.0000    0    15.999   36.439088  -34.940733    3.122307
  37 O     8.0000    0    15.999   22.370997  -30.357554   -0.409175
  38 O     8.0000    0    15.999   18.283680  -31.179284   -3.477659
  39 O     8.0000    0    15.999   30.307211  -35.269476   -4.746635
  40 O     8.0000    0    15.999   26.864499  -31.893374   -3.253155
  41 C     6.0000    0    12.011   32.282834  -36.834479   -5.705372
  42 H     1.0000    0     1.008   24.810656  -39.461899    0.037569
  43 H     1.0000    0     1.008   23.877458  -35.297116    6.882140
  44 H     1.0000    0     1.008   20.309906  -36.158613    4.328019
  45 H     1.0000    0     1.008   20.484845  -38.499816    1.993442
  46 H     1.0000    0     1.008   22.409912  -35.180815   -0.909830
  47 H     1.0000    0     1.008   17.115473  -35.487336    1.036976
  48 H     1.0000    0     1.008   16.485589  -36.637492   -3.748291
  49 H     1.0000    0     1.008   17.600643  -38.834104   -1.558861
  50 H     1.0000    0     1.008   20.759266  -33.845822   -5.519340
  51 H     1.0000    0     1.008   24.438853  -42.420971   -5.628953
  52 H     1.0000    0     1.008   20.602573  -41.539835   -3.095226
  53 H     1.0000    0     1.008   20.330142  -31.285043    2.712872
  54 H     1.0000    0     1.008   23.485067  -32.341711    2.773679
  55 H     1.0000    0     1.008   15.182238  -32.895186   -2.032834
  56 H     1.0000    0     1.008   16.939593  -31.165775    0.195045
  57 H     1.0000    0     1.008   27.466300  -37.564652   -9.098557
  58 H     1.0000    0     1.008   33.625166  -39.370719    2.351213
  59 H     1.0000    0     1.008   33.509005  -34.706362    5.722983
  60 H     1.0000    0     1.008   35.382467  -41.630450    6.011281
  61 H     1.0000    0     1.008   37.564847  -39.489973    4.665694
  62 H     1.0000    0     1.008   34.665784  -38.468057    9.035250
  63 H     1.0000    0     1.008   33.527054  -36.829841   -1.065665
  64 H     1.0000    0     1.008   27.291981  -30.326228    1.380777
  65 H     1.0000    0     1.008   30.349008  -31.946310    4.538525
  66 H     1.0000    0     1.008   25.586480  -35.493579   10.853230
  67 H     1.0000    0     1.008   28.502761  -34.017529   11.654728
  68 H     1.0000    0     1.008   26.639763  -32.793430    9.131973
  69 H     1.0000    0     1.008   30.293705  -42.775657   -2.122460
  70 H     1.0000    0     1.008   27.096619  -42.960248   -1.083581
  71 H     1.0000    0     1.008   28.236260  -40.141360   -2.523019
  72 H     1.0000    0     1.008   23.247052  -30.983694   -7.407087
  73 H     1.0000    0     1.008   25.139876  -31.151306  -10.181627
  74 H     1.0000    0     1.008   22.148109  -32.711140  -10.085189
  75 H     1.0000    0     1.008   37.532698  -35.130859    4.572002
  76 H     1.0000    0     1.008   23.797077  -30.984082   -1.386446
  77 H     1.0000    0     1.008   19.877979  -30.550715   -2.794007
  78 H     1.0000    0     1.008   27.010787  -32.830123   -4.829902
  79 H     1.0000    0     1.008   32.252667  -38.694965   -4.815273
  80 H     1.0000    0     1.008   31.930697  -37.030221   -7.717997
  81 H     1.0000    0     1.008   34.122574  -35.949258   -5.400688

--------------------------------
INTERNAL COORDINATES (ANGSTROEM)
--------------------------------
 C      0   0   0     0.000000000000     0.00000000     0.00000000
 C      1   0   0     1.397512547568     0.00000000     0.00000000
 C      2   1   0     1.399437340858   119.16401308     0.00000000
 C      3   2   1     1.393221107059   120.28333829     0.95471468
 C      4   3   2     1.393232315820   120.33517890   357.86382417
 C      5   4   3     1.391606645254   119.50745298     1.57281091
 C      5   4   3     1.508616291685   119.84574762   182.16328250
 C      7   5   4     1.545525470686   115.02526358   284.57391615
 C      8   7   5     1.554210479658   109.00248176   163.17837959
 C      9   8   7     1.562479397547   112.29781127   279.20617459
 C     10   9   8     1.510754294870   117.11885753   326.61786425
 C     11  10   9     1.398575736252   121.15335220   305.35156439
 C     12  11  10     1.382364971312   120.80079697   175.24536777
 C     13  12  11     1.401160848832   120.46941195     3.03784772
 C     14  13  12     1.383640673088   119.12934155   358.38587216
 C     11  10   9     1.391243005727   120.61075138   122.64452335
 C      8   7   5     1.525851397484   110.33770756   291.39733765
 C      9   8   7     1.534386579314   116.98811251   146.80334313
 O      3   2   1     1.359428145713   115.71496306   181.36267699
 O      1   2   3     1.361102992796   115.71234500   181.29519002
 O      2   1   3     1.372816523520   118.22863461   184.78856490
 O     14  13  12     1.364097492282   120.74770912   178.58380115
 O     13  12  11     1.375174088569   124.40777998   185.48574564
 C     21   2   1     1.443891474255   121.45539054   238.45406223
 C     24  21   2     1.543995172304   111.29962070    59.73834373
 C     25  24  21     1.505013298467   112.82433711   284.94481331
 C     24  21   2     1.518372868858   104.20377109   182.01247127
 O     27  24  21     1.427306844704   113.00797456   290.06926397
 C     26  25  24     1.397805492655   120.16691107   302.60275010
 C     29  26  25     1.384632453896   120.44407415   177.11756880
 C     30  29  26     1.402686941462   119.66719387   359.77631563
 C     31  30  29     1.382658851364   119.94171017     2.70465087
 C     26  25  24     1.386367911729   120.53146178   121.99552516
 C     20   1   2     1.424995590939   118.09521488   178.09305554
 C     19   3   2     1.424953824195   118.04938313   183.41886859
 C     23  13  12     1.433357119851   117.66055417   334.42604194
 O     25  24  21     1.437696638927   109.89816962   164.60948838
 O     17   8   7     1.440121711215   113.02369867   160.75530990
 O     18   9   8     1.426398751561   116.59033515    64.03818058
 O     30  29  26     1.362711874934   125.47008752   180.55435280
 O     31  30  29     1.368566400242   120.50726495   182.59685959
 C     40  30  29     1.426963978367   117.93247134   351.00403980
 H      4   3   2     1.080203351638   120.26280565   179.41574229
 H      6   5   4     1.079828670750   119.29074539   179.78984449
 H      7   5   4     1.094020540667   109.54538873   161.85608736
 H      7   5   4     1.092328162413   108.73809330    45.81202340
 H      8   7   5     1.090625947433   106.94912201    45.77947091
 H      9   8   7     1.097164500194   105.97846493    33.83694863
 H     10   9   8     1.094356477647   107.56572768   202.70198244
 H     10   9   8     1.091231891102   108.70069266    88.49425744
 H     12  11  10     1.079686787292   118.86742713   358.19682294
 H     15  14  13     1.082728877917   119.02190124   180.09973890
 H     16  11  10     1.083409815181   119.61008375     2.02263077
 H     17   8   7     1.090906213621   111.83778293   280.45225436
 H     17   8   7     1.091880726908   109.16254239    39.35539160
 H     18   9   8     1.092198687590   107.80336226   183.41988992
 H     18   9   8     1.095686680422   109.12037622   299.26213906
 H     22  14  13     0.968957573677   108.13740493   359.14337916
 H     24  21   2     1.091008200473   109.81205687   297.71055059
 H     25  24  21     1.091981784645   107.86810720    45.14952335
 H     27  24  21     1.094689415611   108.27975027    53.26989804
 H     27  24  21     1.088786614279   109.84255779   171.09237155
 H     28  27  24     0.966226904870   107.76293659    58.52718295
 H     29  26  25     1.079819272701   119.80655158   358.47349602
 H     32  31  30     1.081875705665   119.26341298   177.94858741
 H     33  26  25     1.082255956018   119.81947680     1.11107407
 H     34  20   1     1.092809239469   111.24690795    62.39972178
 H     34  20   1     1.087442958100   105.83484609   181.29584220
 H     34  20   1     1.092818336473   111.16116001   300.21081781
 H     35  19   3     1.087310248648   105.91522379   177.21791330
 H     35  19   3     1.092470984280   111.10850927   296.20616521
 H     35  19   3     1.090670965022   111.11284185    58.08000444
 H     36  23  13     1.091319924588   111.18837153    70.00238683
 H     36  23  13     1.087134003009   105.92844897   188.93882152
 H     36  23  13     1.091583034395   110.37077341   308.13584222
 H     37  25  24     0.966200659227   107.86437459   285.58606816
 H     38  17   8     0.973067729107   108.72114640   298.01827208
 H     39  18   9     0.976366390923   104.87094512   290.73701792
 H     41  31  30     0.973604006215   109.99965178     4.62301509
 H     42  40  30     1.091515982422   111.05966840    67.36906109
 H     42  40  30     1.086164110848   106.15740759   186.37246396
 H     42  40  30     1.092349458552   110.58532398   305.40475109

---------------------------
INTERNAL COORDINATES (A.U.)
---------------------------
 C      0   0   0     0.000000000000     0.00000000     0.00000000
 C      1   0   0     2.640915983623     0.00000000     0.00000000
 C      2   1   0     2.644553315805   119.16401308     0.00000000
 C      3   2   1     2.632806336341   120.28333829     0.95471468
 C      4   3   2     2.632827517829   120.33517890   357.86382417
 C      5   4   3     2.629755445675   119.50745298     1.57281091
 C      5   4   3     2.850871632456   119.84574762   182.16328250
 C      7   5   4     2.920619872596   115.02526358   284.57391615
 C      8   7   5     2.937032161023   109.00248176   163.17837959
 C      9   8   7     2.952658151259   112.29781127   279.20617459
 C     10   9   8     2.854911872950   117.11885753   326.61786425
 C     11  10   9     2.642925119063   121.15335220   305.35156439
 C     12  11  10     2.612291212906   120.80079697   175.24536777
 C     13  12  11     2.647810273865   120.46941195     3.03784772
 C     14  13  12     2.614701939890   119.12934155   358.38587216
 C     11  10   9     2.629068266558   120.61075138   122.64452335
 C      8   7   5     2.883441262307   110.33770756   291.39733765
 C      9   8   7     2.899570418467   116.98811251   146.80334313
 O      3   2   1     2.568946894142   115.71496306   181.36267699
 O      1   2   3     2.572111896445   115.71234500   181.29519002
 O      2   1   3     2.594247261575   118.22863461   184.78856490
 O     14  13  12     2.577770680382   120.74770912   178.58380115
 O     13  12  11     2.598702413860   124.40777998   185.48574564
 C     21   2   1     2.728559453446   121.45539054   238.45406223
 C     24  21   2     2.917728027751   111.29962070    59.73834373
 C     25  24  21     2.844062962013   112.82433711   284.94481331
 C     24  21   2     2.869308891318   104.20377109   182.01247127
 O     27  24  21     2.697219045562   113.00797456   290.06926397
 C     26  25  24     2.641469569610   120.16691107   302.60275010
 C     29  26  25     2.616576134002   120.44407415   177.11756880
 C     30  29  26     2.650694170992   119.66719387   359.77631563
 C     31  30  29     2.612846565719   119.94171017     2.70465087
 C     26  25  24     2.619855674024   120.53146178   121.99552516
 C     20   1   2     2.692851408921   118.09521488   178.09305554
 C     19   3   2     2.692772481213   118.04938313   183.41886859
 C     23  13  12     2.708652408625   117.66055417   334.42604194
 O     25  24  21     2.716852911232   109.89816962   164.60948838
 O     17   8   7     2.721435633710   113.02369867   160.75530990
 O     18   9   8     2.695502998217   116.59033515    64.03818058
 O     30  29  26     2.575152243067   125.47008752   180.55435280
 O     31  30  29     2.586215692544   120.50726495   182.59685959
 C     40  30  29     2.696571122084   117.93247134   351.00403980
 H      4   3   2     2.041288503540   120.26280565   179.41574229
 H      6   5   4     2.040580459274   119.29074539   179.78984449
 H      7   5   4     2.067399206745   109.54538873   161.85608736
 H      7   5   4     2.064201075330   108.73809330    45.81202340
 H      8   7   5     2.060984355198   106.94912201    45.77947091
 H      9   8   7     2.073340429228   105.97846493    33.83694863
 H     10   9   8     2.068034035635   107.56572768   202.70198244
 H     10   9   8     2.062129422784   108.70069266    88.49425744
 H     12  11  10     2.040312338395   118.86742713   358.19682294
 H     15  14  13     2.046061056550   119.02190124   180.09973890
 H     16  11  10     2.047347841493   119.61008375     2.02263077
 H     17   8   7     2.061513981536   111.83778293   280.45225436
 H     17   8   7     2.063355544763   109.16254239    39.35539160
 H     18   9   8     2.063956403373   107.80336226   183.41988992
 H     18   9   8     2.070547754584   109.12037622   299.26213906
 H     22  14  13     1.831064449637   108.13740493   359.14337916
 H     24  21   2     2.061706708757   109.81205687   297.71055059
 H     25  24  21     2.063546516210   107.86810720    45.14952335
 H     27  24  21     2.068663197207   108.27975027    53.26989804
 H     27  24  21     2.057508519267   109.84255779   171.09237155
 H     28  27  24     1.825904233431   107.76293659    58.52718295
 H     29  26  25     2.040562699536   119.80655158   358.47349602
 H     32  31  30     2.044448794649   119.26341298   177.94858741
 H     33  26  25     2.045167363680   119.81947680     1.11107407
 H     34  20   1     2.065110179214   111.24690795    62.39972178
 H     34  20   1     2.054969377069   105.83484609   181.29584220
 H     34  20   1     2.065127370061   111.16116001   300.21081781
 H     35  19   3     2.054718592550   105.91522379   177.21791330
 H     35  19   3     2.064470969544   111.10850927   296.20616521
 H     35  19   3     2.061069426111   111.11284185    58.08000444
 H     36  23  13     2.062295781963   111.18837153    70.00238683
 H     36  23  13     2.054385536561   105.92844897   188.93882152
 H     36  23  13     2.062792987442   110.37077341   308.13584222
 H     37  25  24     1.825854636353   107.86437459   285.58606816
 H     38  17   8     1.838831517768   108.72114640   298.01827208
 H     39  18   9     1.845065085209   104.87094512   290.73701792
 H     41  31  30     1.839844934635   109.99965178     4.62301509
 H     42  40  30     2.062666277575   111.05966840    67.36906109
 H     42  40  30     2.052552705997   106.15740759   186.37246396
 H     42  40  30     2.064241319200   110.58532398   305.40475109

---------------------
BASIS SET INFORMATION
---------------------
There are 3 groups of distinct atoms

 Group   1 Type C   : 11s7p2d1f contracted to 4s5p2d1f pattern {7211/31111/11/1}
 Group   2 Type O   : 11s7p2d1f contracted to 4s5p2d1f pattern {7211/31111/11/1}
 Group   3 Type H   : 6s3p1d contracted to 3s2p1d pattern {411/21/1}

Atom   0C    basis set group =>   1
Atom   1C    basis set group =>   1
Atom   2C    basis set group =>   1
Atom   3C    basis set group =>   1
Atom   4C    basis set group =>   1
Atom   5C    basis set group =>   1
Atom   6C    basis set group =>   1
Atom   7C    basis set group =>   1
Atom   8C    basis set group =>   1
Atom   9C    basis set group =>   1
Atom  10C    basis set group =>   1
Atom  11C    basis set group =>   1
Atom  12C    basis set group =>   1
Atom  13C    basis set group =>   1
Atom  14C    basis set group =>   1
Atom  15C    basis set group =>   1
Atom  16C    basis set group =>   1
Atom  17C    basis set group =>   1
Atom  18O    basis set group =>   2
Atom  19O    basis set group =>   2
Atom  20O    basis set group =>   2
Atom  21O    basis set group =>   2
Atom  22O    basis set group =>   2
Atom  23C    basis set group =>   1
Atom  24C    basis set group =>   1
Atom  25C    basis set group =>   1
Atom  26C    basis set group =>   1
Atom  27O    basis set group =>   2
Atom  28C    basis set group =>   1
Atom  29C    basis set group =>   1
Atom  30C    basis set group =>   1
Atom  31C    basis set group =>   1
Atom  32C    basis set group =>   1
Atom  33C    basis set group =>   1
Atom  34C    basis set group =>   1
Atom  35C    basis set group =>   1
Atom  36O    basis set group =>   2
Atom  37O    basis set group =>   2
Atom  38O    basis set group =>   2
Atom  39O    basis set group =>   2
Atom  40O    basis set group =>   2
Atom  41C    basis set group =>   1
Atom  42H    basis set group =>   3
Atom  43H    basis set group =>   3
Atom  44H    basis set group =>   3
Atom  45H    basis set group =>   3
Atom  46H    basis set group =>   3
Atom  47H    basis set group =>   3
Atom  48H    basis set group =>   3
Atom  49H    basis set group =>   3
Atom  50H    basis set group =>   3
Atom  51H    basis set group =>   3
Atom  52H    basis set group =>   3
Atom  53H    basis set group =>   3
Atom  54H    basis set group =>   3
Atom  55H    basis set group =>   3
Atom  56H    basis set group =>   3
Atom  57H    basis set group =>   3
Atom  58H    basis set group =>   3
Atom  59H    basis set group =>   3
Atom  60H    basis set group =>   3
Atom  61H    basis set group =>   3
Atom  62H    basis set group =>   3
Atom  63H    basis set group =>   3
Atom  64H    basis set group =>   3
Atom  65H    basis set group =>   3
Atom  66H    basis set group =>   3
Atom  67H    basis set group =>   3
Atom  68H    basis set group =>   3
Atom  69H    basis set group =>   3
Atom  70H    basis set group =>   3
Atom  71H    basis set group =>   3
Atom  72H    basis set group =>   3
Atom  73H    basis set group =>   3
Atom  74H    basis set group =>   3
Atom  75H    basis set group =>   3
Atom  76H    basis set group =>   3
Atom  77H    basis set group =>   3
Atom  78H    basis set group =>   3
Atom  79H    basis set group =>   3
Atom  80H    basis set group =>   3
Atom  81H    basis set group =>   3
---------------------------------
AUXILIARY/J BASIS SET INFORMATION
---------------------------------
There are 3 groups of distinct atoms

 Group   1 Type C   : 15s13p12d5f5g contracted to 15s13p12d5f5g pattern {111111111111111/1111111111111/111111111111/11111/11111}
 Group   2 Type O   : 15s13p12d5f5g contracted to 15s13p12d5f5g pattern {111111111111111/1111111111111/111111111111/11111/11111}
 Group   3 Type H   : 12s4p3d2f contracted to 12s4p3d2f pattern {111111111111/1111/111/11}

Atom   0C    basis set group =>   1
Atom   1C    basis set group =>   1
Atom   2C    basis set group =>   1
Atom   3C    basis set group =>   1
Atom   4C    basis set group =>   1
Atom   5C    basis set group =>   1
Atom   6C    basis set group =>   1
Atom   7C    basis set group =>   1
Atom   8C    basis set group =>   1
Atom   9C    basis set group =>   1
Atom  10C    basis set group =>   1
Atom  11C    basis set group =>   1
Atom  12C    basis set group =>   1
Atom  13C    basis set group =>   1
Atom  14C    basis set group =>   1
Atom  15C    basis set group =>   1
Atom  16C    basis set group =>   1
Atom  17C    basis set group =>   1
Atom  18O    basis set group =>   2
Atom  19O    basis set group =>   2
Atom  20O    basis set group =>   2
Atom  21O    basis set group =>   2
Atom  22O    basis set group =>   2
Atom  23C    basis set group =>   1
Atom  24C    basis set group =>   1
Atom  25C    basis set group =>   1
Atom  26C    basis set group =>   1
Atom  27O    basis set group =>   2
Atom  28C    basis set group =>   1
Atom  29C    basis set group =>   1
Atom  30C    basis set group =>   1
Atom  31C    basis set group =>   1
Atom  32C    basis set group =>   1
Atom  33C    basis set group =>   1
Atom  34C    basis set group =>   1
Atom  35C    basis set group =>   1
Atom  36O    basis set group =>   2
Atom  37O    basis set group =>   2
Atom  38O    basis set group =>   2
Atom  39O    basis set group =>   2
Atom  40O    basis set group =>   2
Atom  41C    basis set group =>   1
Atom  42H    basis set group =>   3
Atom  43H    basis set group =>   3
Atom  44H    basis set group =>   3
Atom  45H    basis set group =>   3
Atom  46H    basis set group =>   3
Atom  47H    basis set group =>   3
Atom  48H    basis set group =>   3
Atom  49H    basis set group =>   3
Atom  50H    basis set group =>   3
Atom  51H    basis set group =>   3
Atom  52H    basis set group =>   3
Atom  53H    basis set group =>   3
Atom  54H    basis set group =>   3
Atom  55H    basis set group =>   3
Atom  56H    basis set group =>   3
Atom  57H    basis set group =>   3
Atom  58H    basis set group =>   3
Atom  59H    basis set group =>   3
Atom  60H    basis set group =>   3
Atom  61H    basis set group =>   3
Atom  62H    basis set group =>   3
Atom  63H    basis set group =>   3
Atom  64H    basis set group =>   3
Atom  65H    basis set group =>   3
Atom  66H    basis set group =>   3
Atom  67H    basis set group =>   3
Atom  68H    basis set group =>   3
Atom  69H    basis set group =>   3
Atom  70H    basis set group =>   3
Atom  71H    basis set group =>   3
Atom  72H    basis set group =>   3
Atom  73H    basis set group =>   3
Atom  74H    basis set group =>   3
Atom  75H    basis set group =>   3
Atom  76H    basis set group =>   3
Atom  77H    basis set group =>   3
Atom  78H    basis set group =>   3
Atom  79H    basis set group =>   3
Atom  80H    basis set group =>   3
Atom  81H    basis set group =>   3
---------------------------------
AUXILIARY/C BASIS SET INFORMATION
---------------------------------
There are 3 groups of distinct atoms

 Group   1 Type C   : 15s13p12d5f5g contracted to 15s13p12d5f5g pattern {111111111111111/1111111111111/111111111111/11111/11111}
 Group   2 Type O   : 15s13p12d5f5g contracted to 15s13p12d5f5g pattern {111111111111111/1111111111111/111111111111/11111/11111}
 Group   3 Type H   : 12s4p3d2f contracted to 12s4p3d2f pattern {111111111111/1111/111/11}

Atom   0C    basis set group =>   1
Atom   1C    basis set group =>   1
Atom   2C    basis set group =>   1
Atom   3C    basis set group =>   1
Atom   4C    basis set group =>   1
Atom   5C    basis set group =>   1
Atom   6C    basis set group =>   1
Atom   7C    basis set group =>   1
Atom   8C    basis set group =>   1
Atom   9C    basis set group =>   1
Atom  10C    basis set group =>   1
Atom  11C    basis set group =>   1
Atom  12C    basis set group =>   1
Atom  13C    basis set group =>   1
Atom  14C    basis set group =>   1
Atom  15C    basis set group =>   1
Atom  16C    basis set group =>   1
Atom  17C    basis set group =>   1
Atom  18O    basis set group =>   2
Atom  19O    basis set group =>   2
Atom  20O    basis set group =>   2
Atom  21O    basis set group =>   2
Atom  22O    basis set group =>   2
Atom  23C    basis set group =>   1
Atom  24C    basis set group =>   1
Atom  25C    basis set group =>   1
Atom  26C    basis set group =>   1
Atom  27O    basis set group =>   2
Atom  28C    basis set group =>   1
Atom  29C    basis set group =>   1
Atom  30C    basis set group =>   1
Atom  31C    basis set group =>   1
Atom  32C    basis set group =>   1
Atom  33C    basis set group =>   1
Atom  34C    basis set group =>   1
Atom  35C    basis set group =>   1
Atom  36O    basis set group =>   2
Atom  37O    basis set group =>   2
Atom  38O    basis set group =>   2
Atom  39O    basis set group =>   2
Atom  40O    basis set group =>   2
Atom  41C    basis set group =>   1
Atom  42H    basis set group =>   3
Atom  43H    basis set group =>   3
Atom  44H    basis set group =>   3
Atom  45H    basis set group =>   3
Atom  46H    basis set group =>   3
Atom  47H    basis set group =>   3
Atom  48H    basis set group =>   3
Atom  49H    basis set group =>   3
Atom  50H    basis set group =>   3
Atom  51H    basis set group =>   3
Atom  52H    basis set group =>   3
Atom  53H    basis set group =>   3
Atom  54H    basis set group =>   3
Atom  55H    basis set group =>   3
Atom  56H    basis set group =>   3
Atom  57H    basis set group =>   3
Atom  58H    basis set group =>   3
Atom  59H    basis set group =>   3
Atom  60H    basis set group =>   3
Atom  61H    basis set group =>   3
Atom  62H    basis set group =>   3
Atom  63H    basis set group =>   3
Atom  64H    basis set group =>   3
Atom  65H    basis set group =>   3
Atom  66H    basis set group =>   3
Atom  67H    basis set group =>   3
Atom  68H    basis set group =>   3
Atom  69H    basis set group =>   3
Atom  70H    basis set group =>   3
Atom  71H    basis set group =>   3
Atom  72H    basis set group =>   3
Atom  73H    basis set group =>   3
Atom  74H    basis set group =>   3
Atom  75H    basis set group =>   3
Atom  76H    basis set group =>   3
Atom  77H    basis set group =>   3
Atom  78H    basis set group =>   3
Atom  79H    basis set group =>   3
Atom  80H    basis set group =>   3
Atom  81H    basis set group =>   3
----------------------------------
AUXILIARY/JK BASIS SET INFORMATION
----------------------------------
There are 3 groups of distinct atoms

 Group   1 Type C   : 15s13p12d5f5g contracted to 15s13p12d5f5g pattern {111111111111111/1111111111111/111111111111/11111/11111}
 Group   2 Type O   : 15s13p12d5f5g contracted to 15s13p12d5f5g pattern {111111111111111/1111111111111/111111111111/11111/11111}
 Group   3 Type H   : 12s4p3d2f contracted to 12s4p3d2f pattern {111111111111/1111/111/11}

Atom   0C    basis set group =>   1
Atom   1C    basis set group =>   1
Atom   2C    basis set group =>   1
Atom   3C    basis set group =>   1
Atom   4C    basis set group =>   1
Atom   5C    basis set group =>   1
Atom   6C    basis set group =>   1
Atom   7C    basis set group =>   1
Atom   8C    basis set group =>   1
Atom   9C    basis set group =>   1
Atom  10C    basis set group =>   1
Atom  11C    basis set group =>   1
Atom  12C    basis set group =>   1
Atom  13C    basis set group =>   1
Atom  14C    basis set group =>   1
Atom  15C    basis set group =>   1
Atom  16C    basis set group =>   1
Atom  17C    basis set group =>   1
Atom  18O    basis set group =>   2
Atom  19O    basis set group =>   2
Atom  20O    basis set group =>   2
Atom  21O    basis set group =>   2
Atom  22O    basis set group =>   2
Atom  23C    basis set group =>   1
Atom  24C    basis set group =>   1
Atom  25C    basis set group =>   1
Atom  26C    basis set group =>   1
Atom  27O    basis set group =>   2
Atom  28C    basis set group =>   1
Atom  29C    basis set group =>   1
Atom  30C    basis set group =>   1
Atom  31C    basis set group =>   1
Atom  32C    basis set group =>   1
Atom  33C    basis set group =>   1
Atom  34C    basis set group =>   1
Atom  35C    basis set group =>   1
Atom  36O    basis set group =>   2
Atom  37O    basis set group =>   2
Atom  38O    basis set group =>   2
Atom  39O    basis set group =>   2
Atom  40O    basis set group =>   2
Atom  41C    basis set group =>   1
Atom  42H    basis set group =>   3
Atom  43H    basis set group =>   3
Atom  44H    basis set group =>   3
Atom  45H    basis set group =>   3
Atom  46H    basis set group =>   3
Atom  47H    basis set group =>   3
Atom  48H    basis set group =>   3
Atom  49H    basis set group =>   3
Atom  50H    basis set group =>   3
Atom  51H    basis set group =>   3
Atom  52H    basis set group =>   3
Atom  53H    basis set group =>   3
Atom  54H    basis set group =>   3
Atom  55H    basis set group =>   3
Atom  56H    basis set group =>   3
Atom  57H    basis set group =>   3
Atom  58H    basis set group =>   3
Atom  59H    basis set group =>   3
Atom  60H    basis set group =>   3
Atom  61H    basis set group =>   3
Atom  62H    basis set group =>   3
Atom  63H    basis set group =>   3
Atom  64H    basis set group =>   3
Atom  65H    basis set group =>   3
Atom  66H    basis set group =>   3
Atom  67H    basis set group =>   3
Atom  68H    basis set group =>   3
Atom  69H    basis set group =>   3
Atom  70H    basis set group =>   3
Atom  71H    basis set group =>   3
Atom  72H    basis set group =>   3
Atom  73H    basis set group =>   3
Atom  74H    basis set group =>   3
Atom  75H    basis set group =>   3
Atom  76H    basis set group =>   3
Atom  77H    basis set group =>   3
Atom  78H    basis set group =>   3
Atom  79H    basis set group =>   3
Atom  80H    basis set group =>   3
Atom  81H    basis set group =>   3
---------------------------------
AUXILIARY/X BASIS SET INFORMATION
---------------------------------
There are 3 groups of distinct atoms

 Group   1 Type C   : 15s13p12d5f5g contracted to 15s13p12d5f5g pattern {111111111111111/1111111111111/111111111111/11111/11111}
 Group   2 Type O   : 15s13p12d5f5g contracted to 15s13p12d5f5g pattern {111111111111111/1111111111111/111111111111/11111/11111}
 Group   3 Type H   : 12s4p3d2f contracted to 12s4p3d2f pattern {111111111111/1111/111/11}

Atom   0C    basis set group =>   1
Atom   1C    basis set group =>   1
Atom   2C    basis set group =>   1
Atom   3C    basis set group =>   1
Atom   4C    basis set group =>   1
Atom   5C    basis set group =>   1
Atom   6C    basis set group =>   1
Atom   7C    basis set group =>   1
Atom   8C    basis set group =>   1
Atom   9C    basis set group =>   1
Atom  10C    basis set group =>   1
Atom  11C    basis set group =>   1
Atom  12C    basis set group =>   1
Atom  13C    basis set group =>   1
Atom  14C    basis set group =>   1
Atom  15C    basis set group =>   1
Atom  16C    basis set group =>   1
Atom  17C    basis set group =>   1
Atom  18O    basis set group =>   2
Atom  19O    basis set group =>   2
Atom  20O    basis set group =>   2
Atom  21O    basis set group =>   2
Atom  22O    basis set group =>   2
Atom  23C    basis set group =>   1
Atom  24C    basis set group =>   1
Atom  25C    basis set group =>   1
Atom  26C    basis set group =>   1
Atom  27O    basis set group =>   2
Atom  28C    basis set group =>   1
Atom  29C    basis set group =>   1
Atom  30C    basis set group =>   1
Atom  31C    basis set group =>   1
Atom  32C    basis set group =>   1
Atom  33C    basis set group =>   1
Atom  34C    basis set group =>   1
Atom  35C    basis set group =>   1
Atom  36O    basis set group =>   2
Atom  37O    basis set group =>   2
Atom  38O    basis set group =>   2
Atom  39O    basis set group =>   2
Atom  40O    basis set group =>   2
Atom  41C    basis set group =>   1
Atom  42H    basis set group =>   3
Atom  43H    basis set group =>   3
Atom  44H    basis set group =>   3
Atom  45H    basis set group =>   3
Atom  46H    basis set group =>   3
Atom  47H    basis set group =>   3
Atom  48H    basis set group =>   3
Atom  49H    basis set group =>   3
Atom  50H    basis set group =>   3
Atom  51H    basis set group =>   3
Atom  52H    basis set group =>   3
Atom  53H    basis set group =>   3
Atom  54H    basis set group =>   3
Atom  55H    basis set group =>   3
Atom  56H    basis set group =>   3
Atom  57H    basis set group =>   3
Atom  58H    basis set group =>   3
Atom  59H    basis set group =>   3
Atom  60H    basis set group =>   3
Atom  61H    basis set group =>   3
Atom  62H    basis set group =>   3
Atom  63H    basis set group =>   3
Atom  64H    basis set group =>   3
Atom  65H    basis set group =>   3
Atom  66H    basis set group =>   3
Atom  67H    basis set group =>   3
Atom  68H    basis set group =>   3
Atom  69H    basis set group =>   3
Atom  70H    basis set group =>   3
Atom  71H    basis set group =>   3
Atom  72H    basis set group =>   3
Atom  73H    basis set group =>   3
Atom  74H    basis set group =>   3
Atom  75H    basis set group =>   3
Atom  76H    basis set group =>   3
Atom  77H    basis set group =>   3
Atom  78H    basis set group =>   3
Atom  79H    basis set group =>   3
Atom  80H    basis set group =>   3
Atom  81H    basis set group =>   3
--------------------------------------------------------------------------
WARNING: There was an error initializing an OpenFabrics device.

  Local host:   c01b01n07
  Local device: mlx5_0
--------------------------------------------------------------------------
--------------------------------------------------------------------------
WARNING: There is at least one non-excluded one OpenFabrics device found,
but there are no active ports detected (or Open MPI was unable to use
them).  This is most certainly not what you wanted.  Check your
cables, subnet manager configuration, etc.  The openib BTL will be
ignored for this job.

  Local host: c01b01n07
--------------------------------------------------------------------------


[c01b01n07:49807] 53 more processes have sent help message help-mpi-btl-openib.txt / error in device init
[c01b01n07:49807] Set MCA parameter "orte_base_help_aggregate" to 0 to see all help / error messages
[c01b01n07:49807] 5 more processes have sent help message help-mpi-btl-openib.txt / no active ports found
           ************************************************************
           *        Program running with 60 parallel MPI-processes    *
           *              working on a common directory               *
           ************************************************************
------------------------------------------------------------------------------
                             ORCA STARTUP CALCULATIONS
                           -- RI-GTO INTEGRALS CHOSEN --
------------------------------------------------------------------------------
------------------------------------------------------------------------------
                   ___                                                        
                  /   \      - P O W E R E D   B Y -                         
                 /     \                                                     
                 |  |  |   _    _      __       _____    __    __             
                 |  |  |  | |  | |    /  \     |  _  \  |  |  /  |          
                  \  \/   | |  | |   /    \    | | | |  |  | /  /          
                 / \  \   | |__| |  /  /\  \   | |_| |  |  |/  /          
                |  |  |   |  __  | /  /__\  \  |    /   |      \           
                |  |  |   | |  | | |   __   |  |    \   |  |\   \          
                \     /   | |  | | |  |  |  |  | |\  \  |  | \   \       
                 \___/    |_|  |_| |__|  |__|  |_| \__\ |__|  \__/        
                                                                              
                      - O R C A' S   B I G   F R I E N D -                    
                                      &                                       
                       - I N T E G R A L  F E E D E R -                       
                                                                              
 v1 FN, 2020, v2 2021, v3 2022-2024                                           
------------------------------------------------------------------------------


----------------------
SHARK INTEGRAL PACKAGE
----------------------

Number of atoms                             ...     82
Number of basis functions                   ...   2072
Number of shells                            ...    744
Maximum angular momentum                    ...      3
Integral batch strategy                     ... SHARK/LIBINT Hybrid
RI-J (if used) integral strategy            ... SPLIT-RIJ (Revised 2003 algorithm where possible)
Printlevel                                  ...      1
Contraction scheme used                     ... SEGMENTED contraction
Prescreening option                         ... SCHWARTZ
   Thresh                                   ... 1.000e-10
   Tcut                                     ... 1.000e-11
   Tpresel                                  ... 1.000e-11 
Coulomb Range Separation                    ... NOT USED
Exchange Range Separation                   ... NOT USED
Multipole approximations                    ... NOT USED
Finite Nucleus Model                        ... NOT USED
CABS basis                                  ... NOT available
Auxiliary Coulomb fitting basis             ... AVAILABLE
   # of basis functions in Aux-J            ...  10268
   # of shells in Aux-J                     ...   2940
   Maximum angular momentum in Aux-J        ...      4
Auxiliary J/K fitting basis                 ... AVAILABLE
   # of basis functions in Aux-JK           ...  10268
   # of shells in Aux-JK                    ...   2940
   Maximum angular momentum in Aux-JK       ...      4
Auxiliary Correlation fitting basis         ... AVAILABLE
   # of basis functions in Aux-C            ...  10268
   # of shells in Aux-C                     ...   2940
   Maximum angular momentum in Aux-C        ...      4
Auxiliary 'external' fitting basis          ... NOT available

Checking pre-screening integrals            ... done (  0.0 sec) Dimension = 744
   => SHARK Basis and OBASIS are compatible. Storing Pre-screening
Shell pair information
Shell pair cut-off parameter TPreSel        ...   1.0e-11
Total number of shell pairs                 ...    277140
Shell pairs after pre-screening             ...    153086
Total number of primitive shell pairs       ...    823733
Primitive shell pairs kept                  ...    280379
          la=0 lb=0:  29047 shell pairs
          la=1 lb=0:  50822 shell pairs
          la=1 lb=1:  20773 shell pairs
          la=2 lb=0:  20070 shell pairs
          la=2 lb=1:  15260 shell pairs
          la=2 lb=2:   2728 shell pairs
          la=3 lb=0:   6952 shell pairs
          la=3 lb=1:   5221 shell pairs
          la=3 lb=2:   1866 shell pairs
          la=3 lb=3:    347 shell pairs

Checking whether 4 symmetric matrices of dimension 2072 fit in memory
:Max Core in MB      =   5000.00
 MB in use           =    188.90
 MB left             =   4811.10
 MB needed           =     65.54
 Data fit in memory  = YES
Calculating RI/J V-Matrix + Cholesky decomp.... done (  6.4 sec)
Calculating RI/JK V-Matrix + Cholesky decomp.... done (  3.9 sec)
Calculating RI/C V-Matrix + Cholesky decomp.... done (  7.2 sec)
Calculating Nuclear repulsion               ... done (  0.0 sec) ENN=   5783.704837195001 Eh

Diagonalization of the overlap matrix:
Smallest eigenvalue                        ... 7.049e-06
Time for diagonalization                   ...    4.385 sec
Threshold for overlap eigenvalues          ... 1.000e-07
Number of eigenvalues below threshold      ... 0
Time for construction of square roots      ...    0.497 sec
Total time needed                          ...    4.940 sec

-------------------
DFT GRID GENERATION
-------------------

General Integration Accuracy     IntAcc      ... 4.388
Radial Grid Type                 RadialGrid  ... OptM3 with GC (2021)
Angular Grid (max. ang.)         AngularGrid ... 4 (Lebedev-302)
Angular grid pruning method      GridPruning ... 4 (adaptive)
Weight generation scheme         WeightScheme... mBecke (2022)
Basis function cutoff            BFCut       ... 1.0000e-10
Integration weight cutoff        WCut        ... 1.0000e-14
Partially contracted basis set               ... off
Rotationally invariant grid construction     ... off
Angular grids for H and He will be reduced by one unit
Diffuse basis detected: some atoms will have their outermost
                        angular grid increased by 1.

Total number of grid points                  ...   376651
Total number of batches                      ...     5928
Average number of points per batch           ...       63
Average number of grid points per atom       ...     4593
Grids setup in   4.0 sec
Initializing property integral containers    ... done (  0.1 sec)

SHARK setup successfully completed in  44.5 seconds

Maximum memory used throughout the entire STARTUP-calculation: 261.0 MB
--------------------------------------------------------------------------
WARNING: There was an error initializing an OpenFabrics device.

  Local host:   c01b01n07
  Local device: mlx5_0
--------------------------------------------------------------------------
--------------------------------------------------------------------------
WARNING: There is at least one non-excluded one OpenFabrics device found,
but there are no active ports detected (or Open MPI was unable to use
them).  This is most certainly not what you wanted.  Check your
cables, subnet manager configuration, etc.  The openib BTL will be
ignored for this job.

  Local host: c01b01n07
--------------------------------------------------------------------------


           ************************************************************
           *        Program running with 60 parallel MPI-processes    *
           *              working on a common directory               *
           ************************************************************
-------------------------------------------------------------------------------
                                 ORCA GUESS
                   Start orbitals & Density for SCF / CASSCF
-------------------------------------------------------------------------------

------------
SCF SETTINGS
------------
Hamiltonian:
 Density Functional     Method          .... DFT(GTOs)
 Exchange Functional    Exchange        .... TPSS
 Correlation Functional Correlation     .... TPSS
 LDA part of GGA corr.  LDAOpt          .... PW91-LDA
 Gradients option       PostSCFGGA      .... off
   NL short-range parameter             ....  5.000000
 RI-approximation to the Coulomb term is turned on
   Number of AuxJ basis functions       .... 10268


General Settings:
 Integral files         IntName         .... nmr-conf-1
 Hartree-Fock type      HFTyp           .... RHF
 Total Charge           Charge          ....    0
 Multiplicity           Mult            ....    1
 Number of Electrons    NEL             ....  314
 Basis Dimension        Dim             .... 2072
 Nuclear Repulsion      ENuc            ....   5783.7048371950 Eh

Convergence Acceleration:
 AO-DIIS                CNVDIIS         .... on
   Start iteration      DIISMaxIt       ....    12
   Startup error        DIISStart       ....  0.200000
   # of expansion vecs  DIISMaxEq       ....     5
   Bias factor          DIISBfac        ....   1.050
   Max. coefficient     DIISMaxC        ....  10.000
 MO-DIIS                CNVKDIIS        .... off
 Trust-Rad. Augm. Hess. CNVTRAH         .... auto
   Auto Start mean grad. ratio tolernc. ....  1.125000
   Auto Start start iteration           ....    50
   Auto Start num. interpolation iter.  ....    10
   Max. Number of Micro iterations      ....    24
   Max. Number of Macro iterations      .... Maxiter - #DIIS iter
   Number of Davidson start vectors     ....     2
   Converg. threshold    (grad. norm)   ....   5.000e-05
   Grad. Scal. Fac. for Micro threshold ....   0.100
   Minimum threshold for Micro iter.    ....   1.000e-02
   NR start threshold (gradient norm)   ....   1.000e-04
   Initial trust radius                 ....   0.400
   Minimum AH scaling param. (alpha)    ....   1.000
   Maximum AH scaling param. (alpha)    .... 1000.000
   Quad. conv. algorithm                .... NR
   White noise on init. David. guess    .... on
   Maximum white noise                  ....   0.010
   Pseudo random numbers                .... off
   Inactive MOs                         .... canonical
   Orbital update algorithm             .... Taylor
   Preconditioner                       .... Diag
   Full preconditioner red. dimension   ....   250
 SOSCF                 CNVSOSCF           .... on
   Start iteration     SOSCFMaxIt         ....   150
   Startup grad/error  SOSCFStart         ....  0.003300
   Hessian update      SOSCFHessUp        .... L-BFGS
   Autom. constraints  SOSCFAutoConstrain .... off
 Level Shifting         CNVShift        .... on
   Level shift para.    LevelShift      ....    0.2500
   Turn off err/grad.   ShiftErr        ....    0.0010
 Zerner damping         CNVZerner       .... off
 Static damping         CNVDamp         .... on
   Fraction old density DampFac         ....    0.7000
   Max. Damping (<1)    DampMax         ....    0.9800
   Min. Damping (>=0)   DampMin         ....    0.0000
   Turn off err/grad.   DampErr         ....    0.1000

SCF Procedure:
 Maximum # iterations   MaxIter         ....   125
 SCF integral mode      SCFMode         .... Direct
   Integral package                     .... SHARK and LIBINT hybrid scheme
 Reset frequency        DirectResetFreq ....    20
 Integral Threshold     Thresh          ....  1.000e-10 Eh
 Primitive CutOff       TCut            ....  1.000e-11 Eh

Convergence Tolerance:
 Convergence Check Mode ConvCheckMode   .... Total+1el-Energy
 Convergence forced     ConvForced      .... 0
 Energy Change          TolE            ....  1.000e-06 Eh
 1-El. energy change                    ....  1.000e-03 Eh
 Orbital Gradient       TolG            ....  5.000e-05
 Orbital Rotation angle TolX            ....  5.000e-05
 DIIS Error             TolErr          ....  1.000e-06

------------------------------
INITIAL GUESS: MODEL POTENTIAL
------------------------------
Loading Hartree-Fock densities                     ... done
Calculating cut-offs                               ... done
Initializing the effective Hamiltonian             ... done
Setting up the integral package (SHARK)            ... done
Starting the Coulomb interaction                   ... [c01b01n07:50186] 51 more processes have sent help message help-mpi-btl-openib.txt / error in device init
[c01b01n07:50186] Set MCA parameter "orte_base_help_aggregate" to 0 to see all help / error messages
[c01b01n07:50186] 7 more processes have sent help message help-mpi-btl-openib.txt / no active ports found
done (   3.1 sec)
Making the grid                                    ... done (   0.5 sec)
Mapping shells                                     ... done
Starting the XC term evaluation                    ... done (   0.8 sec)
  promolecular density results
     # of electrons  =    313.990847610
     EX              =   -260.291809881
     EC              =    -10.645002324
     EX+EC           =   -270.936812205
Transforming the Hamiltonian                       ... done (   0.3 sec)
Diagonalizing the Hamiltonian                      ... done (   0.5 sec)
Back transforming the eigenvectors                 ... done (   0.3 sec)
Now organizing SCF variables                       ... done
                      ------------------
                      INITIAL GUESS DONE (  10.0 sec)
                      ------------------
             **** ENERGY FILE WAS UPDATED (nmr-conf-1.en.tmp) ****
Finished Guess after  13.8 sec
Maximum memory used throughout the entire GUESS-calculation: 292.5 MB
--------------------------------------------------------------------------
WARNING: There was an error initializing an OpenFabrics device.

  Local host:   c01b01n07
  Local device: mlx5_0
--------------------------------------------------------------------------
--------------------------------------------------------------------------
WARNING: There is at least one non-excluded one OpenFabrics device found,
but there are no active ports detected (or Open MPI was unable to use
them).  This is most certainly not what you wanted.  Check your
cables, subnet manager configuration, etc.  The openib BTL will be
ignored for this job.

  Local host: c01b01n07
--------------------------------------------------------------------------


           ************************************************************
           *        Program running with 60 parallel MPI-processes    *
           *              working on a common directory               *
           ************************************************************

-------------------------------------------------------------------------------------------
                                      ORCA LEAN-SCF
                              memory conserving SCF solver
-------------------------------------------------------------------------------------------

--------------------
CPCM SOLVATION MODEL
--------------------
CPCM parameters:
  Epsilon                                         ...      33.4280
  Refrac                                          ...       1.3288
  Rsolv                                           ...       1.3000
  Surface type                                    ... GAUSSIAN VDW
  Discretization scheme                           ... Constant charge density
    Threshold for H atoms                         ...       5.0000 (charges/Ang^2)
    Threshold for non-H atoms                     ...       5.0000 (charges/Ang^2)
  Epsilon function type                           ...         CPCM
Solvent:                                          ... METHANOL
Radii:
  Scheme                                          ... Element-dependent radii
  Radius for C  used is    3.8550 Bohr (=   2.0400 Ang.)
  Radius for O  used is    3.4469 Bohr (=   1.8240 Ang.)
  Radius for H  used is    2.4944 Bohr (=   1.3200 Ang.)
Calculating surface                               ...        done! (  0.0s)
Cavity surface points                             ...         6153
Cavity Volume                                     ...    4526.0822
Cavity Surface-area                               ...    2007.0169
Calculating surface distance matrix               ...        done! (  0.2s)
Performing Cholesky decomposition & store         ...        done! (  0.7s)
Overall time for CPCM initialization              ...                 0.9s

----------------------------------------D-I-I-S--------------------------------------------
Iteration    Energy (Eh)           Delta-E    RMSDP     MaxDP     DIISErr   Damp  Time(sec)
-------------------------------------------------------------------------------------------
               ***  Starting incremental Fock matrix formation  ***
[c01b01n07:50612] 51 more processes have sent help message help-mpi-btl-openib.txt / error in device init
[c01b01n07:50612] Set MCA parameter "orte_base_help_aggregate" to 0 to see all help / error messages
[c01b01n07:50612] 7 more processes have sent help message help-mpi-btl-openib.txt / no active ports found
    1    -2033.0198333753069164     0.00e+00  8.12e-03  3.20e-01  2.34e-01  0.700  14.2
    2    -2033.4232014263607198    -4.03e-01  6.66e-03  2.54e-01  8.08e-02  0.700   8.4
                               ***Turning on AO-DIIS***
    3    -2033.5742036145811653    -1.51e-01  2.95e-03  8.86e-02  2.48e-02  0.700   7.7
    4    -2033.6654809519795890    -9.13e-02  5.03e-03  9.72e-02  1.19e-02  0.000   6.6
    5    -2033.8674184796836926    -2.02e-01  1.28e-03  4.04e-02  4.80e-03  0.000   6.9
                              *** Initializing SOSCF ***
---------------------------------------S-O-S-C-F--------------------------------------
Iteration    Energy (Eh)           Delta-E    RMSDP     MaxDP     MaxGrad    Time(sec)
--------------------------------------------------------------------------------------
    6    -2033.8687785518332021    -1.36e-03  4.08e-04  7.19e-03  1.33e-03     8.4
               *** Restarting incremental Fock matrix formation ***
    7    -2033.8688857163760986    -1.07e-04  3.41e-04  7.41e-03  1.40e-04     7.8
    8    -2033.8688612324067435     2.45e-05  8.13e-05  1.91e-03  6.42e-04     6.0
    9    -2033.8689021122918348    -4.09e-05  7.00e-05  1.23e-03  1.17e-04     6.3
   10    -2033.8689018067852885     3.06e-07  2.20e-05  4.47e-04  1.11e-04     6.1
                 **** Energy Check signals convergence ****

               *****************************************************
               *                     SUCCESS                       *
               *           SCF CONVERGED AFTER  10 CYCLES          *
               *****************************************************

             **** ENERGY FILE WAS UPDATED (nmr-conf-1.en.tmp) ****

----------------
TOTAL SCF ENERGY
----------------

Total Energy       :      -2033.86890152178785 Eh          -55344.38646 eV

Components:
Nuclear Repulsion  :       5783.70483719500135 Eh          157382.60980 eV
Electronic Energy  :      -7817.53379412506638 Eh         -212725.90931 eV
One Electron Energy:     -14296.01218872132813 Eh         -389014.26876 eV
Two Electron Energy:       6478.47839459626175 Eh          176288.35944 eV
CPCM Dielectric    :         -0.03994459172287 Eh              -1.08695 eV

Virial components:
Potential Energy   :      -4061.11982495277698 Eh         -110508.68859 eV
Kinetic Energy     :       2027.25092343098913 Eh           55164.30213 eV
Virial Ratio       :          2.00326450860834

DFT components:
N(Alpha)           :      156.999653510395 electrons
N(Beta)            :      156.999653510395 electrons
N(Total)           :      313.999307020790 electrons
E(X)               :     -268.086844783716 Eh       
E(C)               :      -10.606179979332 Eh       
E(XC)              :     -278.693024763048 Eh       

CPCM Solvation Model Properties:
Surface-charge          :         -0.04352811551771
Corrected charge        :         -0.00000000000000
Outlying charge corr.   :          0.00008263164169 Eh               0.00225 eV
Free-energy (cav+disp)  :  This term is not implemented in the current solvation scheme

---------------
SCF CONVERGENCE
---------------

  Last Energy change         ...   -3.0551e-07  Tolerance :   1.0000e-06
  Last MAX-Density change    ...    4.4747e-04  Tolerance :   1.0000e-05
  Last RMS-Density change    ...    2.1960e-05  Tolerance :   1.0000e-06
  Last DIIS Error            ...    1.3274e-03  Tolerance :   1.0000e-06
  Last Orbital Gradient      ...    1.1135e-04  Tolerance :   5.0000e-05
  Last Orbital Rotation      ...    2.1985e-04  Tolerance :   5.0000e-05


----------------
ORBITAL ENERGIES
----------------

  NO   OCC          E(Eh)            E(eV) 
   0   2.0000     -18.920592      -514.8555 
   1   2.0000     -18.918729      -514.8048 
   2   2.0000     -18.917704      -514.7769 
   3   2.0000     -18.910868      -514.5909 
   4   2.0000     -18.909754      -514.5606 
   5   2.0000     -18.909450      -514.5523 
   6   2.0000     -18.900203      -514.3007 
   7   2.0000     -18.884486      -513.8730 
   8   2.0000     -18.884204      -513.8653 
   9   2.0000     -18.883843      -513.8555 
  10   2.0000     -18.863428      -513.3000 
  11   2.0000     -10.047390      -273.4034 
  12   2.0000     -10.046417      -273.3769 
  13   2.0000     -10.042523      -273.2710 
  14   2.0000     -10.042478      -273.2697 
  15   2.0000     -10.042089      -273.2591 
  16   2.0000     -10.041582      -273.2453 
  17   2.0000     -10.041050      -273.2309 
  18   2.0000     -10.039415      -273.1864 
  19   2.0000     -10.037315      -273.1292 
  20   2.0000     -10.035600      -273.0826 
  21   2.0000     -10.032485      -272.9978 
  22   2.0000     -10.032100      -272.9873 
  23   2.0000     -10.032055      -272.9861 
  24   2.0000     -10.031409      -272.9685 
  25   2.0000     -10.026451      -272.8336 
  26   2.0000     -10.021422      -272.6967 
  27   2.0000      -9.989849      -271.8376 
  28   2.0000      -9.988812      -271.8094 
  29   2.0000      -9.987175      -271.7648 
  30   2.0000      -9.986751      -271.7533 
  31   2.0000      -9.986209      -271.7386 
  32   2.0000      -9.985691      -271.7245 
  33   2.0000      -9.985238      -271.7122 
  34   2.0000      -9.984107      -271.6814 
  35   2.0000      -9.983372      -271.6614 
  36   2.0000      -9.982820      -271.6463 
  37   2.0000      -9.982341      -271.6333 
  38   2.0000      -9.979844      -271.5654 
  39   2.0000      -9.978408      -271.5263 
  40   2.0000      -9.975145      -271.4375 
  41   2.0000      -9.974166      -271.4108 
  42   2.0000      -1.014582       -27.6082 
  43   2.0000      -1.009626       -27.4733 
  44   2.0000      -1.006650       -27.3923 
  45   2.0000      -0.996470       -27.1153 
  46   2.0000      -0.989248       -26.9188 
  47   2.0000      -0.983541       -26.7635 
  48   2.0000      -0.979831       -26.6625 
  49   2.0000      -0.958014       -26.0689 
  50   2.0000      -0.957055       -26.0428 
  51   2.0000      -0.952304       -25.9135 
  52   2.0000      -0.936231       -25.4761 
  53   2.0000      -0.798306       -21.7230 
  54   2.0000      -0.796828       -21.6828 
  55   2.0000      -0.793316       -21.5872 
  56   2.0000      -0.758339       -20.6354 
  57   2.0000      -0.732178       -19.9236 
  58   2.0000      -0.717706       -19.5298 
  59   2.0000      -0.704016       -19.1573 
  60   2.0000      -0.700099       -19.0507 
  61   2.0000      -0.696905       -18.9638 
  62   2.0000      -0.695849       -18.9350 
  63   2.0000      -0.686201       -18.6725 
  64   2.0000      -0.669944       -18.2301 
  65   2.0000      -0.652902       -17.7664 
  66   2.0000      -0.649088       -17.6626 
  67   2.0000      -0.648049       -17.6343 
  68   2.0000      -0.639055       -17.3896 
  69   2.0000      -0.625181       -17.0120 
  70   2.0000      -0.619985       -16.8707 
  71   2.0000      -0.610948       -16.6247 
  72   2.0000      -0.581473       -15.8227 
  73   2.0000      -0.566261       -15.4088 
  74   2.0000      -0.561909       -15.2903 
  75   2.0000      -0.559885       -15.2352 
  76   2.0000      -0.545742       -14.8504 
  77   2.0000      -0.544455       -14.8154 
  78   2.0000      -0.535499       -14.5717 
  79   2.0000      -0.528254       -14.3745 
  80   2.0000      -0.514581       -14.0025 
  81   2.0000      -0.511831       -13.9276 
  82   2.0000      -0.505869       -13.7654 
  83   2.0000      -0.494913       -13.4673 
  84   2.0000      -0.489966       -13.3327 
  85   2.0000      -0.474096       -12.9008 
  86   2.0000      -0.472033       -12.8447 
  87   2.0000      -0.468386       -12.7454 
  88   2.0000      -0.466527       -12.6948 
  89   2.0000      -0.458167       -12.4674 
  90   2.0000      -0.452802       -12.3214 
  91   2.0000      -0.451042       -12.2735 
  92   2.0000      -0.444394       -12.0926 
  93   2.0000      -0.441810       -12.0223 
  94   2.0000      -0.441029       -12.0010 
  95   2.0000      -0.435607       -11.8535 
  96   2.0000      -0.429319       -11.6824 
  97   2.0000      -0.428550       -11.6614 
  98   2.0000      -0.422572       -11.4988 
  99   2.0000      -0.419908       -11.4263 
 100   2.0000      -0.416638       -11.3373 
 101   2.0000      -0.410383       -11.1671 
 102   2.0000      -0.408602       -11.1186 
 103   2.0000      -0.404495       -11.0069 
 104   2.0000      -0.400200       -10.8900 
 105   2.0000      -0.398143       -10.8340 
 106   2.0000      -0.396608       -10.7922 
 107   2.0000      -0.390229       -10.6187 
 108   2.0000      -0.388262       -10.5651 
 109   2.0000      -0.386518       -10.5177 
 110   2.0000      -0.383648       -10.4396 
 111   2.0000      -0.381933       -10.3929 
 112   2.0000      -0.378421       -10.2973 
 113   2.0000      -0.376755       -10.2520 
 114   2.0000      -0.375113       -10.2073 
 115   2.0000      -0.371473       -10.1083 
 116   2.0000      -0.368610       -10.0304 
 117   2.0000      -0.364971        -9.9314 
[...]
 
 sDSO           158.202          106.577           47.865  iso=     104.215
 sPSO          -134.749          -79.218          -16.589  iso=     -76.852
        ---------------  ---------------  ---------------
 Total           23.453           27.360           31.277  iso=      27.363

 Orientation: 
  X          -0.8491984   -0.1921808    0.4918624
  Y          -0.4405938   -0.2555974   -0.8605505
  Z          -0.2911000    0.9474896   -0.1323793

 --------------
 Nucleus  73H :
 --------------

Diamagnetic contribution to the shielding tensor (ppm) : 
            83.453         16.047         3.287
            46.310         37.825        -9.672
           -23.460         43.068        71.282

Paramagnetic contribution to the shielding tensor (ppm): 
           -58.524        -17.237        -4.092
           -45.494         -8.614         4.127
            21.845        -47.551       -43.220

Total shielding tensor (ppm): 
            24.929         -1.190        -0.805
             0.816         29.211        -5.545
            -1.615         -4.484        28.062


 Diagonalized sT*s matrix:
 
 sDSO            86.646           63.389           42.524  iso=      64.187
 sPSO           -63.623          -37.942           -8.793  iso=     -36.786
        ---------------  ---------------  ---------------
 Total           23.023           25.447           33.732  iso=      27.401

 Orientation: 
  X           0.4884232    0.8675622   -0.0936940
  Y           0.5570136   -0.3926253   -0.7318341
  Z           0.6716983   -0.3052559    0.6750113

 --------------
 Nucleus  74H :
 --------------

Diamagnetic contribution to the shielding tensor (ppm) : 
            60.835         64.983        34.540
            19.741         65.518         3.959
            -5.966         77.118        95.443

Paramagnetic contribution to the shielding tensor (ppm): 
           -32.614        -67.188       -30.986
           -23.483        -40.189        -6.404
             9.450        -79.657       -64.747

Total shielding tensor (ppm): 
            28.221         -2.205         3.554
            -3.742         25.329        -2.445
             3.484         -2.539        30.696


 Diagonalized sT*s matrix:
 
 sDSO           105.294           64.248           52.254  iso=      73.932
 sPSO           -81.838          -38.165          -17.548  iso=     -45.850
        ---------------  ---------------  ---------------
 Total           23.456           26.083           34.706  iso=      28.082

 Orientation: 
  X           0.4860442   -0.6591846    0.5737915
  Y           0.8720333    0.3225309   -0.3681464
  Z           0.0576109    0.6793007    0.7315952

 --------------
 Nucleus  75H :
 --------------

Diamagnetic contribution to the shielding tensor (ppm) : 
            70.258        -85.798        38.004
            32.694        -43.823        22.472
            39.625         -6.308        32.330

Paramagnetic contribution to the shielding tensor (ppm): 
           -35.152         87.223       -28.260
           -30.054         65.069       -25.217
           -31.806          4.047        -1.043

Total shielding tensor (ppm): 
            35.106          1.425         9.744
             2.640         21.246        -2.745
             7.820         -2.261        31.287


 Diagonalized sT*s matrix:
 
 sDSO            -8.225          -26.080           93.069  iso=      19.588
 sPSO            27.405           52.358          -50.890  iso=       9.624
        ---------------  ---------------  ---------------
 Total           19.180           26.278           42.179  iso=      29.213

 Orientation: 
  X          -0.3347352   -0.5436385    0.7696815
  Y           0.8488918   -0.5285505   -0.0041399
  Z           0.4090661    0.6519905    0.6384147

 --------------
 Nucleus  76H :
 --------------

Diamagnetic contribution to the shielding tensor (ppm) : 
           160.121         31.231        14.401
            71.971         71.795        13.876
            10.992         -7.461        64.023

Paramagnetic contribution to the shielding tensor (ppm): 
          -124.490        -36.145       -24.532
           -76.538        -50.783       -12.622
           -22.196         11.034       -36.929

Total shielding tensor (ppm): 
            35.631         -4.915       -10.131
            -4.567         21.012         1.253
           -11.204          3.573        27.094


 Diagonalized sT*s matrix:
 
 sDSO           139.740           58.022           98.177  iso=      98.646
 sPSO          -120.545          -37.535          -54.122  iso=     -70.734
        ---------------  ---------------  ---------------
 Total           19.195           20.487           44.056  iso=      27.912

 Orientation: 
  X           0.5133794   -0.2714781   -0.8140892
  Y           0.7192388    0.6535934    0.2356081
  Z           0.4681209   -0.7064809    0.5307990

 --------------
 Nucleus  77H :
 --------------

Diamagnetic contribution to the shielding tensor (ppm) : 
           129.039         72.831        28.952
            56.931         82.838         5.351
            30.975         11.708        97.782

Paramagnetic contribution to the shielding tensor (ppm): 
           -93.401        -65.885       -19.197
           -50.495        -63.288        -5.786
           -22.287        -11.301       -74.347

Total shielding tensor (ppm): 
            35.638          6.946         9.755
             6.436         19.550        -0.435
             8.688          0.407        23.435


 Diagonalized sT*s matrix:
 
 sDSO            44.641           91.275          173.743  iso=     103.220
 sPSO           -29.487          -69.959         -131.589  iso=     -77.012
        ---------------  ---------------  ---------------
 Total           15.154           21.316           42.154  iso=      26.208

 Orientation: 
  X           0.4751360    0.1766776    0.8619923
  Y          -0.7174589    0.6449311    0.2632804
  Z          -0.5094099   -0.7435381    0.4331889

 --------------
 Nucleus  78H :
 --------------

Diamagnetic contribution to the shielding tensor (ppm) : 
           115.218         -6.524        12.379
            52.607         41.672        13.124
            37.806          5.723        57.471

Paramagnetic contribution to the shielding tensor (ppm): 
           -92.823          4.045        -8.623
           -56.231        -21.360        -6.581
           -34.181          3.776       -25.773

Total shielding tensor (ppm): 
            22.395         -2.479         3.756
            -3.624         20.313         6.543
             3.624          9.500        31.698


 Diagonalized sT*s matrix:
 
 sDSO            59.162           82.967           72.231  iso=      71.454
 sPSO           -45.295          -58.532          -36.129  iso=     -46.652
        ---------------  ---------------  ---------------
 Total           13.867           24.436           36.102  iso=      24.802

 Orientation: 
  X           0.4570672    0.8778419    0.1431193
  Y           0.7592324   -0.4688944    0.4513360
  Z          -0.4633095    0.0976300    0.8808023

 --------------
 Nucleus  79H :
 --------------

Diamagnetic contribution to the shielding tensor (ppm) : 
           -20.648        -82.291         5.043
           -51.784        -12.911        14.274
            20.829          5.852       -38.660

Paramagnetic contribution to the shielding tensor (ppm): 
            47.672         79.009        -4.981
            49.529         42.712       -14.996
           -21.426         -4.981        64.642

Total shielding tensor (ppm): 
            27.024         -3.282         0.062
            -2.255         29.801        -0.722
            -0.597          0.870        25.982


 Diagonalized sT*s matrix:
 
 sDSO           -66.827          -49.866           44.474  iso=     -24.073
 sPSO            92.092           75.892          -12.959  iso=      51.675
        ---------------  ---------------  ---------------
 Total           25.266           26.026           31.515  iso=      27.602

 Orientation: 
  X          -0.8287361   -0.2117283    0.5180421
  Y          -0.4953227   -0.1533509   -0.8550667
  Z          -0.2604840    0.9652226   -0.0222136

 --------------
 Nucleus  80H :
 --------------

Diamagnetic contribution to the shielding tensor (ppm) : 
            27.815        -60.960       -10.994
            -3.041        -16.427         6.469
           -19.721         32.529       -10.901

Paramagnetic contribution to the shielding tensor (ppm): 
             0.518         58.776         7.694
             1.793         40.162        -3.962
            19.135        -30.625        41.058

Total shielding tensor (ppm): 
            28.333         -2.184        -3.300
            -1.248         23.735         2.507
            -0.586          1.905        30.157


 Diagonalized sT*s matrix:
 
 sDSO           -34.187            4.162           30.512  iso=       0.162
 sPSO            57.002           22.954            1.782  iso=      27.246
        ---------------  ---------------  ---------------
 Total           22.816           27.115           32.294  iso=      27.408

 Orientation: 
  X           0.2172012   -0.8369039   -0.5024098
  Y           0.9488890    0.0602864    0.3097987
  Z          -0.2289833   -0.5440197    0.8072231

 --------------
 Nucleus  81H :
 --------------

Diamagnetic contribution to the shielding tensor (ppm) : 
            65.639       -113.457         6.804
            19.364        -64.706        15.530
             2.364         30.007       -10.238

Paramagnetic contribution to the shielding tensor (ppm): 
           -32.002        113.339        -9.233
           -19.700         88.219       -16.835
            -5.620        -29.355        37.377

Total shielding tensor (ppm): 
            33.636         -0.118        -2.429
            -0.335         23.513        -1.305
            -3.256          0.652        27.139


 Diagonalized sT*s matrix:
 
 sDSO           -63.593           -0.707           54.995  iso=      -3.102
 sPSO            87.049           26.834          -20.290  iso=      31.198
        ---------------  ---------------  ---------------
 Total           23.457           26.127           34.704  iso=      28.096

 Orientation: 
  X          -0.0563504    0.3408531   -0.9384262
  Y          -0.9917977   -0.1271150    0.0133847
  Z          -0.1147259    0.9314832    0.3452203



--------------------------------
CHEMICAL SHIELDING SUMMARY (ppm)
--------------------------------


  Nucleus  Element    Isotropic     Anisotropy
  -------  -------  ------------   ------------
      0       C           24.910        122.838 
      1       C           45.650         94.729 
      2       C           24.783        120.477 
      3       C           77.104        134.128 
      4       C           41.053        191.436 
      5       C           75.638        125.066 
      6       C          139.947         45.726 
      7       C          133.052         14.831 
      8       C          132.432         10.586 
      9       C          138.846         34.280 
     10       C           44.873        184.915 
     11       C           62.541        166.346 
     12       C           30.040        114.191 
     13       C           32.144        125.093 
     14       C           66.559        144.048 
     15       C           54.976        148.187 
     16       C          113.726         73.549 
     17       C          108.617         44.720 
     23       C           94.214         40.788 
     24       C          101.914         44.397 
     25       C           45.355        180.040 
     26       C          111.833         54.952 
     28       C           71.187        161.896 
     29       C           30.757        117.449 
     30       C           32.562        119.778 
     31       C           68.034        145.287 
     32       C           56.514        155.618 
     33       C          123.726         78.452 
     34       C          122.597         73.461 
     35       C          122.103         83.258 
     41       C          123.419         76.994 
     42       H           26.595          7.888 
     43       H           25.605          9.786 
     44       H           29.974          7.117 
     45       H           29.203          4.141 
     46       H           30.349          8.376 
     47       H           30.018          6.071 
     48       H           28.402          8.268 
     49       H           28.388          7.002 
     50       H           23.258         10.050 
     51       H           24.832          2.531 
     52       H           24.672          5.330 
     53       H           27.912          5.988 
     54       H           27.847          8.229 
     55       H           28.033          8.700 
     56       H           27.140          7.089 
     57       H           25.291         10.687 
     58       H           26.490          6.413 
     59       H           26.694          4.720 
     60       H           27.419          7.133 
     61       H           27.453          5.256 
     62       H           29.364         16.903 
     63       H           24.670         10.553 
     64       H           25.266          5.347 
     65       H           25.224          4.039 
     66       H           27.919          9.777 
     67       H           27.540          9.589 
     68       H           27.895          7.343 
     69       H           27.567          6.562 
     70       H           28.262          7.792 
     71       H           28.838          9.485 
     72       H           27.363          5.871 
     73       H           27.401          9.496 
     74       H           28.082          9.937 
     75       H           29.213         19.450 
     76       H           27.912         24.215 
     77       H           26.208         23.918 
     78       H           24.802         16.950 
     79       H           27.602          5.869 
     80       H           27.408          7.329 
     81       H           28.096          9.912 


NMR shielding tensor and spin rotation calculation done in   3.2 sec 

Maximum memory used throughout the entire PROP-calculation: 369.9 MB
--------------------------------------------------------------------------
WARNING: There was an error initializing an OpenFabrics device.

  Local host:   c01b01n07
  Local device: mlx5_0
--------------------------------------------------------------------------
--------------------------------------------------------------------------
WARNING: There is at least one non-excluded one OpenFabrics device found,
but there are no active ports detected (or Open MPI was unable to use
them).  This is most certainly not what you wanted.  Check your
cables, subnet manager configuration, etc.  The openib BTL will be
ignored for this job.

  Local host: c01b01n07
--------------------------------------------------------------------------
[c01b01n07:52415] 48 more processes have sent help message help-mpi-btl-openib.txt / error in device init
[c01b01n07:52415] Set MCA parameter "orte_base_help_aggregate" to 0 to see all help / error messages
[c01b01n07:52415] 10 more processes have sent help message help-mpi-btl-openib.txt / no active ports found

--------------------------------
SUGGESTED CITATIONS FOR THIS RUN
--------------------------------

Below you find a list of papers that are relevant to this ORCA run
We neither can nor want to force you to cite these papers, but we appreciate if you do
You receive ORCA, which is the product of decades of hard work by many enthusiastic individuals, for free
The only thing we kindly ask in return is that you cite our papers,
We deeply appreciate it, if you show your appreciation for ORCA by not just citing the generic ORCA reference.

Please note that relegating all ORCA citations to the supporting information does *not* help us.
SI sections are not indexed - citations you put there will not count into any citation statistics
But we need these citations in order to attract the funding resources that allow us to do what we are doing

Therefore, if you are a happy ORCA user, please consider citing a few of the papers listed below in the main body of your paper

In addition to the list printed below, the program has created the file nmr-conf-1.bibtex that contains the list in bibtex format
You can import this file easily into all common literature databanks and citation aid programs


List of essential papers. We consider these as the minimum necessary citations

  1. Neese, F.
     Software update: the ORCA program system, version 6.0
     WIRES Comput. Molec. Sci. 2025 15(1), e70019
     doi.org/10.1002/wcms.7019

List of papers to cite with high priority. The work reported in these papers was absolutely
necessary for this run to complete.
Our perspective: the developers of density functionals and basis sets usually get cited in chemistry papers
Good! But without the algorithms to do something with them, the functionals or basis sets would not do anything.
Hence, in our opinion, the algorithm design and method developments papers are equally worthy of getting cited

  1. Neese, F.
     An improvement of the resolution of the identity approximation for the formation of the Coulomb matrix
     J. Comp. Chem. 2003 24(14), 1740-1747
     doi.org/10.1002/jcc.10318
  2. Stoychev, G.L.; Auer, A.A.; Neese, F.
     Automatic Generation of Auxiliary Basis Sets
     J. Theo. Comp. Chem. 2017 13 , 554-562
     doi.org/10.1021/acs.jctc.6b01041
  3. Stoychev, G.L.; Auer, A.A.; Izsak, R.; Neese, F.
     Self-Consistent Field Calculation of Nuclear Magnetic Resonance Chemical Shielding Constants Using Gauge-Including Atomic Orbitals and Approximate Two-Electron Integrals
     J. Chem. Theory Comput. 2018 14(2), 619-637
     doi.org/10.1021/acs.jctc.7b01006
  4. Garcia-Rates, M.; Neese, F.
     Effect of the Solute Cavity on the Solvation Energy and its Derivatives within the Framework of the Gaussian Charge Scheme
     J. Comput. Chem. 2020 41 , 922-939
     doi.org/10.1002/jcc.26139
  5. Neese, F.
     The SHARK Integral Generation and Digestion System
     J. Comp. Chem. 2022 44(3), 381
     doi.org/10.1002/jcc.26942

List of suggested additional citations. These are papers that are important in the 'surrounding' of 
of this run, or papers that preceded the highly important papers. If you like your results we are grateful for a citation.

  1. Neese, F.
     The ORCA program system
     WIRES Comput. Molec. Sci. 2012 2(1), 73-78
     doi.org/10.1002/wcms.81
  2. Neese, F.
     Software update: the ORCA program system, version 4.0
     WIRES Comput. Molec. Sci. 2018 8(1), 1-6
     doi.org/10.1002/wcms.1327
  3. Neese, F.; Wennmohs, F.; Becker, U.; Riplinger, C.
     The ORCA quantum chemistry program package
     J. Chem. Phys. 2020 152(22), 224108
     doi.org/10.1063/5.0004608
  4. Neese, F.
     Software update: The ORCA program system—Version 5.0
     WIRES Comput. Molec. Sci. 2022 12(1), e1606
     doi.org/10.1002/wcms.1606

List of optional additional citations

  1. Neese, F.
     Approximate second-order SCF convergence for spin unrestricted wavefunctions
     Chem. Phys. Lett. 2000 325(1-3), 93-98
     doi.org/10.1016/s0009-2614(00)00662-x

Timings for individual modules:

Sum of individual times          ...      283.706 sec (=   4.728 min)
Startup calculation              ...       93.726 sec (=   1.562 min)  33.0 %
SCF iterations                   ...      112.309 sec (=   1.872 min)  39.6 %
Property integrals               ...       53.292 sec (=   0.888 min)  18.8 %
SCF Response                     ...       13.591 sec (=   0.227 min)   4.8 %
Property calculations            ...       10.788 sec (=   0.180 min)   3.8 %
                             ****ORCA TERMINATED NORMALLY****
TOTAL RUN TIME: 0 days 0 hours 5 minutes 9 seconds 817 msec
