
                                 *****************
                                 * O   R   C   A *
                                 *****************

                                            #,                                       
                                            ###                                      
                                            ####                                     
                                            #####                                    
                                            ######                                   
                                           ########,                                 
                                     ,,################,,,,,                         
                               ,,#################################,,                 
                          ,,##########################################,,             
                       ,#########################################, ''#####,          
                    ,#############################################,,   '####,        
                  ,##################################################,,,,####,       
                ,###########''''           ''''###############################       
              ,#####''   ,,,,##########,,,,          '''####'''          '####       
            ,##' ,,,,###########################,,,                        '##       
           ' ,,###''''                  '''############,,,                           
         ,,##''                                '''############,,,,        ,,,,,,###''
      ,#''                                            '''#######################'''  
     '                                                          ''''####''''         
             ,#######,   #######,   ,#######,      ##                                
            ,#'     '#,  ##    ##  ,#'     '#,    #''#        ,####,    ,#,          
            ##       ##  ##   ,#'  ##            #'  '#       #'       ,# #          
            ##       ##  #######   ##           ,######,      #####,      #          
            '#,     ,#'  ##    ##  '#,     ,#' ,#      #,     #,   #      #          
             '#######'   ##     ##  '#######'  #'      '#     '####' #    #          



                #########################################################
                #                        -***-                          #
                #          Department of theory and spectroscopy        #
                #                                                       #
                #                      Frank Neese                      #
                #                                                       #
                #     Directorship, Architecture, Infrastructure        #
                #                    SHARK, DRIVERS                     #
                #        Core code/Algorithms in most modules           #
                #                                                       #
                #        Max Planck Institute fuer Kohlenforschung      #
                #                Kaiser Wilhelm Platz 1                 #
                #                 D-45470 Muelheim/Ruhr                 #
                #                      Germany                          #
                #                                                       #
                #                  All rights reserved                  #
                #                        -***-                          #
                #########################################################


                         Program Version 6.1.0-f.0  -   RELEASE   -


 With contributions from (in alphabetic order):
[Max-Planck-Institut fuer Kohlenforschung]                               
  Daniel Aravena         : Magnetic Suceptibility                        
  Michael Atanasov       : Ab Initio Ligand Field Theory (pilot matlab implementation)
  Alexander A. Auer      : GIAO ZORA, VPT2 properties, NMR spectrum      
  Ute Becker             : All parallelization in ORCA, NUMFREQ, NUMCALC 
  Giovanni Bistoni       : ED, misc. LED, open-shell LED, HFLD           
  Dmytro Bykov           : pre 5.0 version of the SCF Hessian            
  Marcos Casanova-Páez   : Triplet and SCS-CIS(D). UHF-(DLPNO)-IP/EA/STEOM-CCSD. UHF-CVS-IP/STEOM-CCSD   
  Vijay G. Chilkuri      : MRCI spin determinant printing, contributions to CSF-ICE 
  Pauline Colinet        : FMM embedding                                 
  Dipayan Datta          : RHF DLPNO-CCSD density                        
  Achintya Kumar Dutta   : EOM-CC, STEOM-CC                              
  Nicolas Foglia         : Exact transition moments, OPA infrastructure, MCD improvements    
  Dmitry Ganyushin       : Spin-Orbit,Spin-Spin,Magnetic field MRCI      
  Miquel Garcia-Rates    : C-PCM and meta-GGA Hessian, CCSD/C-PCM, Gaussian charge scheme 
  Tiago L. C. Gouveia    : GS-ROHF, GS-ROCIS                             
  Yang Guo               : DLPNO-NEVPT2, F12-NEVPT2, CIM, IAO-localization        
  Andreas Hansen         : Spin unrestricted coupled pair/coupled cluster methods 
  Ingolf Harden          : AUTO-CI MPn and infrastructure                
  Benjamin Helmich-Paris : MC-RPA, TRAH-(SCF,CASSCF), AVAS, COSX integrals, SCF dyn. polar., MC-PDFT, srDFT 
  Lee Huntington         : MR-EOM, pCC                                   
  Robert Izsak           : Overlap fitted RIJCOSX, COSX-SCS-MP3, EOM     
  Riya Kayal             : Wick's Theorem for AUTO-CI, AUTO-CI UHF-CCSDT 
  Emily Kempfer          : AUTO-CI RHF CISDT and CCSDT, approximate NEVPT4
  Christian Kollmar      : KDIIS, OOCD, Brueckner-CCSD(T), CCSD density, CASPT2, CASPT2-K, improved NEVPT2 
  Axel Koslowski         : Symmetry handling                             
  Simone Kossmann        : meta-GGA functionals, TD-DFT gradient, OOMP2, (MP2 Hessian; deprecated post 5.0) 
  Lucas Lang             : DCDCAS, Hyperfine gauge corrections, ICE-SOC+SSC
  Marvin Lechner         : AUTO-CI (C++ implementation), FIC-MRCC        
  Spencer Leger          : CASSCF response                               
  Dagmar Lenk            : GEPOL surface, SMD, ORCA-2-JSON               
  Dimitrios Liakos       : Extrapolation schemes; Compound Job, Property file
  Dimitrios Manganas     : Further ROCIS development; embedding schemes. LFT, Crystal Embedding 
  Dimitrios Pantazis     : SARC Basis sets                               
  Anastasios Papadopoulos: AUTO-CI, single reference methods and gradients 
  Taras Petrenko         : pre 6.0 DFT Hessian and TD-DFT gradient,  ECA, NRVS 
  Petra Pikulova         : Analytic Raman intensities                    
  Peter Pinski           : DLPNO-MP2, DLPNO-MP2 Gradient                 
  Shashank Vittal Rao    : ES-AILFT, MagRelax                            
  Christoph Reimann      : Effective Core Potentials                     
  Marius Retegan         : Local ZFS, SOC                                
  Christoph Riplinger    : Optimizer, TS searches, QM/MM, DLPNO-CCSD(T), (RO)-DLPNO pert. Triples 
  Michael Roemelt        : Original ROCIS implementation, recursive CI coupling coefficients
  Masaaki Saitow         : Open-shell DLPNO-CCSD energy and density      
  Barbara Sandhoefer     : DKH picture change effects                    
  Yorick L. A. Schmerwitz: GMF and freeze-and-release deltaSCF, NEB S-IDPP initial path                    
  Kantharuban Sivalingam : CASSCF convergence/infrastructure, NEVPT2, NEVPT3, NEVPT4(SD), FIC-MRCI and CEPA variants
  Bernardo de Souza      : ESD, SOC TD-DFT                               
  Georgi L. Stoychev     : AutoAux, RI-MP2 NMR, DLPNO-MP2 response, X2C  
  Van Anh Tran           : RI-MP2 g-tensors                              
  Willem Van den Heuvel  : Paramagnetic NMR                              
  Zikuan Wang            : NOTCH, Electric field optimization            
  Frank Wennmohs         : Technical directorship and infrastructure     
  Hang Xu                : AUTO-CI-Response properties                   
                                                                         
[FACCTs GmbH]                                                            
  Markus Bursch, Nicolas Foglia, Miquel Garcia-Rates, Ingolf Harden, Hagen Neugebauer, Anastasios Papadopoulos, 
  Christoph Riplinger, Bernardo de Souza, Georgi L. Stoychev                                                    
                                                                 
  APM, various basis sets, CI-OPT, improved COSX, DLPNO-Multilevel,           
  DOCKER, DRACO, updates on ESD, Fragmentator, GOAT, IRC, LR-CPCM, L-BFGS, MBIS, meta-GGA TD-DFT gradient, ML-optimized integration grids, 
  MM, NACMEs, nearIR, NEB, NEB-TS, NL-DFT gradient (VV10), 2- and 3-layer-ONIOM, interface openCOSMO-RS, QMMM,   
  Crystal-QMMM, RESP, rigid body optimization, SF, symmetry and pop. for TD-DFT, various functionals, SOLVATOR                                   
                                                                         
[Other institutions]                                                     
  V. Asgeirsson          : NEB                                           
  Christoph Bannwarth    : sTDA-DFT, sTD-DFT, PBEh-3c, B97-3c, D3        
  Giovanni Bistoni       : ETS/NOCV, ADLD/ADEX, COVALED                  
  Martin Brehm           : Molecular dynamics                            
  Ronald Cardenas        : ETS/NOCV                                      
  Martina Colucci        : COVALED                                       
  Sebastian Ehlert       : rSCAN, r2SCAN, r2SCAN-3c, D4, dhf basis sets  
  Marvin Friede          : D4 for Fr, Ra, Ac-Lr                          
  Lars Goerigk           : TD-DFT with DH, B97 family of functionals     
  Stefan Grimme          : VdW corrections, initial TS optimization, DFT functionals, gCP, sTDA/sTD-DF 
  Waldemar Hujo          : DFT-NL                                        
  H. Jonsson             : NEB                                           
  Holger Kruse           : gCP                                           
  Marcel Mueller         : wB97X-3c, vDZP basis set                      
  Hagen Neugebauer       : wr2SCAN, Native XTB                           
  Gianluca Regni         : ADLD/ADEX                                     
  Tobias Risthaus        : pre 6.0 range-separated hybrid DFT and stability analysis
  Lukas Wittmann         : regularized MP2, r2SCAN double-hybrids, wr2SCAN        
                                                                         
We gratefully acknowledge several colleagues who have allowed us to      
interface, adapt or use parts of their codes:                            
  Ed Valeev, F. Pavosevic, A. Kumar             : LibInt (2-el integral package), F12 methods 
  Garnet Chan, S. Sharma, J. Yang, R. Olivares  : DMRG                   
  Ulf Ekstrom                                   : XCFun DFT Library      
  Mihaly Kallay                                 : mrcc  (arbitrary order and MRCC methods)
  Frank Weinhold                                : gennbo (NPA and NBO analysis)           
  Simon Mueller                                 : openCOSMO-RS                            
  Christopher J. Cramer and Donald G. Truhlar   : smd solvation model                     
  S Lehtola, MJT Oliveira, MAL Marques          : LibXC Library                           
  Liviu Ungur et al                             : ANISO software                          


 Your calculation uses the libint2 library for the computation of 2-el integrals
 For citations please refer to: http://libint.valeyev.net

 Your ORCA version has been built with support for libXC version: 7.0.0
 For citations please refer to: https://libxc.gitlab.io

 This ORCA versions uses:
   CBLAS   interface :  Fast vector & matrix operations
   LAPACKE interface :  Fast linear algebra routines
   SCALAPACK package :  Parallel linear algebra routines
   Shared memory     :  Shared parallel matrices
   BLAS/LAPACK       :  OpenBLAS 0.3.29  USE64BITINT DYNAMIC_ARCH NO_AFFINITY Cooperlake SINGLE_THREADED
        Core in use  :  Cooperlake
   Copyright (c) 2011-2014, The OpenBLAS Project


  ***********************************
  * Starting time: Sat Feb 28 07:35:33 2026
  * Host name:     c03b01n04
  * Process ID:    833073
  * Working dir.:  /lustre1/jiangy/jiangy_liuxy/NMR/B9D7C2-RSSS
  ***********************************

NOTE: MaxCore=6000 MB was set to SCF,MP2,MDCI,CIPSI,MRCI,RASCI and CIS
      => If you want to overwrite this, your respective input block should be placed after the MaxCore statement


***************************************
The coordinates will be read from file: conf-2.xyz
***************************************


Your calculation utilizes the atom-pairwise dispersion correction
based on EEQ partial charges (D4)


Warning: RI is on but no J-basis has been assigned. Assigning Def2/J (nothing to worry about!)
================================================================================

----- Orbital basis set information -----
Your calculation utilizes the basis: def2-TZVP
   F. Weigend and R. Ahlrichs, Phys. Chem. Chem. Phys. 7, 3297 (2005).

----- AuxJ basis set information -----
Your calculation utilizes the auxiliary basis: def2/J
   H-Rn: F. Weigend, Phys. Chem. Chem. Phys. 8, 1057 (2006).
   Fr-Lr: K. Eichkorn, F. Weigend, O. Treutler, R. Ahlrichs; Theor. Chem. Acc. 97, 119 (1997).

================================================================================
                                        WARNINGS
                       Please study these warnings very carefully!
================================================================================


WARNING: Geometry Optimization
  ===> : Switching off AutoStart
         For restart on a previous wavefunction, please use MOREAD

================================================================================
                                       INPUT FILE
================================================================================
NAME = opt-conf-2.inp
|  1> ! B3LYP OPT FREQ DEF2-TZVP D4 CPCM(Methanol) 
|  2> ! TightOpt
|  3> %pal nprocs 64 end
|  4> %maxcore 6000
|  5> 
|  6> %cpcm
|  7> end
|  8> 
|  9> %freq
| 10>    Temp 298.15
| 11> end
| 12> 
| 13> * xyzfile 0 1 conf-2.xyz
| 14> 
| 15> 
| 16>                          ****END OF INPUT****
================================================================================

                       *****************************
                       * Geometry Optimization Run *
                       *****************************

Geometry optimization settings:
Update method            Update   .... BFGS
Choice of coordinates    CoordSys .... (2022) Redundant Internals
Initial Hessian          InHess   .... Almloef's Model
Max. no of cycles        MaxIter  .... 246

Convergence Tolerances:
Energy Change            TolE     ....  1.0000e-06 Eh
Max. Gradient            TolMAXG  ....  1.0000e-04 Eh/bohr
RMS Gradient             TolRMSG  ....  3.0000e-05 Eh/bohr
Max. Displacement        TolMAXD  ....  1.0000e-03 bohr
RMS Displacement         TolRMSD  ....  6.0000e-04 bohr
Strict Convergence                .... False

------------------------------------------------------------------------------
                        ORCA OPTIMIZATION COORDINATE SETUP
------------------------------------------------------------------------------

The optimization will be done in redundant internal coordinates (2022)
Making redundant internal coordinates   ...  (2022 redundants) done
Evaluating the initial hessian          ...  (Almloef) done
Evaluating the coordinates              ...  done
Calculating the B-matrix                .... done
Calculating the G-matrix                .... done
The number of degrees of freedom        ....  408

    -----------------------------------------------------------------
                    Redundant Internal Coordinates


    -----------------------------------------------------------------
         Definition                    Initial Value    Approx d2E/dq
    -----------------------------------------------------------------
      1. B(C   1,C   0)                  1.3994         0.603644   
      2. B(C   2,C   1)                  1.3998         0.602802   
      3. B(C   3,C   2)                  1.3891         0.626860   
      4. B(C   4,C   3)                  1.3859         0.634247   
      5. B(C   5,C   4)                  1.3878         0.629839   
      6. B(C   5,C   0)                  1.3868         0.632211   
      7. B(C   6,C   4)                  1.5032         0.412291   
      8. B(C   7,C   6)                  1.5389         0.361609   
      9. B(C   8,C   7)                  1.5438         0.355108   
     10. B(C   9,C   8)                  1.5387         0.361794   
     11. B(C  10,C   9)                  1.5038         0.411392   
     12. B(C  11,C  10)                  1.3921         0.619974   
     13. B(C  12,C  11)                  1.3835         0.639939   
     14. B(C  13,C  12)                  1.4033         0.594997   
     15. B(C  14,C  13)                  1.3839         0.639050   
     16. B(C  15,C  10)                  1.3870         0.631637   
     17. B(C  15,C  14)                  1.3839         0.639001   
     18. B(C  16,C   7)                  1.5374         0.363526   
     19. B(C  17,C   8)                  1.5386         0.361959   
     20. B(O  18,C   2)                  1.3636         0.616531   
     21. B(O  19,C   0)                  1.3648         0.613922   
     22. B(O  20,C   1)                  1.3782         0.584487   
     23. B(O  21,C  13)                  1.3627         0.618589   
     24. B(O  22,C  12)                  1.3802         0.580141   
     25. B(C  23,O  20)                  1.4278         0.487090   
     26. B(C  24,C  23)                  1.5482         0.349412   
     27. B(C  25,C  24)                  1.5205         0.386906   
     28. B(C  26,C  23)                  1.5318         0.371060   
     29. B(O  27,C  26)                  1.4019         0.535702   
     30. B(C  28,C  25)                  1.3912         0.622151   
     31. B(C  29,C  28)                  1.3821         0.643285   
     32. B(C  30,C  29)                  1.4017         0.598422   
     33. B(C  31,C  30)                  1.3827         0.641863   
     34. B(C  32,C  31)                  1.3846         0.637220   
     35. B(C  32,C  25)                  1.3861         0.633772   
     36. B(C  33,O  19)                  1.4067         0.526295   
     37. B(C  34,O  18)                  1.4069         0.525881   
     38. B(C  35,O  22)                  1.4058         0.528131   
     39. B(O  36,C  24)                  1.4025         0.534422   
     40. B(O  37,C  16)                  1.4075         0.524749   
     41. B(O  38,C  17)                  1.4049         0.529760   
     42. B(O  39,C  29)                  1.3755         0.590211   
     43. B(O  40,C  30)                  1.3692         0.604039   
     44. B(C  41,O  39)                  1.4090         0.521845   
     45. B(H  42,C   3)                  1.0779         0.376497   
     46. B(H  43,C   5)                  1.0781         0.376218   
     47. B(H  44,C   6)                  1.0907         0.359235   
     48. B(H  45,C   6)                  1.0881         0.362565   
     49. B(H  46,C   7)                  1.0961         0.352177   
     50. B(H  47,C   8)                  1.0959         0.352414   
     51. B(H  48,C   9)                  1.0916         0.358034   
     52. B(H  49,C   9)                  1.0937         0.355193   
     53. B(H  50,C  11)                  1.0795         0.374301   
     54. B(H  51,C  14)                  1.0775         0.377010   
     55. B(H  52,C  15)                  1.0789         0.375025   
     56. B(H  53,C  16)                  1.0974         0.350454   
     57. B(H  54,C  16)                  1.0936         0.355364   
     58. B(H  55,C  17)                  1.0944         0.354264   
     59. B(H  56,C  17)                  1.1008         0.346117   
     60. B(H  57,O  21)                  0.9666         0.507561   
     61. B(H  57,O  22)                  2.1242         0.010000   
     62. B(H  58,C  23)                  1.0938         0.355147   
     63. B(H  59,C  24)                  1.0977         0.350022   
     64. B(H  60,C  26)                  1.0917         0.357824   
     65. B(H  61,C  26)                  1.0987         0.348786   
     66. B(H  62,O  20)                  2.3312         0.010000   
     67. B(H  62,O  27)                  0.9660         0.508531   
     68. B(H  63,C  28)                  1.0779         0.376427   
     69. B(H  64,C  31)                  1.0784         0.375780   
     70. B(H  65,C  32)                  1.0786         0.375502   
     71. B(H  66,C  33)                  1.0936         0.355344   
     72. B(H  67,C  33)                  1.0936         0.355427   
     73. B(H  68,C  33)                  1.0893         0.360961   
     74. B(H  69,H  64)                  4.4264         0.010000   
     75. B(H  69,C  34)                  1.0946         0.354045   
     76. B(H  70,C  34)                  1.0942         0.354545   
     77. B(H  71,C  34)                  1.0888         0.361707   
     78. B(H  72,H  66)                  2.8593         0.010000   
     79. B(H  72,C  35)                  1.0951         0.353402   
     80. B(H  73,C  35)                  1.0940         0.354794   
     81. B(H  74,C  35)                  1.0889         0.361511   
     82. B(H  75,O  20)                  2.2665         0.010000   
     83. B(H  75,O  19)                  2.1930         0.010000   
     84. B(H  75,O  36)                  0.9720         0.497578   
     85. B(H  76,O  40)                  1.9797         0.012276   
     86. B(H  76,O  37)                  0.9699         0.501304   
     87. B(H  77,O  37)                  2.0168         0.010712   
     88. B(H  77,O  38)                  0.9692         0.502707   
     89. B(H  78,O  39)                  2.1064         0.010000   
     90. B(H  78,O  40)                  0.9680         0.504938   
     91. B(H  79,H  51)                  2.6773         0.010000   
     92. B(H  79,C  41)                  1.0883         0.362289   
     93. B(H  80,C  41)                  1.0937         0.355231   
     94. B(H  81,H  67)                  2.3484         0.010000   
     95. B(H  81,C  41)                  1.0925         0.356749   
     96. A(C   1,C   0,O  19)          115.2702         0.428405   
     97. A(C   5,C   0,O  19)          124.9762         0.431975   
     98. A(C   1,C   0,C   5)          119.7524         0.433502   
     99. A(C   0,C   1,O  20)          118.5240         0.424651   
    100. A(C   0,C   1,C   2)          119.8419         0.429807   
    101. A(C   2,C   1,O  20)          121.5409         0.424545   
    102. A(C   3,C   2,O  18)          124.7571         0.431645   
    103. A(C   1,C   2,C   3)          119.4814         0.432731   
    104. A(C   1,C   2,O  18)          115.7614         0.428623   
    105. A(C   4,C   3,H  42)          119.0278         0.356956   
    106. A(C   2,C   3,H  42)          120.3459         0.356247   
    107. A(C   2,C   3,C   4)          120.6262         0.436710   
    108. A(C   5,C   4,C   6)          119.1468         0.404752   
    109. A(C   3,C   4,C   6)          120.9606         0.405250   
    110. A(C   3,C   4,C   5)          119.8454         0.437083   
    111. A(C   4,C   5,H  43)          118.7390         0.356489   
    112. A(C   0,C   5,H  43)          120.8282         0.356717   
    113. A(C   0,C   5,C   4)          120.4259         0.436830   
    114. A(C   4,C   6,H  44)          110.3039         0.329499   
    115. A(C   7,C   6,H  45)          109.3107         0.322952   
    116. A(C   4,C   6,C   7)          109.6582         0.367484   
    117. A(H  44,C   6,H  45)          108.4964         0.291041   
    118. A(C   4,C   6,H  45)          108.9172         0.330002   
    119. A(C   7,C   6,H  44)          110.1246         0.322464   
    120. A(C   6,C   7,C  16)          108.8258         0.359662   
    121. A(C   8,C   7,C  16)          111.1929         0.358553   
    122. A(C  16,C   7,H  46)          107.6294         0.321696   
    123. A(C   8,C   7,H  46)          106.6229         0.320466   
    124. A(C   6,C   7,H  46)          107.1293         0.321418   
    125. A(C   6,C   7,C   8)          115.0948         0.358230   
    126. A(C   7,C   8,C  17)          113.5056         0.358289   
    127. A(C  17,C   8,H  47)          105.9365         0.321504   
    128. A(C   7,C   8,C   9)          112.7394         0.358262   
    129. A(C   9,C   8,H  47)          107.4858         0.321480   
    130. A(C   7,C   8,H  47)          106.1839         0.320501   
    131. A(C   9,C   8,C  17)          110.4782         0.359429   
    132. A(H  48,C   9,H  49)          107.1901         0.289952   
    133. A(C  10,C   9,H  48)          109.8432         0.329198   
    134. A(C  10,C   9,H  49)          108.7171         0.328765   
    135. A(C   8,C   9,C  10)          113.6349         0.367379   
    136. A(C   8,C   9,H  48)          109.6407         0.322314   
    137. A(C   8,C   9,H  49)          107.5879         0.321894   
    138. A(C   9,C  10,C  11)          120.1740         0.403470   
    139. A(C  11,C  10,C  15)          118.7537         0.435518   
    140. A(C   9,C  10,C  15)          121.0703         0.404799   
    141. A(C  10,C  11,C  12)          120.8955         0.436544   
    142. A(C  10,C  11,H  50)          119.0795         0.355227   
    143. A(C  12,C  11,H  50)          120.0228         0.357144   
    144. A(C  11,C  12,C  13)          119.7731         0.433324   
    145. A(C  13,C  12,O  22)          114.6569         0.422992   
    146. A(C  11,C  12,O  22)          125.5686         0.428542   
    147. A(C  12,C  13,O  21)          120.3543         0.427878   
    148. A(C  12,C  13,C  14)          119.3303         0.433216   
    149. A(C  14,C  13,O  21)          120.3154         0.433401   
    150. A(C  13,C  14,H  51)          118.4754         0.357497   
    151. A(C  13,C  14,C  15)          120.3124         0.438820   
    152. A(C  15,C  14,H  51)          121.2107         0.357493   
    153. A(C  14,C  15,H  52)          119.3265         0.357172   
    154. A(C  10,C  15,H  52)          119.7427         0.356469   
    155. A(C  10,C  15,C  14)          120.9281         0.437897   
    156. A(O  37,C  16,H  54)          105.9768         0.340286   
    157. A(C   7,C  16,H  54)          110.3985         0.322171   
    158. A(O  37,C  16,H  53)          110.5798         0.339496   
    159. A(C   7,C  16,H  53)          108.3830         0.321438   
    160. A(C   7,C  16,O  37)          113.4304         0.381039   
    161. A(H  53,C  16,H  54)          107.9384         0.289003   
    162. A(O  38,C  17,H  56)          110.5315         0.339329   
    163. A(C   8,C  17,O  38)          112.9227         0.381381   
    164. A(H  55,C  17,H  56)          107.4623         0.288300   
    165. A(C   8,C  17,H  56)          110.2900         0.320557   
    166. A(O  38,C  17,H  55)          105.3875         0.340651   
    167. A(C   8,C  17,H  55)          110.0016         0.321780   
    168. A(C   2,O  18,C  34)          118.7539         0.415580   
    169. A(C   0,O  19,C  33)          118.0993         0.415325   
    170. A(C   1,O  20,C  23)          116.4986         0.406111   
    171. A(C  13,O  21,H  57)          107.7486         0.368441   
    172. A(C  12,O  22,C  35)          118.1537         0.411425   
    173. A(C  26,C  23,H  58)          109.0139         0.323224   
    174. A(C  24,C  23,H  58)          110.9805         0.320059   
    175. A(O  20,C  23,H  58)          110.2728         0.336052   
    176. A(C  24,C  23,C  26)          111.4502         0.358818   
    177. A(O  20,C  23,C  26)          105.1920         0.377494   
    178. A(O  20,C  23,C  24)          109.7787         0.373595   
    179. A(C  23,C  24,O  36)          109.1177         0.379632   
    180. A(O  36,C  24,H  59)          106.2036         0.340464   
    181. A(C  25,C  24,H  59)          108.8647         0.324675   
    182. A(C  23,C  24,H  59)          108.2641         0.319300   
    183. A(C  25,C  24,O  36)          112.1970         0.386415   
    184. A(C  23,C  24,C  25)          111.9590         0.361384   
    185. A(C  28,C  25,C  32)          119.1438         0.436058   
    186. A(C  24,C  25,C  32)          121.9349         0.400681   
    187. A(C  24,C  25,C  28)          118.9042         0.399379   
    188. A(O  27,C  26,H  61)          110.9517         0.340398   
    189. A(H  60,C  26,H  61)          109.1014         0.289099   
    190. A(C  23,C  26,H  61)          108.5246         0.322268   
    191. A(O  27,C  26,H  60)          106.9200         0.341858   
    192. A(C  23,C  26,H  60)          110.1840         0.323622   
    193. A(C  23,C  26,O  27)          111.1397         0.383773   
    194. A(C  26,O  27,H  62)          106.8800         0.359605   
    195. A(C  29,C  28,H  63)          120.8721         0.357805   
    196. A(C  25,C  28,H  63)          118.3573         0.355780   
    197. A(C  25,C  28,C  29)          120.7695         0.437230   
    198. A(C  30,C  29,O  39)          114.8398         0.424731   
    199. A(C  28,C  29,O  39)          125.6072         0.430270   
    200. A(C  28,C  29,C  30)          119.5502         0.434179   
    201. A(C  31,C  30,O  40)          120.4977         0.431892   
    202. A(C  29,C  30,O  40)          119.8882         0.426496   
    203. A(C  29,C  30,C  31)          119.6055         0.434006   
    204. A(C  32,C  31,H  64)          120.7271         0.357124   
    205. A(C  30,C  31,H  64)          118.9811         0.357565   
    206. A(C  30,C  31,C  32)          120.2808         0.438946   
    207. A(C  31,C  32,H  65)          118.9135         0.357080   
    208. A(C  25,C  32,H  65)          120.5931         0.356751   
    209. A(C  25,C  32,C  31)          120.4916         0.437943   
    210. A(H  67,C  33,H  68)          109.7217         0.290352   
    211. A(H  66,C  33,H  68)          109.1765         0.290342   
    212. A(O  19,C  33,H  68)          105.7409         0.341344   
    213. A(H  66,C  33,H  67)          109.2653         0.289639   
    214. A(O  19,C  33,H  67)          111.4849         0.340464   
    215. A(O  19,C  33,H  66)          111.3750         0.340450   
    216. A(H  69,C  34,H  71)          109.4340         0.290269   
    217. A(O  18,C  34,H  71)          105.3995         0.341417   
    218. A(H  69,C  34,H  70)          109.5042         0.289360   
    219. A(O  18,C  34,H  70)          111.4972         0.340277   
    220. A(O  18,C  34,H  69)          111.5435         0.340197   
    221. A(H  70,C  34,H  71)          109.3613         0.290333   
    222. A(H  73,C  35,H  74)          109.3471         0.290341   
    223. A(H  72,C  35,H  74)          109.2867         0.290162   
    224. A(O  22,C  35,H  74)          105.6962         0.341630   
    225. A(H  72,C  35,H  73)          109.4492         0.289309   
    226. A(O  22,C  35,H  73)          111.4373         0.340560   
    227. A(O  22,C  35,H  72)          111.5303         0.340337   
    228. A(C  24,O  36,H  75)          106.1782         0.358129   
    229. A(C  16,O  37,H  76)          108.0364         0.357472   
    230. A(C  17,O  38,H  77)          108.6466         0.358220   
    231. A(C  29,O  39,C  41)          117.9957         0.411808   
    232. A(C  30,O  40,H  78)          107.2260         0.366614   
    233. A(H  80,C  41,H  81)          109.5650         0.289793   
    234. A(H  79,C  41,H  81)          108.7451         0.290689   
    235. A(O  39,C  41,H  81)          111.7546         0.340192   
    236. A(H  79,C  41,H  80)          109.8030         0.290495   
    237. A(O  39,C  41,H  80)          111.1113         0.339950   
    238. A(O  39,C  41,H  79)          105.7653         0.341069   
    239. D(O  20,C   1,C   0,O  19)     -2.1615         0.025137   
    240. D(C   2,C   1,C   0,O  19)   -178.7070         0.025137   
    241. D(C   2,C   1,C   0,C   5)      1.6678         0.025137   
    242. D(O  20,C   1,C   0,C   5)    178.2133         0.025137   
    243. D(O  18,C   2,C   1,C   0)    178.6968         0.025063   
    244. D(C   3,C   2,C   1,C   0)     -1.4439         0.025063   
    245. D(C   3,C   2,C   1,O  20)   -177.8824         0.025063   
    246. D(O  18,C   2,C   1,O  20)      2.2582         0.025063   
    247. D(C   4,C   3,C   2,C   1)      0.0457         0.027228   
    248. D(H  42,C   3,C   2,O  18)     -0.1853         0.027228   
    249. D(C   4,C   3,C   2,O  18)    179.8915         0.027228   
    250. D(H  42,C   3,C   2,C   1)    179.9689         0.027228   
    251. D(C   6,C   4,C   3,H  42)      3.7262         0.027916   
    252. D(C   5,C   4,C   3,H  42)   -178.7927         0.027916   
    253. D(C   5,C   4,C   3,C   2)      1.1315         0.027916   
    254. D(C   6,C   4,C   3,C   2)   -176.3495         0.027916   
    255. D(H  43,C   5,C   4,C   6)     -2.4269         0.027504   
    256. D(H  43,C   5,C   4,C   3)   -179.9537         0.027504   
    257. D(C   0,C   5,C   4,C   3)     -0.9057         0.027504   
    258. D(C   4,C   5,C   0,O  19)    179.9208         0.027725   
    259. D(H  43,C   5,C   0,C   1)    178.5351         0.027725   
    260. D(H  43,C   5,C   0,O  19)     -1.0512         0.027725   
    261. D(C   0,C   5,C   4,C   6)    176.6211         0.027504   
    262. D(C   4,C   5,C   0,C   1)     -0.4929         0.027725   
    263. D(H  45,C   6,C   4,C   3)   -141.4655         0.012585   
    264. D(H  44,C   6,C   4,C   5)    160.0077         0.012585   
    265. D(H  44,C   6,C   4,C   3)    -22.4939         0.012585   
    266. D(C   7,C   6,C   4,C   5)    -78.5437         0.012585   
    267. D(C   7,C   6,C   4,C   3)     98.9547         0.012585   
    268. D(C   8,C   7,C   6,H  44)    -74.9171         0.010484   
    269. D(C   8,C   7,C   6,C   4)    163.5265         0.010484   
    270. D(C  16,C   7,C   6,H  45)    169.7385         0.010484   
    271. D(C  16,C   7,C   6,H  44)     50.6331         0.010484   
    272. D(C   8,C   7,C   6,H  45)     44.1883         0.010484   
    273. D(C  16,C   7,C   6,C   4)    -70.9232         0.010484   
    274. D(C  17,C   8,C   7,H  46)   -169.4435         0.010137   
    275. D(C  17,C   8,C   7,C  16)    -52.3946         0.010137   
    276. D(C  17,C   8,C   7,C   6)     71.9214         0.010137   
    277. D(C   9,C   8,C   7,C  16)   -178.9748         0.010137   
    278. D(C   9,C   8,C   7,H  46)     63.9763         0.010137   
    279. D(C   9,C   8,C   7,C   6)    -54.6588         0.010137   
    280. D(H  48,C   9,C   8,C  17)    -52.0663         0.010494   
    281. D(H  48,C   9,C   8,C   7)     76.1145         0.010494   
    282. D(C  10,C   9,C   8,H  47)     69.4475         0.010494   
    283. D(C  10,C   9,C   8,C  17)   -175.4055         0.010494   
    284. D(H  48,C   9,C   8,H  47)   -167.2133         0.010494   
    285. D(C  10,C   9,C   8,C   7)    -47.2247         0.010494   
    286. D(C  15,C  10,C   9,H  48)   -178.4050         0.012532   
    287. D(C  15,C  10,C   9,C   8)    -55.1765         0.012532   
    288. D(C  11,C  10,C   9,H  49)   -114.8795         0.012532   
    289. D(C  11,C  10,C   9,H  48)      2.1219         0.012532   
    290. D(C  11,C  10,C   9,C   8)    125.3504         0.012532   
    291. D(H  50,C  11,C  10,C  15)   -178.8537         0.026597   
    292. D(H  50,C  11,C  10,C   9)      0.6315         0.026597   
    293. D(C  12,C  11,C  10,C  15)      0.6097         0.026597   
    294. D(C  12,C  11,C  10,C   9)   -179.9051         0.026597   
    295. D(O  22,C  12,C  11,H  50)     -0.8675         0.028453   
    296. D(C  13,C  12,C  11,H  50)    179.5693         0.028453   
    297. D(O  22,C  12,C  11,C  10)    179.6741         0.028453   
    298. D(C  13,C  12,C  11,C  10)      0.1109         0.028453   
    299. D(O  21,C  13,C  12,C  11)    179.3446         0.024384   
    300. D(C  14,C  13,C  12,O  22)    179.7010         0.024384   
    301. D(C  14,C  13,C  12,C  11)     -0.6899         0.024384   
    302. D(O  21,C  13,C  12,O  22)     -0.2644         0.024384   
    303. D(H  51,C  14,C  13,O  21)      0.9384         0.028368   
    304. D(H  51,C  14,C  13,C  12)   -179.0271         0.028368   
    305. D(C  15,C  14,C  13,O  21)   -179.4907         0.028368   
    306. D(C  15,C  14,C  13,C  12)      0.5438         0.028368   
    307. D(H  52,C  15,C  14,H  51)      0.3334         0.028364   
    308. D(H  52,C  15,C  14,C  13)   -179.2255         0.028364   
    309. D(C  10,C  15,C  14,H  51)    179.7459         0.028364   
    310. D(C  10,C  15,C  14,C  13)      0.1870         0.028364   
    311. D(H  52,C  15,C  10,C  11)    178.6485         0.027672   
    312. D(H  52,C  15,C  10,C   9)     -0.8320         0.027672   
    313. D(C  14,C  15,C  10,C  11)     -0.7617         0.027672   
    314. D(C  14,C  15,C  10,C   9)    179.7579         0.027672   
    315. D(H  53,C  16,C   7,H  46)    -56.3263         0.010588   
    316. D(H  53,C  16,C   7,C   8)   -172.7597         0.010588   
    317. D(H  53,C  16,C   7,C   6)     59.4495         0.010588   
    318. D(O  37,C  16,C   7,H  46)     66.8845         0.010588   
    319. D(O  37,C  16,C   7,C   8)    -49.5489         0.010588   
    320. D(O  37,C  16,C   7,C   6)   -177.3397         0.010588   
    321. D(H  55,C  17,C   8,H  47)     92.6966         0.010503   
    322. D(H  55,C  17,C   8,C   9)    -23.4198         0.010503   
    323. D(H  55,C  17,C   8,C   7)   -151.1814         0.010503   
    324. D(O  38,C  17,C   8,H  47)    -24.7241         0.010503   
    325. D(O  38,C  17,C   8,C   9)   -140.8405         0.010503   
    326. D(O  38,C  17,C   8,C   7)     91.3979         0.010503   
    327. D(C  34,O  18,C   2,C   3)      0.1844         0.027865   
    328. D(C  34,O  18,C   2,C   1)   -179.9646         0.027865   
    329. D(C  33,O  19,C   0,C   5)     -3.0288         0.030473   
    330. D(C  33,O  19,C   0,C   1)    177.3684         0.030473   
    331. D(C  23,O  20,C   1,C   2)    -68.6400         0.029809   
    332. D(C  23,O  20,C   1,C   0)    114.8759         0.029809   
    333. D(H  57,O  21,C  13,C  14)   -175.5783         0.028065   
    334. D(H  57,O  21,C  13,C  12)      4.3868         0.028065   
    335. D(C  35,O  22,C  12,C  13)   -177.2295         0.026995   
    336. D(C  35,O  22,C  12,C  11)      3.1878         0.026995   
    337. D(H  58,C  23,O  20,C   1)     42.8054         0.021799   
    338. D(C  26,C  23,O  20,C   1)    160.2047         0.021799   
    339. D(C  24,C  23,O  20,C   1)    -79.7729         0.021799   
    340. D(O  36,C  24,C  23,H  58)   -174.5522         0.010000   
    341. D(O  36,C  24,C  23,C  26)     63.7414         0.010000   
    342. D(O  36,C  24,C  23,O  20)    -52.3942         0.010000   
    343. D(C  25,C  24,C  23,H  58)    -49.7406         0.010000   
    344. D(C  25,C  24,C  23,C  26)   -171.4470         0.010000   
    345. D(C  25,C  24,C  23,O  20)     72.4173         0.010000   
    346. D(C  32,C  25,C  24,O  36)    171.5189         0.011147   
    347. D(C  32,C  25,C  24,C  23)     48.4320         0.011147   
    348. D(C  28,C  25,C  24,H  59)    107.2555         0.011147   
    349. D(C  28,C  25,C  24,O  36)     -9.9971         0.011147   
    350. D(C  28,C  25,C  24,C  23)   -133.0840         0.011147   
    351. D(H  60,C  26,C  23,H  58)    -64.5426         0.011003   
    352. D(H  60,C  26,C  23,C  24)     58.2971         0.011003   
    353. D(H  60,C  26,C  23,O  20)    177.2066         0.011003   
    354. D(O  27,C  26,C  23,H  58)     53.7901         0.011003   
    355. D(O  27,C  26,C  23,C  24)    176.6299         0.011003   
    356. D(O  27,C  26,C  23,O  20)    -64.4606         0.011003   
    357. D(H  62,O  27,C  26,H  61)    -75.9063         0.022812   
    358. D(H  62,O  27,C  26,H  60)    165.2289         0.022812   
    359. D(H  62,O  27,C  26,C  23)     44.9445         0.022812   
    360. D(H  63,C  28,C  25,C  32)    176.4492         0.026796   
    361. D(H  63,C  28,C  25,C  24)     -2.0778         0.026796   
    362. D(C  29,C  28,C  25,C  32)     -3.1698         0.026796   
    363. D(C  29,C  28,C  25,C  24)    178.3032         0.026796   
    364. D(C  30,C  29,C  28,H  63)   -179.7984         0.028771   
    365. D(C  30,C  29,C  28,C  25)     -0.1889         0.028771   
    366. D(O  39,C  29,C  28,H  63)     -0.4306         0.028771   
    367. D(O  39,C  29,C  28,C  25)    179.1788         0.028771   
    368. D(O  40,C  30,C  29,O  39)      2.7536         0.024680   
    369. D(O  40,C  30,C  29,C  28)   -177.8129         0.024680   
    370. D(C  31,C  30,C  29,O  39)   -176.1870         0.024680   
    371. D(C  31,C  30,C  29,C  28)      3.2465         0.024680   
    372. D(H  64,C  31,C  30,O  40)     -3.0623         0.028636   
    373. D(H  64,C  31,C  30,C  29)    175.8717         0.028636   
    374. D(C  32,C  31,C  30,O  40)    178.1355         0.028636   
    375. D(C  32,C  31,C  30,C  29)     -2.9305         0.028636   
    376. D(H  65,C  32,C  31,H  64)      0.2720         0.028195   
    377. D(H  65,C  32,C  31,C  30)    179.0531         0.028195   
    378. D(C  25,C  32,C  31,H  64)   -179.2435         0.028195   
    379. D(C  25,C  32,C  31,C  30)     -0.4625         0.028195   
    380. D(H  65,C  32,C  25,C  28)   -176.0041         0.027871   
    381. D(H  65,C  32,C  25,C  24)      2.4764         0.027871   
    382. D(C  31,C  32,C  25,C  28)      3.5033         0.027871   
    383. D(C  31,C  32,C  25,C  24)   -178.0162         0.027871   
    384. D(H  68,C  33,O  19,C   0)    179.0700         0.023864   
    385. D(H  67,C  33,O  19,C   0)     59.8790         0.023864   
    386. D(H  66,C  33,O  19,C   0)    -62.4531         0.023864   
    387. D(H  71,C  34,O  18,C   2)    179.9926         0.021946   
    388. D(H  70,C  34,O  18,C   2)     61.4337         0.021946   
    389. D(H  69,C  34,O  18,C   2)    -61.3371         0.021946   
    390. D(H  74,C  35,O  22,C  12)    178.2830         0.024039   
    391. D(H  73,C  35,O  22,C  12)     59.5950         0.024039   
    392. D(H  72,C  35,O  22,C  12)    -63.0517         0.024039   
    393. D(H  75,O  36,C  24,H  59)    167.9392         0.022698   
    394. D(H  75,O  36,C  24,C  25)    -73.2296         0.022698   
    395. D(H  75,O  36,C  24,C  23)     51.4429         0.022698   
    396. D(H  76,O  37,C  16,H  54)    175.4853         0.023717   
    397. D(H  76,O  37,C  16,H  53)     58.7603         0.023717   
    398. D(H  76,O  37,C  16,C   7)    -63.2354         0.023717   
    399. D(H  77,O  38,C  17,H  56)     83.9710         0.022286   
    400. D(H  77,O  38,C  17,H  55)   -160.2172         0.022286   
    401. D(H  77,O  38,C  17,C   8)    -40.1137         0.022286   
    402. D(C  41,O  39,C  29,C  30)    166.9830         0.028005   
    403. D(C  41,O  39,C  29,C  28)    -12.4109         0.028005   
    404. D(H  78,O  40,C  30,C  31)    176.7820         0.029428   
    405. D(H  78,O  40,C  30,C  29)     -2.1491         0.029428   
    406. D(H  81,C  41,O  39,C  29)     68.7588         0.023442   
    407. D(H  80,C  41,O  39,C  29)    -53.9635         0.023442   
    408. D(H  79,C  41,O  39,C  29)   -173.0650         0.023442   
    -----------------------------------------------------------------

Number of atoms                         .... 82
Number of degrees of freedom            .... 408


         *************************************************************
         *                GEOMETRY OPTIMIZATION CYCLE   1            *
         *************************************************************
---------------------------------
CARTESIAN COORDINATES (ANGSTROEM)
---------------------------------
  C     11.573356  -11.589513   -1.553067
  C     12.079151  -12.894259   -1.545356
  C     11.211730  -13.978611   -1.721648
  C      9.850334  -13.747504   -1.872635
  C      9.346694  -12.456521   -1.851061
  C     10.210364  -11.380649   -1.700749
  C      7.867441  -12.202095   -1.932063
  C      7.307374  -11.950610   -0.520973
  C      5.911410  -11.292752   -0.478243
  C      5.849562   -9.976603   -1.272970
  C      6.994116   -9.044542   -0.985698
  C      7.782306   -8.562576   -2.027060
  C      8.840141   -7.705973   -1.779597
  C      9.128013   -7.316521   -0.462511
  C      8.337059   -7.786001    0.571437
  C      7.279940   -8.639934    0.309858
  C      7.322464  -13.273718    0.261857
  C      4.775041  -12.236018   -0.909751
  O     11.796470  -15.210487   -1.727404
  O     12.504031  -10.602969   -1.400763
  O     13.441380  -13.071362   -1.434568
  O     10.175316   -6.483889   -0.203899
  O      9.684985   -7.176896   -2.734180
  C     13.905460  -13.717229   -0.248808
  C     13.944687  -12.702172    0.919545
  C     12.550321  -12.344540    1.409065
  C     15.307448  -14.229459   -0.593162
  O     15.256590  -15.204009   -1.599606
  C     12.231789  -11.005650    1.612097
  C     10.965436  -10.634575    2.022890
  C      9.990545  -11.619577    2.233209
  C     10.325915  -12.953573    2.092710
  C     11.599877  -13.314287    1.687574
  C     12.068162   -9.266647   -1.456198
  C     10.982831  -16.345067   -1.900991
  C      9.427333   -7.471291   -4.084399
  O     14.672707  -11.571435    0.521409
  O      6.772344  -13.166431    1.552950
  O      4.205258  -12.934976    0.167557
  O     10.548295   -9.347026    2.268274
  O      8.721335  -11.256722    2.596726
  C     11.528954   -8.338802    2.352585
  H      9.169903  -14.572148   -2.009744
  H      9.799308  -10.384124   -1.685626
  H      7.361661  -13.052745   -2.390439
  H      7.693936  -11.323370   -2.549958
  H      7.994893  -11.260114   -0.019104
  H      5.719398  -11.051719    0.573409
  H      5.808767  -10.194909   -2.341706
  H      4.913945   -9.475122   -1.009540
  H      7.552968   -8.859251   -3.039308
  H      8.560692   -7.465581    1.575600
  H      6.665861   -8.986329    1.126583
  H      8.357745  -13.634143    0.312404
  H      6.727330  -14.030405   -0.256997
  H      3.954931  -11.658400   -1.347464
  H      5.132546  -12.937368   -1.679176
  H     10.554175   -6.214939   -1.051475
  H     13.264415  -14.569486   -0.005800
  H     14.506983  -13.152525    1.747801
  H     15.762186  -14.699113    0.281198
  H     15.924524  -13.375299   -0.904206
  H     14.653859  -14.874553   -2.278888
  H     12.998593  -10.266237    1.447133
  H      9.587205  -13.705010    2.322043
  H     11.842300  -14.361643    1.600087
  H     11.640322   -9.027163   -2.433748
  H     11.330632   -9.053290   -0.677487
  H     12.957861   -8.658729   -1.296342
  H     10.246428  -16.438484   -1.096523
  H     10.468534  -16.325749   -2.866635
  H     11.662172  -17.195386   -1.870788
  H      9.516275   -8.544022   -4.285905
  H      8.434605   -7.124914   -4.386785
  H     10.185332   -6.934501   -4.652795
  H     14.288532  -11.286048   -0.324581
  H      7.323496  -12.553577    2.064256
  H      4.913936  -13.206320    0.770436
  H      8.713559  -10.293026    2.687343
  H     11.003211   -7.440867    2.671665
  H     12.298313   -8.597887    3.085492
  H     11.996333   -8.146504    1.383960

----------------------------
CARTESIAN COORDINATES (A.U.)
----------------------------
  NO LB      ZA    FRAG     MASS         X           Y           Z
   0 C     6.0000    0    12.011   21.870474  -21.901006   -2.934870
   1 C     6.0000    0    12.011   22.826287  -24.366619   -2.920300
   2 C     6.0000    0    12.011   21.187099  -26.415746   -3.253443
   3 C     6.0000    0    12.011   18.614434  -25.979018   -3.538767
   4 C     6.0000    0    12.011   17.662691  -23.539414   -3.497999
   5 C     6.0000    0    12.011   19.294791  -21.506310   -3.213950
   6 C     6.0000    0    12.011   14.867310  -23.058618   -3.651070
   7 C     6.0000    0    12.011   13.808936  -22.583379   -0.984496
   8 C     6.0000    0    12.011   11.170946  -21.340209   -0.903748
   9 C     6.0000    0    12.011   11.054070  -18.853047   -2.405565
  10 C     6.0000    0    12.011   13.216965  -17.091707   -1.862700
  11 C     6.0000    0    12.011   14.706428  -16.180924   -3.830587
  12 C     6.0000    0    12.011   16.705445  -14.562179   -3.362951
  13 C     6.0000    0    12.011   17.249445  -13.826221   -0.874019
  14 C     6.0000    0    12.011   15.754759  -14.713410    1.079859
  15 C     6.0000    0    12.011   13.757093  -16.327110    0.585547
  16 C     6.0000    0    12.011   13.837452  -25.083692    0.494838
  17 C     6.0000    0    12.011    9.023519  -23.122722   -1.719180
  18 O     8.0000    0    15.999   22.292098  -28.743655   -3.264321
  19 O     8.0000    0    15.999   23.629195  -20.036707   -2.647059
  20 O     8.0000    0    15.999   25.400527  -24.701295   -2.710941
  21 O     8.0000    0    15.999   19.228561  -12.252775   -0.385314
  22 O     8.0000    0    15.999   18.301969  -13.562367   -5.166851
  23 C     6.0000    0    12.011   26.277511  -25.921806   -0.470180
  24 C     6.0000    0    12.011   26.351639  -24.003626    1.737688
  25 C     6.0000    0    12.011   23.716670  -23.327799    2.662747
  26 C     6.0000    0    12.011   28.926885  -26.889781   -1.120913
  27 O     8.0000    0    15.999   28.830776  -28.731413   -3.022818
  28 C     6.0000    0    12.011   23.114731  -20.797664    3.046422
  29 C     6.0000    0    12.011   20.721672  -20.096435    3.822707
  30 C     6.0000    0    12.011   18.879393  -21.957818    4.220154
  31 C     6.0000    0    12.011   19.513151  -24.478706    3.954649
  32 C     6.0000    0    12.011   21.920590  -25.160356    3.189052
  33 C     6.0000    0    12.011   22.805521  -17.511426   -2.751816
  34 C     6.0000    0    12.011   20.754543  -30.887700   -3.592352
  35 C     6.0000    0    12.011   17.815078  -14.118695   -7.718395
  36 O     8.0000    0    15.999   27.727399  -21.866844    0.985320
  37 O     8.0000    0    15.999   12.797876  -24.880949    2.934650
  38 O     8.0000    0    15.999    7.946785  -24.443562    0.316636
  39 O     8.0000    0    15.999   19.933388  -17.663320    4.286417
  40 O     8.0000    0    15.999   16.480934  -21.272123    4.907100
  41 C     6.0000    0    12.011   21.786566  -15.758052    4.445741
  42 H     1.0000    0     1.008   17.328605  -27.537369   -3.797867
  43 H     1.0000    0     1.008   18.518008  -19.623150   -3.185372
  44 H     1.0000    0     1.008   13.911522  -24.666113   -4.517274
  45 H     1.0000    0     1.008   14.539432  -21.398069   -4.818722
  46 H     1.0000    0     1.008   15.108158  -21.278532   -0.036101
  47 H     1.0000    0     1.008   10.808097  -20.884722    1.083587
  48 H     1.0000    0     1.008   10.976978  -19.265585   -4.425182
  49 H     1.0000    0     1.008    9.286011  -17.905386   -1.907755
  50 H     1.0000    0     1.008   14.273041  -16.741559   -5.743459
  51 H     1.0000    0     1.008   16.177363  -14.107904    2.977452
  52 H     1.0000    0     1.008   12.596652  -16.981702    2.128934
  53 H     1.0000    0     1.008   15.793850  -25.764796    0.590358
  54 H     1.0000    0     1.008   12.712812  -26.513624   -0.485654
  55 H     1.0000    0     1.008    7.473736  -22.031183   -2.546339
  56 H     1.0000    0     1.008    9.699107  -24.448083   -3.173183
  57 H     1.0000    0     1.008   19.944501  -11.744533   -1.987000
  58 H     1.0000    0     1.008   25.066112  -27.532338   -0.010960
  59 H     1.0000    0     1.008   27.414225  -24.854670    3.302866
  60 H     1.0000    0     1.008   29.786215  -27.777297    0.531387
  61 H     1.0000    0     1.008   30.092988  -25.275653   -1.708701
  62 H     1.0000    0     1.008   27.691780  -28.108832   -4.306474
  63 H     1.0000    0     1.008   24.563781  -19.400377    2.734686
  64 H     1.0000    0     1.008   18.117191  -25.898715    4.388025
  65 H     1.0000    0     1.008   22.378704  -27.139572    3.023726
  66 H     1.0000    0     1.008   21.997020  -17.058866   -4.599116
  67 H     1.0000    0     1.008   21.411791  -17.108239   -1.280264
  68 H     1.0000    0     1.008   24.486809  -16.362626   -2.449732
  69 H     1.0000    0     1.008   19.362942  -31.064233   -2.072129
  70 H     1.0000    0     1.008   19.782663  -30.851194   -5.417155
  71 H     1.0000    0     1.008   22.038311  -32.494570   -3.535277
  72 H     1.0000    0     1.008   17.983153  -16.145862   -8.099186
  73 H     1.0000    0     1.008   15.939093  -13.464137   -8.289823
  74 H     1.0000    0     1.008   19.247487  -13.104308   -8.792508
  75 H     1.0000    0     1.008   27.001412  -21.327540   -0.613369
  76 H     1.0000    0     1.008   13.839402  -23.722823    3.900878
  77 H     1.0000    0     1.008    9.285994  -24.956328    1.455912
  78 H     1.0000    0     1.008   16.466239  -19.451001    5.078343
  79 H     1.0000    0     1.008   20.793056  -14.061200    5.048715
  80 H     1.0000    0     1.008   23.240444  -16.247651    5.830735
  81 H     1.0000    0     1.008   22.669785  -15.394661    2.615306

--------------------------------
INTERNAL COORDINATES (ANGSTROEM)
--------------------------------
 C      0   0   0     0.000000000000     0.00000000     0.00000000
 C      1   0   0     1.399375094924     0.00000000     0.00000000
 C      2   1   0     1.399755355766   119.84191979     0.00000000
 C      3   2   1     1.389102458770   119.48139172   358.55610651
 C      4   3   2     1.385913381624   120.62617236     0.04572406
 C      1   2   3     1.386788613538   119.75241118     1.66784002
 C      5   4   3     1.503156944531   120.96063034   183.65045504
 C      7   5   4     1.538862020935   109.65823766    98.95470300
 C      8   7   5     1.543799971064   115.09475482   163.52654694
 C      9   8   7     1.538722182551   112.73938601   305.34117628
 C     10   9   8     1.503751273989   113.63485854   312.77528503
 C     11  10   9     1.392109033758   120.17399066   125.35036233
 C     12  11  10     1.383481472189   120.89554041   180.09491600
 C     13  12  11     1.403302814795   119.77312953     0.11092683
 C     14  13  12     1.383859746243   119.33032574   359.31005241
 C     15  14  13     1.383880732653   120.31244602     0.54376912
 C      8   7   5     1.537422064098   108.82576534   289.07679711
 C      9   8   7     1.538598178462   113.50563699    71.92142303
 O      3   2   1     1.363625240372   115.76137955   178.69678605
 O      1   2   3     1.364779273727   115.27019077   181.29296800
 O      2   1   3     1.378154107529   118.52399570   176.54549507
 O     14  13  12     1.362717959245   120.35425097   179.34458385
 O     13  12  11     1.380185651824   125.56862764   179.67409680
 C     21   2   1     1.427774265044   116.49856136   114.87593681
 C     24  21   2     1.548201646173   109.77865307   280.22712231
 C     25  24  21     1.520455594768   111.95904175    72.41734185
 C     24  21   2     1.531838811736   105.19204950   160.20470463
 O     27  24  21     1.401879168709   111.13969157   295.53942418
 C     26  25  24     1.391154848501   118.90419656   226.91604074
 C     29  26  25     1.382061774415   120.76950050   178.30318646
 C     30  29  26     1.401740463765   119.55022239   359.81106271
 C     31  30  29     1.382664021880   119.60552698     3.24653706
 C     32  31  30     1.384640620525   120.28081207   357.06948963
 C     20   1   2     1.406701689760   118.09926407   177.36840754
 C     19   3   2     1.406915964497   118.75387627   180.03538596
 C     23  13  12     1.405753688421   118.15372954     3.18775465
 O     25  24  21     1.402530420606   109.11773547   307.60575073
 O     17   8   7     1.407502338480   113.43041487   182.66032738
 O     18   9   8     1.404915012570   112.92273469    91.39787624
 O     30  29  26     1.375501373174   125.60722114   179.17879225
 O     31  30  29     1.369197231194   119.88821138   182.18713085
 C     40  30  29     1.409012719316   117.99566518   347.58907280
 H      4   3   2     1.077879117232   120.34593616   179.96893105
 H      6   1   2     1.078081058729   120.82816108   178.53507119
 H      7   5   4     1.090654352216   110.30388414   337.50607947
 H      7   5   4     1.088143318701   108.91717791   218.53445611
 H      8   7   5     1.096056208626   107.12928392    45.17445772
 H      9   8   7     1.095873206705   106.18392159   187.89770428
 H     10   9   8     1.091566314638   109.64065058    76.11449628
 H     10   9   8     1.093735039721   107.58785308   192.36619127
 H     12  11  10     1.079471251777   119.07952015     0.63151472
 H     15  14  13     1.077507915856   118.47540576   180.97294757
 H     16  15  14     1.078945222922   119.32652290   180.77445691
 H     17   8   7     1.097391263856   108.38300488    59.44951378
 H     17   8   7     1.093604120434   110.39850633   301.42479060
 H     18   9   8     1.094447604525   110.00162883   208.81857077
 H     18   9   8     1.100780618484   110.29002735   327.18072771
 H     22  14  13     0.966567924150   107.74855517     4.38684009
 H     24  21   2     1.093770339876   110.27276434    42.80535799
 H     25  24  21     1.097726654868   108.26408549   192.42958754
 H     27  24  21     1.091726272883   110.18395504   177.20663575
 H     27  24  21     1.098689667534   108.52463792    57.80815805
 H     28  27  24     0.966048189853   106.88004015    44.94450082
 H     29  26  25     1.077929539598   118.35727606   357.92223751
 H     32  31  30     1.078398119895   118.98110273   175.87170383
 H     33  32  31     1.078599528182   118.91351125   179.05307072
 H     34  20   1     1.093619081520   111.37504308   297.54688841
 H     34  20   1     1.093555349435   111.48486302    59.87901062
 H     34  20   1     1.089349960105   105.74094867   179.06996896
 H     35  19   3     1.094616161183   111.54349711   298.66294132
 H     35  19   3     1.094231981055   111.49723795    61.43367203
 H     35  19   3     1.088787791545   105.39945580   179.99256106
 H     36  23  13     1.095110580147   111.53027307   296.94825148
 H     36  23  13     1.094040716540   111.43727213    59.59503679
 H     36  23  13     1.088935154255   105.69623653   178.28300850
 H     37  25  24     0.971975049309   106.17819261    51.44285361
 H     38  17   8     0.969944518081   108.03641277   296.76461290
 H     39  18   9     0.969183463738   108.64662321   319.88632430
 H     41  31  30     0.967978220497   107.22598880   357.85094828
 H     42  40  30     1.088349918946   105.76527373   186.93500519
 H     42  40  30     1.093705378136   111.11134047   306.03650285
 H     42  40  30     1.092545232223   111.75459796    68.75878983

---------------------------
INTERNAL COORDINATES (A.U.)
---------------------------
 C      0   0   0     0.000000000000     0.00000000     0.00000000
 C      1   0   0     2.644435688036     0.00000000     0.00000000
 C      2   1   0     2.645154276887   119.84191979     0.00000000
 C      3   2   1     2.625023219032   119.48139172   358.55610651
 C      4   3   2     2.618996736606   120.62617236     0.04572406
 C      1   2   3     2.620650685226   119.75241118     1.66784002
 C      5   4   3     2.840554961465   120.96063034   183.65045504
 C      7   5   4     2.908027777459   109.65823766    98.95470300
 C      8   7   5     2.917359150867   115.09475482   163.52654694
 C      9   8   7     2.907763521211   112.73938601   305.34117628
 C     10   9   8     2.841678081375   113.63485854   312.77528503
 C     11  10   9     2.630704822361   120.17399066   125.35036233
 C     12  11  10     2.614401093792   120.89554041   180.09491600
 C     13  12  11     2.651858002923   119.77312953     0.11092683
 C     14  13  12     2.615115928157   119.33032574   359.31005241
 C     15  14  13     2.615155586724   120.31244602     0.54376912
 C      8   7   5     2.905306653392   108.82576534   289.07679711
 C      9   8   7     2.907529187443   113.50563699    71.92142303
 O      3   2   1     2.576878253606   115.76137955   178.69678605
 O      1   2   3     2.579059060595   115.27019077   181.29296800
 O      2   1   3     2.604333833568   118.52399570   176.54549507
 O     14  13  12     2.575163740749   120.35425097   179.34458385
 O     13  12  11     2.608172895915   125.56862764   179.67409680
 C     21   2   1     2.698102341994   116.49856136   114.87593681
 C     24  21   2     2.925677111354   109.77865307   280.22712231
 C     25  24  21     2.873244672900   111.95904175    72.41734185
 C     24  21   2     2.894755835493   105.19204950   160.20470463
 O     27  24  21     2.649167701709   111.13969157   295.53942418
 C     26  25  24     2.628901673544   118.90419656   226.91604074
 C     29  26  25     2.611718253806   120.76950050   178.30318646
 C     30  29  26     2.648905587352   119.55022239   359.81106271
 C     31  30  29     2.612856336579   119.60552698     3.24653706
 C     32  31  30     2.616591566695   120.28081207   357.06948963
 C     20   1   2     2.658280945771   118.09926407   177.36840754
 C     19   3   2     2.658685866342   118.75387627   180.03538596
 C     23  13  12     2.656489482865   118.15372954     3.18775465
 O     25  24  21     2.650398389440   109.11773547   307.60575073
 O     17   8   7     2.659793952582   113.43041487   182.66032738
 O     18   9   8     2.654904615192   112.92273469    91.39787624
 O     30  29  26     2.599320892131   125.60722114   179.17879225
 O     31  30  29     2.587407790279   119.88821138   182.18713085
 C     40  30  29     2.662648158718   117.99566518   347.58907280
 H      4   3   2     2.036896337042   120.34593616   179.96893105
 H      6   1   2     2.037277951165   120.82816108   178.53507119
 H      7   5   4     2.061038032457   110.30388414   337.50607947
 H      7   5   4     2.056292866801   108.91717791   218.53445611
 H      8   7   5     2.071246061687   107.12928392    45.17445772
 H      9   8   7     2.070900238175   106.18392159   187.89770428
 H     10   9   8     2.062761391680   109.64065058    76.11449628
 H     10   9   8     2.066859688146   107.58785308   192.36619127
 H     12  11  10     2.039905035300   119.07952015     0.63151472
 H     15  14  13     2.036194868099   118.47540576   180.97294757
 H     16  15  14     2.038910984825   119.32652290   180.77445691
 H     17   8   7     2.073768950446   108.38300488    59.44951378
 H     17   8   7     2.066612286548   110.39850633   301.42479060
 H     18   9   8     2.068206240478   110.00162883   208.81857077
 H     18   9   8     2.080173902464   110.29002735   327.18072771
 H     22  14  13     1.826548666476   107.74855517     4.38684009
 H     24  21   2     2.066926395772   110.27276434    42.80535799
 H     25  24  21     2.074402747607   108.26408549   192.42958754
 H     27  24  21     2.063063668955   110.18395504   177.20663575
 H     27  24  21     2.076222577809   108.52463792    57.80815805
 H     28  27  24     1.825566510992   106.88004015    44.94450082
 H     29  26  25     2.036991621503   118.35727606   357.92223751
 H     32  31  30     2.037877109937   118.98110273   175.87170383
 H     33  32  31     2.038257716440   118.91351125   179.05307072
 H     34  20   1     2.066640558904   111.37504308   297.54688841
 H     34  20   1     2.066520122716   111.48486302    59.87901062
 H     34  20   1     2.058573088596   105.74094867   179.06996896
 H     35  19   3     2.068524766400   111.54349711   298.66294132
 H     35  19   3     2.067798771172   111.49723795    61.43367203
 H     35  19   3     2.057510743977   105.39945580   179.99256106
 H     36  23  13     2.069459082838   111.53027307   296.94825148
 H     36  23  13     2.067437333620   111.43727213    59.59503679
 H     36  23  13     2.057789219140   105.69623653   178.28300850
 H     37  25  24     1.836766652199   106.17819261    51.44285361
 H     38  17   8     1.832929504272   108.03641277   296.76461290
 H     39  18   9     1.831491319991   108.64662321   319.88632430
 H     41  31  30     1.829213740340   107.22598880   357.85094828
 H     42  40  30     2.056683284684   105.76527373   186.93500519
 H     42  40  30     2.066803635875   111.11134047   306.03650285
 H     42  40  30     2.064611277822   111.75459796    68.75878983

---------------------
BASIS SET INFORMATION
---------------------
There are 3 groups of distinct atoms

 Group   1 Type C   : 11s6p2d1f contracted to 5s3p2d1f pattern {62111/411/11/1}
 Group   2 Type O   : 11s6p2d1f contracted to 5s3p2d1f pattern {62111/411/11/1}
 Group   3 Type H   : 5s1p contracted to 3s1p pattern {311/1}

Atom   0C    basis set group =>   1
Atom   1C    basis set group =>   1
Atom   2C    basis set group =>   1
Atom   3C    basis set group =>   1
Atom   4C    basis set group =>   1
Atom   5C    basis set group =>   1
Atom   6C    basis set group =>   1
Atom   7C    basis set group =>   1
Atom   8C    basis set group =>   1
Atom   9C    basis set group =>   1
Atom  10C    basis set group =>   1
Atom  11C    basis set group =>   1
Atom  12C    basis set group =>   1
Atom  13C    basis set group =>   1
Atom  14C    basis set group =>   1
Atom  15C    basis set group =>   1
Atom  16C    basis set group =>   1
Atom  17C    basis set group =>   1
Atom  18O    basis set group =>   2
Atom  19O    basis set group =>   2
Atom  20O    basis set group =>   2
Atom  21O    basis set group =>   2
Atom  22O    basis set group =>   2
Atom  23C    basis set group =>   1
Atom  24C    basis set group =>   1
Atom  25C    basis set group =>   1
Atom  26C    basis set group =>   1
Atom  27O    basis set group =>   2
Atom  28C    basis set group =>   1
Atom  29C    basis set group =>   1
Atom  30C    basis set group =>   1
Atom  31C    basis set group =>   1
Atom  32C    basis set group =>   1
Atom  33C    basis set group =>   1
Atom  34C    basis set group =>   1
Atom  35C    basis set group =>   1
Atom  36O    basis set group =>   2
Atom  37O    basis set group =>   2
Atom  38O    basis set group =>   2
Atom  39O    basis set group =>   2
Atom  40O    basis set group =>   2
Atom  41C    basis set group =>   1
Atom  42H    basis set group =>   3
Atom  43H    basis set group =>   3
Atom  44H    basis set group =>   3
Atom  45H    basis set group =>   3
Atom  46H    basis set group =>   3
Atom  47H    basis set group =>   3
Atom  48H    basis set group =>   3
Atom  49H    basis set group =>   3
Atom  50H    basis set group =>   3
Atom  51H    basis set group =>   3
Atom  52H    basis set group =>   3
Atom  53H    basis set group =>   3
Atom  54H    basis set group =>   3
Atom  55H    basis set group =>   3
Atom  56H    basis set group =>   3
Atom  57H    basis set group =>   3
Atom  58H    basis set group =>   3
Atom  59H    basis set group =>   3
Atom  60H    basis set group =>   3
Atom  61H    basis set group =>   3
Atom  62H    basis set group =>   3
Atom  63H    basis set group =>   3
Atom  64H    basis set group =>   3
Atom  65H    basis set group =>   3
Atom  66H    basis set group =>   3
Atom  67H    basis set group =>   3
Atom  68H    basis set group =>   3
Atom  69H    basis set group =>   3
Atom  70H    basis set group =>   3
Atom  71H    basis set group =>   3
Atom  72H    basis set group =>   3
Atom  73H    basis set group =>   3
Atom  74H    basis set group =>   3
Atom  75H    basis set group =>   3
Atom  76H    basis set group =>   3
Atom  77H    basis set group =>   3
Atom  78H    basis set group =>   3
Atom  79H    basis set group =>   3
Atom  80H    basis set group =>   3
Atom  81H    basis set group =>   3
---------------------------------
AUXILIARY/J BASIS SET INFORMATION
---------------------------------
There are 3 groups of distinct atoms

 Group   1 Type C   : 12s5p4d2f1g contracted to 6s4p3d1f1g pattern {711111/2111/211/2/1}
 Group   2 Type O   : 12s5p4d2f1g contracted to 6s4p3d1f1g pattern {711111/2111/211/2/1}
 Group   3 Type H   : 5s2p1d contracted to 3s1p1d pattern {311/2/1}

Atom   0C    basis set group =>   1
Atom   1C    basis set group =>   1
Atom   2C    basis set group =>   1
Atom   3C    basis set group =>   1
Atom   4C    basis set group =>   1
Atom   5C    basis set group =>   1
Atom   6C    basis set group =>   1
Atom   7C    basis set group =>   1
Atom   8C    basis set group =>   1
Atom   9C    basis set group =>   1
Atom  10C    basis set group =>   1
Atom  11C    basis set group =>   1
Atom  12C    basis set group =>   1
Atom  13C    basis set group =>   1
Atom  14C    basis set group =>   1
Atom  15C    basis set group =>   1
Atom  16C    basis set group =>   1
Atom  17C    basis set group =>   1
Atom  18O    basis set group =>   2
Atom  19O    basis set group =>   2
Atom  20O    basis set group =>   2
Atom  21O    basis set group =>   2
Atom  22O    basis set group =>   2
Atom  23C    basis set group =>   1
Atom  24C    basis set group =>   1
Atom  25C    basis set group =>   1
Atom  26C    basis set group =>   1
Atom  27O    basis set group =>   2
Atom  28C    basis set group =>   1
Atom  29C    basis set group =>   1
Atom  30C    basis set group =>   1
Atom  31C    basis set group =>   1
Atom  32C    basis set group =>   1
Atom  33C    basis set group =>   1
Atom  34C    basis set group =>   1
Atom  35C    basis set group =>   1
Atom  36O    basis set group =>   2
Atom  37O    basis set group =>   2
Atom  38O    basis set group =>   2
Atom  39O    basis set group =>   2
Atom  40O    basis set group =>   2
Atom  41C    basis set group =>   1
Atom  42H    basis set group =>   3
Atom  43H    basis set group =>   3
Atom  44H    basis set group =>   3
Atom  45H    basis set group =>   3
Atom  46H    basis set group =>   3
Atom  47H    basis set group =>   3
Atom  48H    basis set group =>   3
Atom  49H    basis set group =>   3
Atom  50H    basis set group =>   3
Atom  51H    basis set group =>   3
Atom  52H    basis set group =>   3
Atom  53H    basis set group =>   3
Atom  54H    basis set group =>   3
Atom  55H    basis set group =>   3
Atom  56H    basis set group =>   3
Atom  57H    basis set group =>   3
Atom  58H    basis set group =>   3
Atom  59H    basis set group =>   3
Atom  60H    basis set group =>   3
Atom  61H    basis set group =>   3
Atom  62H    basis set group =>   3
Atom  63H    basis set group =>   3
Atom  64H    basis set group =>   3
Atom  65H    basis set group =>   3
Atom  66H    basis set group =>   3
Atom  67H    basis set group =>   3
Atom  68H    basis set group =>   3
Atom  69H    basis set group =>   3
Atom  70H    basis set group =>   3
Atom  71H    basis set group =>   3
Atom  72H    basis set group =>   3
Atom  73H    basis set group =>   3
Atom  74H    basis set group =>   3
Atom  75H    basis set group =>   3
Atom  76H    basis set group =>   3
Atom  77H    basis set group =>   3
Atom  78H    basis set group =>   3
Atom  79H    basis set group =>   3
Atom  80H    basis set group =>   3
Atom  81H    basis set group =>   3
--------------------------------------------------------------------------
WARNING: There was an error initializing an OpenFabrics device.

  Local host:   c03b01n04
  Local device: mlx5_0
--------------------------------------------------------------------------
--------------------------------------------------------------------------
WARNING: There is at least one non-excluded one OpenFabrics device found,
but there are no active ports detected (or Open MPI was unable to use
them).  This is most certainly not what you wanted.  Check your
cables, subnet manager configuration, etc.  The openib BTL will be
ignored for this job.

  Local host: c03b01n04
--------------------------------------------------------------------------
[c03b01n04:833075] 59 more processes have sent help message help-mpi-btl-openib.txt / error in device init
[c03b01n04:833075] Set MCA parameter "orte_base_help_aggregate" to 0 to see all help / error messages
[c03b01n04:833075] 3 more processes have sent help message help-mpi-btl-openib.txt / no active ports found


           ************************************************************
           *        Program running with 64 parallel MPI-processes    *
           *              working on a common directory               *
           ************************************************************
------------------------------------------------------------------------------
                             ORCA STARTUP CALCULATIONS
                           -- RI-GTO INTEGRALS CHOSEN --
------------------------------------------------------------------------------
------------------------------------------------------------------------------
                   ___                                                        
                  /   \      - P O W E R E D   B Y -                         
                 /     \                                                     
                 |  |  |   _    _      __       _____    __    __             
                 |  |  |  | |  | |    /  \     |  _  \  |  |  /  |          
                  \  \/   | |  | |   /    \    | | | |  |  | /  /          
                 / \  \   | |__| |  /  /\  \   | |_| |  |  |/  /          
                |  |  |   |  __  | /  /__\  \  |    /   |      \           
                |  |  |   | |  | | |   __   |  |    \   |  |\   \          
                \     /   | |  | | |  |  |  |  | |\  \  |  | \   \       
                 \___/    |_|  |_| |__|  |__|  |_| \__\ |__|  \__/        
                                                                              
                      - O R C A' S   B I G   F R I E N D -                    
                                      &                                       
                       - I N T E G R A L  F E E D E R -                       
                                                                              
 v1 FN, 2020, v2 2021, v3 2022-2024                                           
------------------------------------------------------------------------------


----------------------
SHARK INTEGRAL PACKAGE
----------------------

Number of atoms                             ...     82
Number of basis functions                   ...   1542
Number of shells                            ...    622
Maximum angular momentum                    ...      3
Integral batch strategy                     ... SHARK/LIBINT Hybrid
RI-J (if used) integral strategy            ... SPLIT-RIJ (Revised 2003 algorithm where possible)
Printlevel                                  ...      1
Contraction scheme used                     ... SEGMENTED contraction
Prescreening option                         ... SCHWARTZ
   Thresh                                   ... 2.500e-11
   Tcut                                     ... 2.500e-12
   Tpresel                                  ... 2.500e-12 
Coulomb Range Separation                    ... NOT USED
Exchange Range Separation                   ... NOT USED
Multipole approximations                    ... NOT USED
Finite Nucleus Model                        ... NOT USED
CABS basis                                  ... NOT available
Auxiliary Coulomb fitting basis             ... AVAILABLE
   # of basis functions in Aux-J            ...   2498
   # of shells in Aux-J                     ...    830
   Maximum angular momentum in Aux-J        ...      4
Auxiliary J/K fitting basis                 ... NOT available
Auxiliary Correlation fitting basis         ... NOT available
Auxiliary 'external' fitting basis          ... NOT available

Checking pre-screening integrals            ... done (  0.3 sec) Dimension = 622
   => SHARK Basis and OBASIS are compatible. Storing Pre-screening
Shell pair information
Shell pair cut-off parameter TPreSel        ...   2.5e-12
Total number of shell pairs                 ...    193753
Shell pairs after pre-screening             ...    118001
Total number of primitive shell pairs       ...    584784
Primitive shell pairs kept                  ...    222634
          la=0 lb=0:  32884 shell pairs
          la=1 lb=0:  35209 shell pairs
          la=1 lb=1:   9526 shell pairs
          la=2 lb=0:  15991 shell pairs
          la=2 lb=1:   8775 shell pairs
          la=2 lb=2:   1987 shell pairs
          la=3 lb=0:   7314 shell pairs
          la=3 lb=1:   4105 shell pairs
          la=3 lb=2:   1787 shell pairs
          la=3 lb=3:    423 shell pairs

Checking whether 4 symmetric matrices of dimension 1542 fit in memory
:Max Core in MB      =   6000.00
 MB in use           =    141.31
 MB left             =   5858.69
 MB needed           =     36.31
 Data fit in memory  = YES
Calculating RI/J V-Matrix + Cholesky decomp.... done (  2.7 sec)
Calculating Nuclear repulsion               ... done (  0.1 sec) ENN=   5801.530920211249 Eh

Diagonalization of the overlap matrix:
Smallest eigenvalue                        ... 2.831e-06
Time for diagonalization                   ...   32.939 sec
Threshold for overlap eigenvalues          ... 1.000e-07
Number of eigenvalues below threshold      ... 0
Time for construction of square roots      ...    2.193 sec
Total time needed                          ...   35.436 sec

-------------------
DFT GRID GENERATION
-------------------

General Integration Accuracy     IntAcc      ... 4.388
Radial Grid Type                 RadialGrid  ... OptM3 with GC (2021)
Angular Grid (max. ang.)         AngularGrid ... 4 (Lebedev-302)
Angular grid pruning method      GridPruning ... 4 (adaptive)
Weight generation scheme         WeightScheme... mBecke (2022)
Basis function cutoff            BFCut       ... 1.0000e-11
Integration weight cutoff        WCut        ... 1.0000e-14
Partially contracted basis set               ... off
Rotationally invariant grid construction     ... off
Angular grids for H and He will be reduced by one unit

Total number of grid points                  ...   373190
Total number of batches                      ...     5869
Average number of points per batch           ...       63
Average number of grid points per atom       ...     4551

--------------------
COSX GRID GENERATION
--------------------

GRIDX 1
-------
General Integration Accuracy     IntAcc      ... 3.816
Radial Grid Type                 RadialGrid  ... OptM3 with GC (2021)
Angular Grid (max. ang.)         AngularGrid ... 1 (Lebedev-50)
Angular grid pruning method      GridPruning ... 4 (adaptive)
Weight generation scheme         WeightScheme... mBecke (2022)
Basis function cutoff            BFCut       ... 1.0000e-11
Integration weight cutoff        WCut        ... 1.0000e-14
Partially contracted basis set               ... on
Rotationally invariant grid construction     ... off
Angular grids for H and He will be reduced by one unit

Total number of grid points                  ...    47214
Total number of batches                      ...      414
Average number of points per batch           ...      114
Average number of grid points per atom       ...      576
UseSFitting                                  ... on

GRIDX 2
-------
General Integration Accuracy     IntAcc      ... 4.020
Radial Grid Type                 RadialGrid  ... OptM3 with GC (2021)
Angular Grid (max. ang.)         AngularGrid ... 2 (Lebedev-110)
Angular grid pruning method      GridPruning ... 4 (adaptive)
Weight generation scheme         WeightScheme... mBecke (2022)
[...]
freq.     620.49  E(vib)   ...       0.09 
freq.     625.29  E(vib)   ...       0.09 
freq.     628.79  E(vib)   ...       0.09 
freq.     650.98  E(vib)   ...       0.08 
freq.     659.23  E(vib)   ...       0.08 
freq.     685.35  E(vib)   ...       0.07 
freq.     726.46  E(vib)   ...       0.06 
freq.     738.44  E(vib)   ...       0.06 
freq.     743.63  E(vib)   ...       0.06 
freq.     755.74  E(vib)   ...       0.06 
freq.     756.34  E(vib)   ...       0.06 
freq.     769.79  E(vib)   ...       0.05 
freq.     778.91  E(vib)   ...       0.05 
freq.     803.70  E(vib)   ...       0.05 
freq.     810.07  E(vib)   ...       0.05 
freq.     816.34  E(vib)   ...       0.05 
freq.     834.43  E(vib)   ...       0.04 
freq.     838.87  E(vib)   ...       0.04 
freq.     857.16  E(vib)   ...       0.04 
freq.     862.29  E(vib)   ...       0.04 
freq.     874.71  E(vib)   ...       0.04 
freq.     881.09  E(vib)   ...       0.04 
freq.     885.50  E(vib)   ...       0.04 
freq.     904.86  E(vib)   ...       0.03 
freq.     917.01  E(vib)   ...       0.03 
freq.     924.22  E(vib)   ...       0.03 
freq.     929.52  E(vib)   ...       0.03 
freq.     935.00  E(vib)   ...       0.03 
freq.     953.68  E(vib)   ...       0.03 
freq.     958.33  E(vib)   ...       0.03 
freq.     968.14  E(vib)   ...       0.03 
freq.     972.04  E(vib)   ...       0.03 
freq.     982.41  E(vib)   ...       0.02 
freq.     996.05  E(vib)   ...       0.02 
freq.    1023.58  E(vib)   ...       0.02 
freq.    1024.92  E(vib)   ...       0.02 
freq.    1038.33  E(vib)   ...       0.02 
freq.    1047.14  E(vib)   ...       0.02 
freq.    1047.75  E(vib)   ...       0.02 
freq.    1057.92  E(vib)   ...       0.02 
freq.    1059.69  E(vib)   ...       0.02 
freq.    1061.47  E(vib)   ...       0.02 
freq.    1081.48  E(vib)   ...       0.02 
freq.    1093.08  E(vib)   ...       0.02 
freq.    1113.97  E(vib)   ...       0.01 
freq.    1116.51  E(vib)   ...       0.01 
freq.    1136.60  E(vib)   ...       0.01 
freq.    1143.85  E(vib)   ...       0.01 
freq.    1146.44  E(vib)   ...       0.01 
freq.    1148.08  E(vib)   ...       0.01 
freq.    1165.43  E(vib)   ...       0.01 
freq.    1170.78  E(vib)   ...       0.01 
freq.    1171.60  E(vib)   ...       0.01 
freq.    1172.06  E(vib)   ...       0.01 
freq.    1173.54  E(vib)   ...       0.01 
freq.    1175.29  E(vib)   ...       0.01 
freq.    1179.53  E(vib)   ...       0.01 
freq.    1184.26  E(vib)   ...       0.01 
freq.    1197.75  E(vib)   ...       0.01 
freq.    1201.50  E(vib)   ...       0.01 
freq.    1207.58  E(vib)   ...       0.01 
freq.    1212.37  E(vib)   ...       0.01 
freq.    1215.53  E(vib)   ...       0.01 
freq.    1221.56  E(vib)   ...       0.01 
freq.    1222.56  E(vib)   ...       0.01 
freq.    1226.11  E(vib)   ...       0.01 
freq.    1242.00  E(vib)   ...       0.01 
freq.    1244.95  E(vib)   ...       0.01 
freq.    1246.58  E(vib)   ...       0.01 
freq.    1251.26  E(vib)   ...       0.01 
freq.    1265.92  E(vib)   ...       0.01 
freq.    1271.18  E(vib)   ...       0.01 
freq.    1277.90  E(vib)   ...       0.01 
freq.    1290.16  E(vib)   ...       0.01 
freq.    1290.46  E(vib)   ...       0.01 
freq.    1295.34  E(vib)   ...       0.01 
freq.    1297.95  E(vib)   ...       0.01 
freq.    1317.85  E(vib)   ...       0.01 
freq.    1319.59  E(vib)   ...       0.01 
freq.    1323.73  E(vib)   ...       0.01 
freq.    1341.36  E(vib)   ...       0.01 
freq.    1341.53  E(vib)   ...       0.01 
freq.    1347.05  E(vib)   ...       0.01 
freq.    1356.08  E(vib)   ...       0.01 
freq.    1362.22  E(vib)   ...       0.01 
freq.    1362.78  E(vib)   ...       0.01 
freq.    1374.78  E(vib)   ...       0.01 
freq.    1381.79  E(vib)   ...       0.01 
freq.    1383.66  E(vib)   ...       0.00 
freq.    1394.54  E(vib)   ...       0.00 
freq.    1394.70  E(vib)   ...       0.00 
freq.    1402.46  E(vib)   ...       0.00 
freq.    1406.64  E(vib)   ...       0.00 
freq.    1426.14  E(vib)   ...       0.00 
freq.    1432.89  E(vib)   ...       0.00 
freq.    1440.11  E(vib)   ...       0.00 
freq.    1453.37  E(vib)   ...       0.00 
freq.    1455.27  E(vib)   ...       0.00 
freq.    1457.55  E(vib)   ...       0.00 
freq.    1461.95  E(vib)   ...       0.00 
freq.    1478.93  E(vib)   ...       0.00 
freq.    1479.45  E(vib)   ...       0.00 
freq.    1480.35  E(vib)   ...       0.00 
freq.    1480.95  E(vib)   ...       0.00 
freq.    1481.23  E(vib)   ...       0.00 
freq.    1482.04  E(vib)   ...       0.00 
freq.    1484.70  E(vib)   ...       0.00 
freq.    1488.66  E(vib)   ...       0.00 
freq.    1489.49  E(vib)   ...       0.00 
freq.    1490.38  E(vib)   ...       0.00 
freq.    1491.12  E(vib)   ...       0.00 
freq.    1491.19  E(vib)   ...       0.00 
freq.    1492.16  E(vib)   ...       0.00 
freq.    1493.76  E(vib)   ...       0.00 
freq.    1504.25  E(vib)   ...       0.00 
freq.    1509.27  E(vib)   ...       0.00 
freq.    1516.59  E(vib)   ...       0.00 
freq.    1537.13  E(vib)   ...       0.00 
freq.    1543.41  E(vib)   ...       0.00 
freq.    1544.55  E(vib)   ...       0.00 
freq.    1628.41  E(vib)   ...       0.00 
freq.    1637.05  E(vib)   ...       0.00 
freq.    1642.51  E(vib)   ...       0.00 
freq.    1644.12  E(vib)   ...       0.00 
freq.    1648.95  E(vib)   ...       0.00 
freq.    1649.83  E(vib)   ...       0.00 
freq.    2986.00  E(vib)   ...       0.00 
freq.    3017.19  E(vib)   ...       0.00 
freq.    3020.70  E(vib)   ...       0.00 
freq.    3021.15  E(vib)   ...       0.00 
freq.    3021.82  E(vib)   ...       0.00 
freq.    3023.60  E(vib)   ...       0.00 
freq.    3023.91  E(vib)   ...       0.00 
freq.    3031.28  E(vib)   ...       0.00 
freq.    3031.91  E(vib)   ...       0.00 
freq.    3042.07  E(vib)   ...       0.00 
freq.    3043.95  E(vib)   ...       0.00 
freq.    3046.08  E(vib)   ...       0.00 
freq.    3049.05  E(vib)   ...       0.00 
freq.    3061.33  E(vib)   ...       0.00 
freq.    3083.11  E(vib)   ...       0.00 
freq.    3084.96  E(vib)   ...       0.00 
freq.    3085.22  E(vib)   ...       0.00 
freq.    3085.90  E(vib)   ...       0.00 
freq.    3098.28  E(vib)   ...       0.00 
freq.    3100.23  E(vib)   ...       0.00 
freq.    3107.00  E(vib)   ...       0.00 
freq.    3114.40  E(vib)   ...       0.00 
freq.    3138.21  E(vib)   ...       0.00 
freq.    3142.83  E(vib)   ...       0.00 
freq.    3145.62  E(vib)   ...       0.00 
freq.    3149.24  E(vib)   ...       0.00 
freq.    3174.03  E(vib)   ...       0.00 
freq.    3183.72  E(vib)   ...       0.00 
freq.    3194.20  E(vib)   ...       0.00 
freq.    3198.01  E(vib)   ...       0.00 
freq.    3199.95  E(vib)   ...       0.00 
freq.    3210.82  E(vib)   ...       0.00 
freq.    3218.86  E(vib)   ...       0.00 
freq.    3231.57  E(vib)   ...       0.00 
freq.    3574.51  E(vib)   ...       0.00 
freq.    3615.74  E(vib)   ...       0.00 
freq.    3620.87  E(vib)   ...       0.00 
freq.    3710.48  E(vib)   ...       0.00 
freq.    3723.62  E(vib)   ...       0.00 
freq.    3756.43  E(vib)   ...       0.00 

------------
INNER ENERGY
------------

The inner energy is: U= E(el) + E(ZPE) + E(vib) + E(rot) + E(trans)
    E(el)   - is the total energy from the electronic structure calculation
              = E(kin-el) + E(nuc-el) + E(el-el) + E(nuc-nuc)
    E(ZPE)  - the the zero temperature vibrational energy from the frequency calculation
    E(vib)  - the the finite temperature correction to E(ZPE) due to population
              of excited vibrational states
    E(rot)  - is the rotational thermal energy
    E(trans)- is the translational thermal energy

Summary of contributions to the inner energy U:
Electronic energy                ...  -2032.63968473 Eh
Zero point energy                ...      0.68048766 Eh     427.01 kcal/mol
Thermal vibrational correction   ...      0.03956650 Eh      24.83 kcal/mol
Thermal rotational correction    ...      0.00141627 Eh       0.89 kcal/mol
Thermal translational correction ...      0.00141627 Eh       0.89 kcal/mol
-----------------------------------------------------------------------
Total thermal energy                  -2031.91679803 Eh


Summary of corrections to the electronic energy:
(perhaps to be used in another calculation)
Total thermal correction                  0.04239904 Eh      26.61 kcal/mol
Non-thermal (ZPE) correction              0.68048766 Eh     427.01 kcal/mol
-----------------------------------------------------------------------
Total correction                          0.72288670 Eh     453.62 kcal/mol


--------
ENTHALPY
--------

The enthalpy is H = U + kB*T
                kB is Boltzmann's constant
Total thermal energy              ...  -2031.91679803 Eh 
Thermal Enthalpy correction       ...      0.00094421 Eh       0.59 kcal/mol
-----------------------------------------------------------------------
Total Enthalpy                    ...  -2031.91585382 Eh


Note: Only C1 symmetry has been detected, increase convergence thresholds 
      if your molecule has a higher symmetry. Symmetry factor of 1.0 is   
      used for the rotational entropy correction. 
 

Note: Rotational entropy computed according to Herzberg 
Infrared and Raman Spectra, Chapter V,1, Van Nostrand Reinhold, 1945 
Point Group:  C1, Symmetry Number:   1  
Rotational constants in cm-1:     0.003590     0.002369     0.002033 

Vibrational entropy computed according to the QRRHO of S. Grimme
Chem.Eur.J. 2012 18 9955 using a reference frequency of 100.0 cm-1


-------
ENTROPY
-------

The entropy contributions are T*S = T*(S(el)+S(vib)+S(rot)+S(trans))
     S(el)   - electronic entropy
     S(vib)  - vibrational entropy
     S(rot)  - rotational entropy
     S(trans)- translational entropy
The entropies will be listed as multiplied by the temperature to get
units of energy

Electronic entropy                ...      0.00000000 Eh      0.00 kcal/mol
Vibrational entropy               ...      0.07016278 Eh     44.03 kcal/mol
Rotational entropy                ...      0.01794849 Eh     11.26 kcal/mol
Translational entropy             ...      0.02138181 Eh     13.42 kcal/mol
-----------------------------------------------------------------------
Final entropy term                ...      0.10949308 Eh     68.71 kcal/mol

In case the symmetry of your molecule has not been determined correctly
or in case you have a reason to use a different symmetry number we print 
out the resulting rotational entropy values for sn=1,12:

 non-linear molecules -----------------------------------
|  sn= 1 | S(rot)=       0.01794849 Eh     11.26 kcal/mol|
|  sn= 2 | S(rot)=       0.01729403 Eh     10.85 kcal/mol|
|  sn= 3 | S(rot)=       0.01691120 Eh     10.61 kcal/mol|
|  sn= 4 | S(rot)=       0.01663958 Eh     10.44 kcal/mol|
|  sn= 5 | S(rot)=       0.01642889 Eh     10.31 kcal/mol|
|  sn= 6 | S(rot)=       0.01625674 Eh     10.20 kcal/mol|
|  sn= 7 | S(rot)=       0.01611120 Eh     10.11 kcal/mol|
|  sn= 8 | S(rot)=       0.01598512 Eh     10.03 kcal/mol|
|  sn= 9 | S(rot)=       0.01587391 Eh      9.96 kcal/mol|
|  sn=10 | S(rot)=       0.01577443 Eh      9.90 kcal/mol|
|  sn=11 | S(rot)=       0.01568444 Eh      9.84 kcal/mol|
|  sn=12 | S(rot)=       0.01560229 Eh      9.79 kcal/mol|
 linear molecules ---------------------------------------
|  Dinfh | S(rot)=       0.01117796 Eh      7.01 kcal/mol|
|  Cinfv | S(rot)=       0.01183242 Eh      7.42 kcal/mol|
 --------------------------------------------------------


-------------------
GIBBS FREE ENERGY
-------------------

The Gibbs free energy is G = H - T*S

Total enthalpy                    ...  -2031.91585382 Eh 
Total entropy correction          ...     -0.10949308 Eh    -68.71 kcal/mol
-----------------------------------------------------------------------
Final Gibbs free energy         ...  -2032.02534689 Eh

For completeness - the Gibbs free energy minus the electronic energy
G-E(el)                           ...      0.61433783 Eh    385.50 kcal/mol


Maximum memory used throughout the entire PROP-calculation: 1827.1 MB
--------------------------------------------------------------------------
WARNING: There was an error initializing an OpenFabrics device.

  Local host:   c03b01n04
  Local device: mlx5_0
--------------------------------------------------------------------------
--------------------------------------------------------------------------
WARNING: There is at least one non-excluded one OpenFabrics device found,
but there are no active ports detected (or Open MPI was unable to use
them).  This is most certainly not what you wanted.  Check your
cables, subnet manager configuration, etc.  The openib BTL will be
ignored for this job.

  Local host: c03b01n04
--------------------------------------------------------------------------
[c03b01n04:913914] 62 more processes have sent help message help-mpi-btl-openib.txt / error in device init
[c03b01n04:913914] Set MCA parameter "orte_base_help_aggregate" to 0 to see all help / error messages

--------------------------------
SUGGESTED CITATIONS FOR THIS RUN
--------------------------------

Below you find a list of papers that are relevant to this ORCA run
We neither can nor want to force you to cite these papers, but we appreciate if you do
You receive ORCA, which is the product of decades of hard work by many enthusiastic individuals, for free
The only thing we kindly ask in return is that you cite our papers,
We deeply appreciate it, if you show your appreciation for ORCA by not just citing the generic ORCA reference.

Please note that relegating all ORCA citations to the supporting information does *not* help us.
SI sections are not indexed - citations you put there will not count into any citation statistics
But we need these citations in order to attract the funding resources that allow us to do what we are doing

Therefore, if you are a happy ORCA user, please consider citing a few of the papers listed below in the main body of your paper

In addition to the list printed below, the program has created the file opt-conf-2.bibtex that contains the list in bibtex format
You can import this file easily into all common literature databanks and citation aid programs


List of essential papers. We consider these as the minimum necessary citations

  1. Neese, F.
     Software update: the ORCA program system, version 6.0
     WIRES Comput. Molec. Sci. 2025 15(1), e70019
     doi.org/10.1002/wcms.7019

List of papers to cite with high priority. The work reported in these papers was absolutely
necessary for this run to complete.
Our perspective: the developers of density functionals and basis sets usually get cited in chemistry papers
Good! But without the algorithms to do something with them, the functionals or basis sets would not do anything.
Hence, in our opinion, the algorithm design and method developments papers are equally worthy of getting cited

  1. Neese, F.
     An improvement of the resolution of the identity approximation for the formation of the Coulomb matrix
     J. Comp. Chem. 2003 24(14), 1740-1747
     doi.org/10.1002/jcc.10318
  2. Neese, F.; Wennmohs, F.; Hansen, A.; Becker, U.
     Efficient, approximate and parallel Hartree-Fock and hybrid DFT calculations. A 'chain-of-spheres' algorithm for the Hartree-Fock exchange
     Chem. Phys. 2009 356(1-3), 98-109
     doi.org/10.1016/j.chemphys.2008.10.036
  3. Bykov, D.; Petrenko, T.; Izsak, R.; Kossmann, S.; Becker, U.; Valeev, E.; Neese, F.
     Efficient implementation of the analytic second derivatives of Hartree-Fock and hybrid DFT energies: a detailed analysis of different approximations
     Molec. Phys. 2015 113 , 1961-1977
     doi.org/10.1080/00268976.2015.1025114
  4. Caldeweyher, E.; Bannwarth, C.; Grimme, S.
     Extension of the D3 dispersion coefficient model
     J. Chem. Phys. 2017 147 , 034112
     doi.org/10.1063/1.4993215
  5. Caldeweyher, E.; Ehlert, S.; Hansen, A.; Neugebauer, H.; Spicher, S.; Bannwarth, C.; Grimme, S.
     A generally applicable atomic-charge dependent London dispersion correction
     J. Chem. Phys. 2019 150 , 154122
     doi.org/10.1063/1.5090222
  6. Garcia-Rates, M.; Neese, F.
     Efficient implementation of the analytical second derivatives of hartree-fock and hybrid DFT energies within the framework of the conductor-like polarizable continuum model
     J. Comput. Chem. 2019 40 , 1816-1828
     doi.org/10.1002/jcc.25833
  7. Caldeweyher, E.; Mewes, J.; Ehlert, S.; Grimme, S.
     Extension and evaluation of the D4 London-dispersion model for periodic systems
     Phys. Chem. Chem. Phys. 2020 22(16), 8499-8512
     doi.org/10.1039/D0CP00502A
  8. Garcia-Rates, M.; Neese, F.
     Effect of the Solute Cavity on the Solvation Energy and its Derivatives within the Framework of the Gaussian Charge Scheme
     J. Comput. Chem. 2020 41 , 922-939
     doi.org/10.1002/jcc.26139
  9. Helmich-Paris, B.; de Souza, B.; Neese, F.; Izsák, R.
     An improved chain of spheres for exchange algorithm
     J. Chem. Phys. 2021 155(10), 104109
     doi.org/10.1063/5.0058766
 10. Neese, F.
     The SHARK Integral Generation and Digestion System
     J. Comp. Chem. 2022 44(3), 381
     doi.org/10.1002/jcc.26942
 11. Wittmann, L.; Gordiy, I.; Friede, M.; Helmich-Paris, B.; Grimme, S.; Hansen, A.; Bursch, M.
     Extension of the D3 and D4 London Dispersion Corrections to the full Actinides Series
     Phys. Chem. Chem. Phys. 2024 26(32), 21379-21394
     doi.org/10.1039/D4CP01514B

List of suggested additional citations. These are papers that are important in the 'surrounding' of 
of this run, or papers that preceded the highly important papers. If you like your results we are grateful for a citation.

  1. Izsak, R.; Neese, F.
     An overlap fitted chain of spheres exchange method
     J. Chem. Phys. 2011 135 , 144105
     doi.org/10.1063/1.3646921
  2. Izsak, R.; Hansen, A.; Neese, F.
     The resolution of identity and chain of spheres approximations for the LPNO-CCSD singles Fock term
     Molec. Phys. 2012 110 , 2413-2417
     doi.org/10.1080/00268976.2012.687466
  3. Neese, F.
     The ORCA program system
     WIRES Comput. Molec. Sci. 2012 2(1), 73-78
     doi.org/10.1002/wcms.81
  4. Izsak, R.; Neese, F.; Klopper, W.
     Robust fitting techniques in the chain of spheres approximation to the Fock exchange: The role of the complementary space
     J. Chem. Phys. 2013 139 , 
     doi.org/10.1063/1.4819264
  5. Neese, F.
     Software update: the ORCA program system, version 4.0
     WIRES Comput. Molec. Sci. 2018 8(1), 1-6
     doi.org/10.1002/wcms.1327
  6. Neese, F.; Wennmohs, F.; Becker, U.; Riplinger, C.
     The ORCA quantum chemistry program package
     J. Chem. Phys. 2020 152(22), 224108
     doi.org/10.1063/5.0004608
  7. Neese, F.
     Software update: The ORCA program system—Version 5.0
     WIRES Comput. Molec. Sci. 2022 12(1), e1606
     doi.org/10.1002/wcms.1606

List of optional additional citations

  1. Neese, F.
     Approximate second-order SCF convergence for spin unrestricted wavefunctions
     Chem. Phys. Lett. 2000 325(1-3), 93-98
     doi.org/10.1016/s0009-2614(00)00662-x

Timings for individual modules:

Sum of individual times          ...    18896.117 sec (= 314.935 min)
Startup calculation              ...     1737.021 sec (=  28.950 min)   9.2 %
SCF iterations                   ...    10355.849 sec (= 172.597 min)  54.8 %
Property integrals               ...     1565.966 sec (=  26.099 min)   8.3 %
SCF Response                     ...     3259.126 sec (=  54.319 min)  17.2 %
Property calculations            ...      797.080 sec (=  13.285 min)   4.2 %
SCF Gradient evaluation          ...     1167.676 sec (=  19.461 min)   6.2 %
Geometry relaxation              ...       13.397 sec (=   0.223 min)   0.1 %
                             ****ORCA TERMINATED NORMALLY****
TOTAL RUN TIME: 0 days 5 hours 20 minutes 26 seconds 312 msec
