
                                 *****************
                                 * O   R   C   A *
                                 *****************

                                            #,                                       
                                            ###                                      
                                            ####                                     
                                            #####                                    
                                            ######                                   
                                           ########,                                 
                                     ,,################,,,,,                         
                               ,,#################################,,                 
                          ,,##########################################,,             
                       ,#########################################, ''#####,          
                    ,#############################################,,   '####,        
                  ,##################################################,,,,####,       
                ,###########''''           ''''###############################       
              ,#####''   ,,,,##########,,,,          '''####'''          '####       
            ,##' ,,,,###########################,,,                        '##       
           ' ,,###''''                  '''############,,,                           
         ,,##''                                '''############,,,,        ,,,,,,###''
      ,#''                                            '''#######################'''  
     '                                                          ''''####''''         
             ,#######,   #######,   ,#######,      ##                                
            ,#'     '#,  ##    ##  ,#'     '#,    #''#        ,####,    ,#,          
            ##       ##  ##   ,#'  ##            #'  '#       #'       ,# #          
            ##       ##  #######   ##           ,######,      #####,      #          
            '#,     ,#'  ##    ##  '#,     ,#' ,#      #,     #,   #      #          
             '#######'   ##     ##  '#######'  #'      '#     '####' #    #          



                #########################################################
                #                        -***-                          #
                #          Department of theory and spectroscopy        #
                #                                                       #
                #                      Frank Neese                      #
                #                                                       #
                #     Directorship, Architecture, Infrastructure        #
                #                    SHARK, DRIVERS                     #
                #        Core code/Algorithms in most modules           #
                #                                                       #
                #        Max Planck Institute fuer Kohlenforschung      #
                #                Kaiser Wilhelm Platz 1                 #
                #                 D-45470 Muelheim/Ruhr                 #
                #                      Germany                          #
                #                                                       #
                #                  All rights reserved                  #
                #                        -***-                          #
                #########################################################


                         Program Version 6.1.0-f.0  -   RELEASE   -


 With contributions from (in alphabetic order):
[Max-Planck-Institut fuer Kohlenforschung]                               
  Daniel Aravena         : Magnetic Suceptibility                        
  Michael Atanasov       : Ab Initio Ligand Field Theory (pilot matlab implementation)
  Alexander A. Auer      : GIAO ZORA, VPT2 properties, NMR spectrum      
  Ute Becker             : All parallelization in ORCA, NUMFREQ, NUMCALC 
  Giovanni Bistoni       : ED, misc. LED, open-shell LED, HFLD           
  Dmytro Bykov           : pre 5.0 version of the SCF Hessian            
  Marcos Casanova-Páez   : Triplet and SCS-CIS(D). UHF-(DLPNO)-IP/EA/STEOM-CCSD. UHF-CVS-IP/STEOM-CCSD   
  Vijay G. Chilkuri      : MRCI spin determinant printing, contributions to CSF-ICE 
  Pauline Colinet        : FMM embedding                                 
  Dipayan Datta          : RHF DLPNO-CCSD density                        
  Achintya Kumar Dutta   : EOM-CC, STEOM-CC                              
  Nicolas Foglia         : Exact transition moments, OPA infrastructure, MCD improvements    
  Dmitry Ganyushin       : Spin-Orbit,Spin-Spin,Magnetic field MRCI      
  Miquel Garcia-Rates    : C-PCM and meta-GGA Hessian, CCSD/C-PCM, Gaussian charge scheme 
  Tiago L. C. Gouveia    : GS-ROHF, GS-ROCIS                             
  Yang Guo               : DLPNO-NEVPT2, F12-NEVPT2, CIM, IAO-localization        
  Andreas Hansen         : Spin unrestricted coupled pair/coupled cluster methods 
  Ingolf Harden          : AUTO-CI MPn and infrastructure                
  Benjamin Helmich-Paris : MC-RPA, TRAH-(SCF,CASSCF), AVAS, COSX integrals, SCF dyn. polar., MC-PDFT, srDFT 
  Lee Huntington         : MR-EOM, pCC                                   
  Robert Izsak           : Overlap fitted RIJCOSX, COSX-SCS-MP3, EOM     
  Riya Kayal             : Wick's Theorem for AUTO-CI, AUTO-CI UHF-CCSDT 
  Emily Kempfer          : AUTO-CI RHF CISDT and CCSDT, approximate NEVPT4
  Christian Kollmar      : KDIIS, OOCD, Brueckner-CCSD(T), CCSD density, CASPT2, CASPT2-K, improved NEVPT2 
  Axel Koslowski         : Symmetry handling                             
  Simone Kossmann        : meta-GGA functionals, TD-DFT gradient, OOMP2, (MP2 Hessian; deprecated post 5.0) 
  Lucas Lang             : DCDCAS, Hyperfine gauge corrections, ICE-SOC+SSC
  Marvin Lechner         : AUTO-CI (C++ implementation), FIC-MRCC        
  Spencer Leger          : CASSCF response                               
  Dagmar Lenk            : GEPOL surface, SMD, ORCA-2-JSON               
  Dimitrios Liakos       : Extrapolation schemes; Compound Job, Property file
  Dimitrios Manganas     : Further ROCIS development; embedding schemes. LFT, Crystal Embedding 
  Dimitrios Pantazis     : SARC Basis sets                               
  Anastasios Papadopoulos: AUTO-CI, single reference methods and gradients 
  Taras Petrenko         : pre 6.0 DFT Hessian and TD-DFT gradient,  ECA, NRVS 
  Petra Pikulova         : Analytic Raman intensities                    
  Peter Pinski           : DLPNO-MP2, DLPNO-MP2 Gradient                 
  Shashank Vittal Rao    : ES-AILFT, MagRelax                            
  Christoph Reimann      : Effective Core Potentials                     
  Marius Retegan         : Local ZFS, SOC                                
  Christoph Riplinger    : Optimizer, TS searches, QM/MM, DLPNO-CCSD(T), (RO)-DLPNO pert. Triples 
  Michael Roemelt        : Original ROCIS implementation, recursive CI coupling coefficients
  Masaaki Saitow         : Open-shell DLPNO-CCSD energy and density      
  Barbara Sandhoefer     : DKH picture change effects                    
  Yorick L. A. Schmerwitz: GMF and freeze-and-release deltaSCF, NEB S-IDPP initial path                    
  Kantharuban Sivalingam : CASSCF convergence/infrastructure, NEVPT2, NEVPT3, NEVPT4(SD), FIC-MRCI and CEPA variants
  Bernardo de Souza      : ESD, SOC TD-DFT                               
  Georgi L. Stoychev     : AutoAux, RI-MP2 NMR, DLPNO-MP2 response, X2C  
  Van Anh Tran           : RI-MP2 g-tensors                              
  Willem Van den Heuvel  : Paramagnetic NMR                              
  Zikuan Wang            : NOTCH, Electric field optimization            
  Frank Wennmohs         : Technical directorship and infrastructure     
  Hang Xu                : AUTO-CI-Response properties                   
                                                                         
[FACCTs GmbH]                                                            
  Markus Bursch, Nicolas Foglia, Miquel Garcia-Rates, Ingolf Harden, Hagen Neugebauer, Anastasios Papadopoulos, 
  Christoph Riplinger, Bernardo de Souza, Georgi L. Stoychev                                                    
                                                                 
  APM, various basis sets, CI-OPT, improved COSX, DLPNO-Multilevel,           
  DOCKER, DRACO, updates on ESD, Fragmentator, GOAT, IRC, LR-CPCM, L-BFGS, MBIS, meta-GGA TD-DFT gradient, ML-optimized integration grids, 
  MM, NACMEs, nearIR, NEB, NEB-TS, NL-DFT gradient (VV10), 2- and 3-layer-ONIOM, interface openCOSMO-RS, QMMM,   
  Crystal-QMMM, RESP, rigid body optimization, SF, symmetry and pop. for TD-DFT, various functionals, SOLVATOR                                   
                                                                         
[Other institutions]                                                     
  V. Asgeirsson          : NEB                                           
  Christoph Bannwarth    : sTDA-DFT, sTD-DFT, PBEh-3c, B97-3c, D3        
  Giovanni Bistoni       : ETS/NOCV, ADLD/ADEX, COVALED                  
  Martin Brehm           : Molecular dynamics                            
  Ronald Cardenas        : ETS/NOCV                                      
  Martina Colucci        : COVALED                                       
  Sebastian Ehlert       : rSCAN, r2SCAN, r2SCAN-3c, D4, dhf basis sets  
  Marvin Friede          : D4 for Fr, Ra, Ac-Lr                          
  Lars Goerigk           : TD-DFT with DH, B97 family of functionals     
  Stefan Grimme          : VdW corrections, initial TS optimization, DFT functionals, gCP, sTDA/sTD-DF 
  Waldemar Hujo          : DFT-NL                                        
  H. Jonsson             : NEB                                           
  Holger Kruse           : gCP                                           
  Marcel Mueller         : wB97X-3c, vDZP basis set                      
  Hagen Neugebauer       : wr2SCAN, Native XTB                           
  Gianluca Regni         : ADLD/ADEX                                     
  Tobias Risthaus        : pre 6.0 range-separated hybrid DFT and stability analysis
  Lukas Wittmann         : regularized MP2, r2SCAN double-hybrids, wr2SCAN        
                                                                         
We gratefully acknowledge several colleagues who have allowed us to      
interface, adapt or use parts of their codes:                            
  Ed Valeev, F. Pavosevic, A. Kumar             : LibInt (2-el integral package), F12 methods 
  Garnet Chan, S. Sharma, J. Yang, R. Olivares  : DMRG                   
  Ulf Ekstrom                                   : XCFun DFT Library      
  Mihaly Kallay                                 : mrcc  (arbitrary order and MRCC methods)
  Frank Weinhold                                : gennbo (NPA and NBO analysis)           
  Simon Mueller                                 : openCOSMO-RS                            
  Christopher J. Cramer and Donald G. Truhlar   : smd solvation model                     
  S Lehtola, MJT Oliveira, MAL Marques          : LibXC Library                           
  Liviu Ungur et al                             : ANISO software                          


 Your calculation uses the libint2 library for the computation of 2-el integrals
 For citations please refer to: http://libint.valeyev.net

 Your ORCA version has been built with support for libXC version: 7.0.0
 For citations please refer to: https://libxc.gitlab.io

 This ORCA versions uses:
   CBLAS   interface :  Fast vector & matrix operations
   LAPACKE interface :  Fast linear algebra routines
   SCALAPACK package :  Parallel linear algebra routines
   Shared memory     :  Shared parallel matrices
   BLAS/LAPACK       :  OpenBLAS 0.3.29  USE64BITINT DYNAMIC_ARCH NO_AFFINITY Cooperlake SINGLE_THREADED
        Core in use  :  Cooperlake
   Copyright (c) 2011-2014, The OpenBLAS Project


  ***********************************
  * Starting time: Sat Feb 28 06:21:27 2026
  * Host name:     c08b01n08
  * Process ID:    810484
  * Working dir.:  /lustre1/jiangy/jiangy_liuxy/NMR/B9D7C2-RSSS
  ***********************************

NOTE: MaxCore=6000 MB was set to SCF,MP2,MDCI,CIPSI,MRCI,RASCI and CIS
      => If you want to overwrite this, your respective input block should be placed after the MaxCore statement


***************************************
The coordinates will be read from file: conf-0.xyz
***************************************


Your calculation utilizes the atom-pairwise dispersion correction
based on EEQ partial charges (D4)


Warning: RI is on but no J-basis has been assigned. Assigning Def2/J (nothing to worry about!)
================================================================================

----- Orbital basis set information -----
Your calculation utilizes the basis: def2-TZVP
   F. Weigend and R. Ahlrichs, Phys. Chem. Chem. Phys. 7, 3297 (2005).

----- AuxJ basis set information -----
Your calculation utilizes the auxiliary basis: def2/J
   H-Rn: F. Weigend, Phys. Chem. Chem. Phys. 8, 1057 (2006).
   Fr-Lr: K. Eichkorn, F. Weigend, O. Treutler, R. Ahlrichs; Theor. Chem. Acc. 97, 119 (1997).

================================================================================
                                        WARNINGS
                       Please study these warnings very carefully!
================================================================================


WARNING: Geometry Optimization
  ===> : Switching off AutoStart
         For restart on a previous wavefunction, please use MOREAD

================================================================================
                                       INPUT FILE
================================================================================
NAME = opt-conf-0.inp
|  1> ! B3LYP OPT FREQ DEF2-TZVP D4 CPCM(Methanol) 
|  2> ! TightOpt
|  3> %pal nprocs 64 end
|  4> %maxcore 6000
|  5> 
|  6> %cpcm
|  7> end
|  8> 
|  9> %freq
| 10>    Temp 298.15
| 11> end
| 12> 
| 13> * xyzfile 0 1 conf-0.xyz
| 14> 
| 15> 
| 16>                          ****END OF INPUT****
================================================================================

                       *****************************
                       * Geometry Optimization Run *
                       *****************************

Geometry optimization settings:
Update method            Update   .... BFGS
Choice of coordinates    CoordSys .... (2022) Redundant Internals
Initial Hessian          InHess   .... Almloef's Model
Max. no of cycles        MaxIter  .... 246

Convergence Tolerances:
Energy Change            TolE     ....  1.0000e-06 Eh
Max. Gradient            TolMAXG  ....  1.0000e-04 Eh/bohr
RMS Gradient             TolRMSG  ....  3.0000e-05 Eh/bohr
Max. Displacement        TolMAXD  ....  1.0000e-03 bohr
RMS Displacement         TolRMSD  ....  6.0000e-04 bohr
Strict Convergence                .... False

------------------------------------------------------------------------------
                        ORCA OPTIMIZATION COORDINATE SETUP
------------------------------------------------------------------------------

The optimization will be done in redundant internal coordinates (2022)
Making redundant internal coordinates   ...  (2022 redundants) done
Evaluating the initial hessian          ...  (Almloef) done
Evaluating the coordinates              ...  done
Calculating the B-matrix                .... done
Calculating the G-matrix                .... done
The number of degrees of freedom        ....  406

    -----------------------------------------------------------------
                    Redundant Internal Coordinates


    -----------------------------------------------------------------
         Definition                    Initial Value    Approx d2E/dq
    -----------------------------------------------------------------
      1. B(C   1,C   0)                  1.3995         0.603327   
      2. B(C   2,C   1)                  1.4002         0.601817   
      3. B(C   3,C   2)                  1.3885         0.628156   
      4. B(C   4,C   3)                  1.3855         0.635174   
      5. B(C   5,C   0)                  1.3866         0.632560   
      6. B(C   5,C   4)                  1.3873         0.631137   
      7. B(C   6,C   4)                  1.5014         0.414977   
      8. B(C   7,C   6)                  1.5355         0.366157   
      9. B(C   8,C   7)                  1.5408         0.359094   
     10. B(C   9,C   8)                  1.5370         0.364040   
     11. B(C  10,C   9)                  1.5043         0.410608   
     12. B(C  11,C  10)                  1.3933         0.617343   
     13. B(C  12,C  11)                  1.3815         0.644513   
     14. B(C  13,C  12)                  1.4054         0.590368   
     15. B(C  14,C  13)                  1.3824         0.642594   
     16. B(C  15,C  10)                  1.3854         0.635539   
     17. B(C  15,C  14)                  1.3860         0.633947   
     18. B(C  16,C   7)                  1.5369         0.364175   
     19. B(C  17,C   8)                  1.5358         0.365738   
     20. B(O  18,C   2)                  1.3649         0.613641   
     21. B(O  19,C   0)                  1.3658         0.611664   
     22. B(O  20,C   1)                  1.3787         0.583333   
     23. B(O  21,C  13)                  1.3611         0.622212   
     24. B(O  22,C  12)                  1.3787         0.583345   
     25. B(C  23,O  20)                  1.4278         0.487086   
     26. B(C  24,C  23)                  1.5469         0.351026   
     27. B(C  25,C  24)                  1.5202         0.387297   
     28. B(C  26,C  23)                  1.5316         0.371347   
     29. B(O  27,C  26)                  1.4021         0.535330   
     30. B(C  28,C  25)                  1.3906         0.623496   
     31. B(C  29,C  28)                  1.3815         0.644543   
     32. B(C  30,C  29)                  1.4013         0.599390   
     33. B(C  31,C  30)                  1.3825         0.642264   
     34. B(C  32,C  31)                  1.3848         0.636838   
     35. B(C  32,C  25)                  1.3860         0.633936   
     36. B(C  33,O  19)                  1.4068         0.526044   
     37. B(C  34,O  18)                  1.4069         0.525939   
     38. B(C  35,O  22)                  1.4075         0.524723   
     39. B(O  36,C  24)                  1.4032         0.533102   
     40. B(O  37,C  16)                  1.4074         0.524981   
     41. B(O  38,C  17)                  1.4059         0.527905   
     42. B(O  39,C  29)                  1.3749         0.591472   
     43. B(O  40,C  30)                  1.3696         0.603248   
     44. B(C  41,O  39)                  1.4095         0.520988   
     45. B(H  42,C   3)                  1.0778         0.376615   
     46. B(H  43,C   5)                  1.0778         0.376616   
     47. B(H  44,C   6)                  1.0899         0.360195   
     48. B(H  45,C   6)                  1.0913         0.358358   
     49. B(H  46,C   7)                  1.0970         0.350919   
     50. B(H  47,C   8)                  1.0968         0.351218   
     51. B(H  48,C   9)                  1.0915         0.358072   
     52. B(H  49,C   9)                  1.0944         0.354364   
     53. B(H  50,C  11)                  1.0774         0.377118   
     54. B(H  51,C  14)                  1.0783         0.375870   
     55. B(H  52,C  15)                  1.0802         0.373297   
     56. B(H  53,C  16)                  1.0980         0.349618   
     57. B(H  54,C  16)                  1.0916         0.357956   
     58. B(H  55,C  17)                  1.1020         0.344552   
     59. B(H  56,C  17)                  1.0917         0.357858   
     60. B(H  57,O  21)                  0.9672         0.506468   
     61. B(H  57,O  22)                  2.1111         0.010000   
     62. B(H  58,C  23)                  1.0934         0.355594   
     63. B(H  59,C  24)                  1.0975         0.350273   
     64. B(H  60,C  26)                  1.0918         0.357700   
     65. B(H  61,C  26)                  1.0987         0.348794   
     66. B(H  62,O  20)                  2.3462         0.010000   
     67. B(H  62,O  27)                  0.9661         0.508394   
     68. B(H  63,C  28)                  1.0777         0.376740   
     69. B(H  64,C  31)                  1.0783         0.375905   
     70. B(H  65,C  32)                  1.0786         0.375518   
     71. B(H  66,C  33)                  1.0945         0.354238   
     72. B(H  67,C  33)                  1.0946         0.354113   
     73. B(H  68,C  33)                  1.0894         0.360898   
     74. B(H  69,C  34)                  1.0942         0.354639   
     75. B(H  70,C  34)                  1.0889         0.361613   
     76. B(H  71,H  64)                  4.5214         0.010000   
     77. B(H  71,C  34)                  1.0946         0.354083   
     78. B(H  72,C  35)                  1.0941         0.354747   
     79. B(H  73,C  35)                  1.0940         0.354819   
     80. B(H  74,C  35)                  1.0888         0.361726   
     81. B(H  75,O  20)                  2.2558         0.010000   
     82. B(H  75,O  19)                  2.2953         0.010000   
     83. B(H  75,O  36)                  0.9716         0.498280   
     84. B(H  76,O  40)                  1.9571         0.013342   
     85. B(H  76,O  37)                  0.9700         0.501246   
     86. B(H  77,O  38)                  0.9645         0.511383   
     87. B(H  78,O  39)                  2.1078         0.010000   
     88. B(H  78,O  40)                  0.9688         0.503412   
     89. B(H  79,O  21)                  2.3558         0.010000   
     90. B(H  79,C  41)                  1.0886         0.362008   
     91. B(H  80,C  41)                  1.0939         0.355020   
     92. B(H  81,H  67)                  2.4184         0.010000   
     93. B(H  81,C  41)                  1.0931         0.356032   
     94. A(C   1,C   0,O  19)          115.6177         0.428081   
     95. A(C   5,C   0,O  19)          124.7103         0.431732   
     96. A(C   1,C   0,C   5)          119.6720         0.433504   
     97. A(C   0,C   1,O  20)          118.7236         0.424461   
     98. A(C   0,C   1,C   2)          119.7949         0.429641   
     99. A(C   2,C   1,O  20)          121.3699         0.424271   
    100. A(C   3,C   2,O  18)          124.6765         0.431440   
    101. A(C   1,C   2,C   3)          119.5828         0.432764   
    102. A(C   1,C   2,O  18)          115.7404         0.428137   
    103. A(C   4,C   3,H  42)          118.9329         0.357064   
    104. A(C   2,C   3,H  42)          120.5058         0.356391   
    105. A(C   2,C   3,C   4)          120.5589         0.436987   
    106. A(C   5,C   4,C   6)          119.3269         0.405363   
    107. A(C   3,C   4,C   6)          120.8175         0.405820   
    108. A(C   3,C   4,C   5)          119.8427         0.437361   
    109. A(C   4,C   5,H  43)          118.7629         0.356678   
    110. A(C   0,C   5,H  43)          120.6996         0.356814   
    111. A(C   0,C   5,C   4)          120.5355         0.437036   
    112. A(C   4,C   6,H  44)          110.2755         0.329998   
    113. A(C   7,C   6,H  45)          108.9713         0.322996   
    114. A(C   4,C   6,C   7)          110.6166         0.368684   
    115. A(H  44,C   6,H  45)          108.6949         0.290630   
    116. A(C   4,C   6,H  45)          108.9403         0.329720   
    117. A(C   7,C   6,H  44)          109.3040         0.323267   
    118. A(C   6,C   7,C  16)          110.1337         0.360538   
    119. A(C   8,C   7,C  16)          110.6930         0.359344   
    120. A(C  16,C   7,H  46)          106.8940         0.321602   
    121. A(C   8,C   7,H  46)          106.8455         0.320863   
    122. A(C   6,C   7,H  46)          108.0731         0.321888   
    123. A(C   6,C   7,C   8)          113.8765         0.359676   
    124. A(C   7,C   8,C  17)          114.5004         0.359606   
    125. A(C  17,C   8,H  47)          107.3272         0.321872   
    126. A(C   7,C   8,C   9)          111.3540         0.359321   
    127. A(C   9,C   8,H  47)          108.5875         0.321627   
    128. A(C   7,C   8,H  47)          105.9811         0.320908   
    129. A(C   9,C   8,C  17)          108.8383         0.360445   
    130. A(H  48,C   9,H  49)          107.2523         0.289850   
    131. A(C  10,C   9,H  48)          109.2484         0.329100   
    132. A(C  10,C   9,H  49)          108.6213         0.328535   
    133. A(C   8,C   9,C  10)          113.7599         0.367649   
    134. A(C   8,C   9,H  48)          109.3368         0.322647   
    135. A(C   8,C   9,H  49)          108.4170         0.322097   
    136. A(C   9,C  10,C  11)          120.0589         0.403032   
    137. A(C  11,C  10,C  15)          118.8073         0.435668   
    138. A(C   9,C  10,C  15)          121.1205         0.405103   
    139. A(C  10,C  11,C  12)          120.7141         0.436770   
    140. A(C  10,C  11,H  50)          119.1863         0.355423   
    141. A(C  12,C  11,H  50)          120.0995         0.358032   
    142. A(C  11,C  12,C  13)          119.9347         0.433270   
    143. A(C  13,C  12,O  22)          114.5556         0.422818   
    144. A(C  11,C  12,O  22)          125.5092         0.429514   
    145. A(C  12,C  13,O  21)          120.1347         0.427727   
    146. A(C  12,C  13,C  14)          119.3004         0.433038   
    147. A(C  14,C  13,O  21)          120.5648         0.434289   
    148. A(C  13,C  14,H  51)          118.6576         0.357649   
    149. A(C  13,C  14,C  15)          120.1506         0.438629   
    150. A(C  15,C  14,H  51)          121.1884         0.356827   
    151. A(C  14,C  15,H  52)          119.1878         0.356411   
    152. A(C  10,C  15,H  52)          119.7586         0.356563   
    153. A(C  10,C  15,C  14)          121.0403         0.437756   
    154. A(O  37,C  16,H  54)          106.3578         0.340725   
    155. A(C   7,C  16,H  54)          110.2916         0.322649   
    156. A(O  37,C  16,H  53)          110.6763         0.339386   
    157. A(C   7,C  16,H  53)          108.5288         0.321406   
    158. A(C   7,C  16,O  37)          112.4636         0.381186   
    159. A(H  53,C  16,H  54)          108.4483         0.289224   
    160. A(O  38,C  17,H  56)          105.5617         0.341026   
    161. A(C   8,C  17,O  38)          114.3359         0.381837   
    162. A(H  55,C  17,H  56)          107.7153         0.288551   
    163. A(C   8,C  17,H  56)          110.9486         0.322861   
    164. A(O  38,C  17,H  55)          109.8117         0.338874   
    165. A(C   8,C  17,H  55)          108.2745         0.320864   
    166. A(C   2,O  18,C  34)          118.7024         0.415241   
    167. A(C   0,O  19,C  33)          117.8708         0.415018   
    168. A(C   1,O  20,C  23)          116.5797         0.405968   
    169. A(C  13,O  21,H  57)          107.5823         0.368674   
    170. A(C  12,O  22,C  35)          118.0234         0.411355   
    171. A(C  26,C  23,H  58)          108.9188         0.323332   
    172. A(C  24,C  23,H  58)          110.9522         0.320366   
    173. A(O  20,C  23,H  58)          110.4195         0.336122   
    174. A(C  24,C  23,C  26)          111.6287         0.359147   
    175. A(O  20,C  23,C  26)          105.3635         0.377544   
    176. A(O  20,C  23,C  24)          109.4191         0.373892   
    177. A(C  23,C  24,O  36)          108.9402         0.379772   
    178. A(O  36,C  24,H  59)          106.2807         0.340364   
    179. A(C  25,C  24,H  59)          109.1556         0.324767   
    180. A(C  23,C  24,H  59)          108.5421         0.319578   
    181. A(C  25,C  24,O  36)          112.0456         0.386316   
    182. A(C  23,C  24,C  25)          111.6785         0.361730   
    183. A(C  28,C  25,C  32)          119.1638         0.436248   
    184. A(C  24,C  25,C  32)          122.2292         0.400771   
    185. A(C  24,C  25,C  28)          118.6030         0.399602   
    186. A(O  27,C  26,H  61)          110.9275         0.340360   
    187. A(H  60,C  26,H  61)          109.0817         0.289084   
    188. A(C  23,C  26,H  61)          108.5713         0.322310   
    189. A(O  27,C  26,H  60)          106.9396         0.341799   
    190. A(C  23,C  26,H  60)          110.1985         0.323645   
    191. A(C  23,C  26,O  27)          111.1020         0.383778   
    192. A(C  26,O  27,H  62)          106.8942         0.359546   
    193. A(C  29,C  28,H  63)          120.9365         0.357974   
    194. A(C  25,C  28,H  63)          118.2676         0.355961   
    195. A(C  25,C  28,C  29)          120.7956         0.437555   
    196. A(C  30,C  29,O  39)          114.9746         0.425016   
    197. A(C  28,C  29,O  39)          125.4769         0.430586   
    198. A(C  28,C  29,C  30)          119.5480         0.434458   
    199. A(C  31,C  30,O  40)          120.5177         0.431838   
    200. A(C  29,C  30,O  40)          119.8462         0.426519   
    201. A(C  29,C  30,C  31)          119.6253         0.434181   
    202. A(C  32,C  31,H  64)          120.7439         0.357108   
    203. A(C  30,C  31,H  64)          118.9641         0.357624   
    204. A(C  30,C  31,C  32)          120.2858         0.438948   
    205. A(C  31,C  32,H  65)          118.8951         0.357046   
    206. A(C  25,C  32,H  65)          120.6454         0.356769   
    207. A(C  25,C  32,C  31)          120.4584         0.437916   
    208. A(H  67,C  33,H  68)          109.7485         0.290176   
    209. A(H  66,C  33,H  68)          109.1510         0.290192   
    210. A(O  19,C  33,H  68)          105.6880         0.341307   
    211. A(H  66,C  33,H  67)          109.1739         0.289329   
    212. A(O  19,C  33,H  67)          111.6629         0.340226   
    213. A(O  19,C  33,H  66)          111.3399         0.340246   
    214. A(H  69,C  34,H  71)          109.4662         0.289377   
    215. A(O  18,C  34,H  71)          111.5543         0.340210   
    216. A(H  69,C  34,H  70)          109.4052         0.290334   
    217. A(O  18,C  34,H  70)          105.3789         0.341409   
    218. A(O  18,C  34,H  69)          111.4883         0.340299   
    219. A(H  70,C  34,H  71)          109.4499         0.290262   
    220. A(H  73,C  35,H  74)          109.4956         0.290371   
    221. A(H  72,C  35,H  74)          109.2717         0.290362   
    222. A(O  22,C  35,H  74)          105.6246         0.341295   
    223. A(H  72,C  35,H  73)          109.6846         0.289485   
    224. A(O  22,C  35,H  73)          111.3244         0.340196   
    225. A(O  22,C  35,H  72)          111.3408         0.340185   
    226. A(C  24,O  36,H  75)          105.9952         0.358065   
    227. A(C  16,O  37,H  76)          107.8198         0.357492   
    228. A(C  17,O  38,H  77)          108.3168         0.359050   
    229. A(C  29,O  39,C  41)          118.0042         0.411844   
    230. A(C  30,O  40,H  78)          107.2722         0.366341   
    231. A(H  80,C  41,H  81)          109.3197         0.289675   
    232. A(H  79,C  41,H  81)          109.3506         0.290562   
    233. A(O  39,C  41,H  81)          111.6468         0.339984   
    234. A(H  79,C  41,H  80)          110.0718         0.290432   
    235. A(O  39,C  41,H  80)          111.0503         0.339822   
    236. A(O  39,C  41,H  79)          105.3300         0.340931   
    237. D(O  20,C   1,C   0,O  19)     -2.6881         0.025109   
    238. D(C   2,C   1,C   0,O  19)   -178.9013         0.025109   
    239. D(C   2,C   1,C   0,C   5)      1.1292         0.025109   
    240. D(O  20,C   1,C   0,C   5)    177.3425         0.025109   
    241. D(O  18,C   2,C   1,C   0)    178.5044         0.024976   
    242. D(C   3,C   2,C   1,C   0)     -1.3070         0.024976   
    243. D(C   3,C   2,C   1,O  20)   -177.4176         0.024976   
    244. D(O  18,C   2,C   1,O  20)      2.3939         0.024976   
    245. D(C   4,C   3,C   2,C   1)      0.5670         0.027348   
    246. D(H  42,C   3,C   2,O  18)      0.2049         0.027348   
    247. D(C   4,C   3,C   2,O  18)   -179.2264         0.027348   
    248. D(H  42,C   3,C   2,C   1)    179.9984         0.027348   
    249. D(C   6,C   4,C   3,H  42)      2.2280         0.028003   
    250. D(C   5,C   4,C   3,H  42)   -179.0849         0.028003   
    251. D(C   5,C   4,C   3,C   2)      0.3553         0.028003   
    252. D(C   6,C   4,C   3,C   2)   -178.3318         0.028003   
    253. D(H  43,C   5,C   4,C   6)     -1.3173         0.027625   
    254. D(H  43,C   5,C   4,C   3)    179.9760         0.027625   
    255. D(C   0,C   5,C   4,C   3)     -0.5375         0.027625   
    256. D(C   4,C   5,C   0,O  19)    179.8262         0.027758   
    257. D(H  43,C   5,C   0,C   1)    179.2692         0.027758   
    258. D(H  43,C   5,C   0,O  19)     -0.6973         0.027758   
    259. D(C   0,C   5,C   4,C   6)    178.1693         0.027625   
    260. D(C   4,C   5,C   0,C   1)     -0.2073         0.027758   
    261. D(H  45,C   6,C   4,C   3)   -137.3036         0.012743   
    262. D(H  44,C   6,C   4,C   5)    163.2141         0.012743   
    263. D(H  44,C   6,C   4,C   3)    -18.0921         0.012743   
    264. D(C   7,C   6,C   4,C   5)    -75.7542         0.012743   
    265. D(C   7,C   6,C   4,C   3)    102.9396         0.012743   
    266. D(C   8,C   7,C   6,H  44)    -74.6155         0.010732   
    267. D(C   8,C   7,C   6,C   4)    163.7782         0.010732   
    268. D(C  16,C   7,C   6,H  45)    169.0602         0.010732   
    269. D(C  16,C   7,C   6,H  44)     50.4046         0.010732   
    270. D(C   8,C   7,C   6,H  45)     44.0400         0.010732   
    271. D(C  16,C   7,C   6,C   4)    -71.2016         0.010732   
    272. D(C  17,C   8,C   7,H  46)    163.1236         0.010349   
    273. D(C  17,C   8,C   7,C  16)    -80.8402         0.010349   
    274. D(C  17,C   8,C   7,C   6)     43.8813         0.010349   
    275. D(C   9,C   8,C   7,C  16)    155.1604         0.010349   
    276. D(C   9,C   8,C   7,H  46)     39.1241         0.010349   
    277. D(C   9,C   8,C   7,C   6)    -80.1181         0.010349   
    278. D(H  48,C   9,C   8,C  17)    -60.6330         0.010616   
    279. D(H  48,C   9,C   8,C   7)     66.5137         0.010616   
    280. D(C  10,C   9,C   8,H  47)     60.4067         0.010616   
    281. D(C  10,C   9,C   8,C  17)    176.9413         0.010616   
    282. D(H  48,C   9,C   8,H  47)   -177.1675         0.010616   
    283. D(C  10,C   9,C   8,C   7)    -55.9120         0.010616   
    284. D(C  15,C  10,C   9,H  48)      2.7893         0.012486   
    285. D(C  15,C  10,C   9,C   8)    125.2637         0.012486   
    286. D(C  11,C  10,C   9,H  49)     64.7550         0.012486   
    287. D(C  11,C  10,C   9,H  48)   -178.5557         0.012486   
    288. D(C  11,C  10,C   9,C   8)    -56.0813         0.012486   
    289. D(H  50,C  11,C  10,C  15)   -179.6937         0.026358   
    290. D(H  50,C  11,C  10,C   9)      1.6204         0.026358   
    291. D(C  12,C  11,C  10,C  15)      0.4200         0.026358   
    292. D(C  12,C  11,C  10,C   9)   -178.2659         0.026358   
    293. D(O  22,C  12,C  11,H  50)      1.5250         0.028889   
    294. D(C  13,C  12,C  11,H  50)   -178.2317         0.028889   
    295. D(O  22,C  12,C  11,C  10)   -178.5897         0.028889   
    296. D(C  13,C  12,C  11,C  10)      1.6536         0.028889   
    297. D(O  21,C  13,C  12,C  11)    177.3559         0.023987   
    298. D(C  14,C  13,C  12,O  22)    177.7263         0.023987   
    299. D(C  14,C  13,C  12,C  11)     -2.4915         0.023987   
    300. D(O  21,C  13,C  12,O  22)     -2.4263         0.023987   
    301. D(H  51,C  14,C  13,O  21)      0.7471         0.028705   
    302. D(H  51,C  14,C  13,C  12)   -179.4061         0.028705   
    303. D(C  15,C  14,C  13,O  21)   -178.5846         0.028705   
    304. D(C  15,C  14,C  13,C  12)      1.2621         0.028705   
    305. D(H  52,C  15,C  14,H  51)      0.1863         0.027888   
    306. D(H  52,C  15,C  14,C  13)    179.5009         0.027888   
    307. D(C  10,C  15,C  14,H  51)   -178.4861         0.027888   
    308. D(C  10,C  15,C  14,C  13)      0.8284         0.027888   
    309. D(H  52,C  15,C  10,C  11)    179.6603         0.028037   
    310. D(H  52,C  15,C  10,C   9)     -1.6682         0.028037   
    311. D(C  14,C  15,C  10,C  11)     -1.6748         0.028037   
    312. D(C  14,C  15,C  10,C   9)    176.9968         0.028037   
    313. D(H  53,C  16,C   7,H  46)    -64.2045         0.010623   
    314. D(H  53,C  16,C   7,C   8)    179.7893         0.010623   
    315. D(H  53,C  16,C   7,C   6)     52.9679         0.010623   
    316. D(O  37,C  16,C   7,H  46)     58.5842         0.010623   
    317. D(O  37,C  16,C   7,C   8)    -57.4220         0.010623   
    318. D(O  37,C  16,C   7,C   6)    175.7566         0.010623   
    319. D(H  55,C  17,C   8,H  47)     64.7368         0.010709   
    320. D(H  55,C  17,C   8,C   9)    -52.6016         0.010709   
    321. D(H  55,C  17,C   8,C   7)   -177.9322         0.010709   
    322. D(O  38,C  17,C   8,H  47)    -58.0211         0.010709   
    323. D(O  38,C  17,C   8,C   9)   -175.3595         0.010709   
    324. D(O  38,C  17,C   8,C   7)     59.3099         0.010709   
    325. D(C  34,O  18,C   2,C   3)      0.7090         0.027586   
    326. D(C  34,O  18,C   2,C   1)   -179.0916         0.027586   
    327. D(C  33,O  19,C   0,C   5)     -4.7074         0.030232   
    328. D(C  33,O  19,C   0,C   1)    175.3249         0.030232   
    329. D(C  23,O  20,C   1,C   2)    -67.4612         0.029683   
    330. D(C  23,O  20,C   1,C   0)    116.3876         0.029683   
    331. D(H  57,O  21,C  13,C  14)    179.6817         0.031367   
    332. D(H  57,O  21,C  13,C  12)     -0.1637         0.031367   
    333. D(C  35,O  22,C  12,C  13)   -176.8144         0.027314   
    334. D(C  35,O  22,C  12,C  11)      3.4174         0.027314   
    335. D(H  58,C  23,O  20,C   1)     40.4404         0.021799   
    336. D(C  26,C  23,O  20,C   1)    157.8970         0.021799   
    337. D(C  24,C  23,O  20,C   1)    -81.9594         0.021799   
    338. D(O  36,C  24,C  23,H  58)   -175.3485         0.010000   
    339. D(O  36,C  24,C  23,C  26)     62.9627         0.010000   
    340. D(O  36,C  24,C  23,O  20)    -53.2676         0.010000   
    341. D(C  25,C  24,C  23,H  58)    -51.0542         0.010000   
    342. D(C  25,C  24,C  23,C  26)   -172.7430         0.010000   
    343. D(C  25,C  24,C  23,O  20)     71.0267         0.010000   
    344. D(C  32,C  25,C  24,O  36)    170.5307         0.011168   
    345. D(C  32,C  25,C  24,C  23)     47.9959         0.011168   
    346. D(C  28,C  25,C  24,H  59)    107.2401         0.011168   
    347. D(C  28,C  25,C  24,O  36)    -10.2021         0.011168   
    348. D(C  28,C  25,C  24,C  23)   -132.7369         0.011168   
    349. D(H  60,C  26,C  23,H  58)    -65.4107         0.011019   
    350. D(H  60,C  26,C  23,C  24)     57.4461         0.011019   
    351. D(H  60,C  26,C  23,O  20)    176.1221         0.011019   
    352. D(O  27,C  26,C  23,H  58)     52.9322         0.011019   
    353. D(O  27,C  26,C  23,C  24)    175.7890         0.011019   
    354. D(O  27,C  26,C  23,O  20)    -65.5350         0.011019   
    355. D(H  62,O  27,C  26,H  61)    -76.6549         0.022779   
    356. D(H  62,O  27,C  26,H  60)    164.5059         0.022779   
    357. D(H  62,O  27,C  26,C  23)     44.2132         0.022779   
    358. D(H  63,C  28,C  25,C  32)    176.7546         0.026919   
    359. D(H  63,C  28,C  25,C  24)     -2.5354         0.026919   
    360. D(C  29,C  28,C  25,C  32)     -3.0518         0.026919   
    361. D(C  29,C  28,C  25,C  24)    177.6581         0.026919   
    362. D(C  30,C  29,C  28,H  63)   -179.6296         0.028892   
    363. D(C  30,C  29,C  28,C  25)      0.1717         0.028892   
    364. D(O  39,C  29,C  28,H  63)      0.0969         0.028892   
    365. D(O  39,C  29,C  28,C  25)    179.8982         0.028892   
    366. D(O  40,C  30,C  29,O  39)      1.6561         0.024764   
    367. D(O  40,C  30,C  29,C  28)   -178.5896         0.024764   
    368. D(C  31,C  30,C  29,O  39)   -177.1560         0.024764   
    369. D(C  31,C  30,C  29,C  28)      2.5984         0.024764   
    370. D(H  64,C  31,C  30,O  40)     -2.1766         0.028674   
    371. D(H  64,C  31,C  30,C  29)    176.6273         0.028674   
    372. D(C  32,C  31,C  30,O  40)    178.7246         0.028674   
    373. D(C  32,C  31,C  30,C  29)     -2.4714         0.028674   
    374. D(H  65,C  32,C  31,H  64)      0.0938         0.028159   
    375. D(H  65,C  32,C  31,C  30)    179.1763         0.028159   
    376. D(C  25,C  32,C  31,H  64)   -179.5210         0.028159   
    377. D(C  25,C  32,C  31,C  30)     -0.4385         0.028159   
    378. D(H  65,C  32,C  25,C  28)   -176.4194         0.027887   
    379. D(H  65,C  32,C  25,C  24)      2.8437         0.027887   
    380. D(C  31,C  32,C  25,C  28)      3.1887         0.027887   
    381. D(C  31,C  32,C  25,C  24)   -177.5482         0.027887   
    382. D(H  68,C  33,O  19,C   0)   -179.0969         0.023840   
    383. D(H  67,C  33,O  19,C   0)     61.6154         0.023840   
    384. D(H  66,C  33,O  19,C   0)    -60.7008         0.023840   
    385. D(H  71,C  34,O  18,C   2)    -61.8030         0.021951   
    386. D(H  70,C  34,O  18,C   2)    179.5142         0.021951   
    387. D(H  69,C  34,O  18,C   2)     60.9199         0.021951   
    388. D(H  74,C  35,O  22,C  12)    177.0951         0.023714   
    389. D(H  73,C  35,O  22,C  12)     58.3323         0.023714   
    390. D(H  72,C  35,O  22,C  12)    -64.4016         0.023714   
    391. D(H  75,O  36,C  24,H  59)    167.7328         0.022581   
    392. D(H  75,O  36,C  24,C  25)    -73.1186         0.022581   
    393. D(H  75,O  36,C  24,C  23)     50.9589         0.022581   
    394. D(H  76,O  37,C  16,H  54)    173.9577         0.021868   
    395. D(H  76,O  37,C  16,H  53)     56.3590         0.021868   
    396. D(H  76,O  37,C  16,C   7)    -65.2142         0.021868   
    397. D(H  77,O  38,C  17,H  56)    176.4794         0.022123   
    398. D(H  77,O  38,C  17,H  55)    -67.6676         0.022123   
    399. D(H  77,O  38,C  17,C   8)     54.2522         0.022123   
    400. D(C  41,O  39,C  29,C  30)    168.5800         0.028133   
    401. D(C  41,O  39,C  29,C  28)    -11.1576         0.028133   
    402. D(H  78,O  40,C  30,C  31)    177.0330         0.029346   
    403. D(H  78,O  40,C  30,C  29)     -1.7683         0.029346   
    404. D(H  81,C  41,O  39,C  29)     64.5720         0.023362   
    405. D(H  80,C  41,O  39,C  29)    -57.7135         0.023362   
    406. D(H  79,C  41,O  39,C  29)   -176.8447         0.023362   
    -----------------------------------------------------------------

Number of atoms                         .... 82
Number of degrees of freedom            .... 406


         *************************************************************
         *                GEOMETRY OPTIMIZATION CYCLE   1            *
         *************************************************************
---------------------------------
CARTESIAN COORDINATES (ANGSTROEM)
---------------------------------
  C     11.842103  -12.156243   -1.930253
  C     12.245492  -13.431665   -1.518880
  C     11.302641  -14.462393   -1.422999
  C      9.969740  -14.201177   -1.711415
  C      9.569079  -12.934186   -2.103661
  C     10.506554  -11.917949   -2.217114
  C      8.123988  -12.635897   -2.380977
  C      7.496278  -11.866669   -1.209694
  C      6.160846  -11.181536   -1.557774
  C      6.389026   -9.856770   -2.303036
  C      7.267465   -8.887232   -1.560627
  C      6.932068   -8.490512   -0.267834
  C      7.709611   -7.573709    0.413018
  C      8.832831   -7.005354   -0.211945
  C      9.175478   -7.412530   -1.487760
  C      8.401337   -8.352314   -2.150048
  C      7.330426  -12.794514    0.004296
  C      5.193476  -12.050158   -2.375259
  O     11.791271  -15.679439   -1.044839
  O     12.834713  -11.222060   -2.016223
  O     13.585835  -13.661696   -1.292259
  O      9.570503   -6.062006    0.435052
  O      7.486296   -7.133619    1.700352
  C     13.959667  -13.995209    0.044740
  C     14.089579  -12.700101    0.880722
  C     12.733527  -12.069686    1.153939
  C     15.300942  -14.724317   -0.078818
  O     15.152574  -15.942844   -0.756293
  C     12.579405  -10.704039    0.941971
  C     11.354680  -10.092916    1.129597
  C     10.256101  -10.858904    1.541943
  C     10.422978  -12.205263    1.807948
  C     11.655978  -12.806803    1.619420
  C     12.500670   -9.952058   -2.520885
  C     10.900925  -16.764392   -0.947424
  C      6.420379   -7.706213    2.419419
  O     14.957535  -11.817023    0.220567
  O      6.846723  -12.115361    1.138098
  O      4.822401  -13.252073   -1.747425
  O     11.094875   -8.754690    0.950552
  O      9.032504  -10.264838    1.701863
  C     12.190604   -7.885128    0.777878
  H      9.231558  -14.983465   -1.642467
  H     10.175801  -10.939127   -2.523950
  H      7.571344  -13.561491   -2.541610
  H      8.055007  -12.026184   -3.283457
  H      8.192539  -11.073042   -0.911613
  H      5.674158  -10.964091   -0.599224
  H      6.827308  -10.063181   -3.281175
  H      5.416616   -9.385448   -2.476015
  H      6.054257   -8.906457    0.198315
  H     10.044846   -6.976736   -1.953682
  H      8.678758   -8.653299   -3.149689
  H      8.298931  -13.265538    0.218370
  H      6.605343  -13.580242   -0.216008
  H      4.295053  -11.451780   -2.597104
  H      5.640980  -12.342907   -3.327019
  H      9.165377   -5.917822    1.301350
  H     13.226325  -14.674604    0.487701
  H     14.570525  -12.947857    1.835648
  H     15.696068  -14.957258    0.911982
  H     16.009164  -14.067744   -0.602688
  H     14.584354  -15.772714   -1.518902
  H     13.440449  -10.135439    0.630935
  H      9.583564  -12.772560    2.177143
  H     11.764423  -13.855573    1.846735
  H     12.122924  -10.017582   -3.546007
  H     11.755556   -9.451547   -1.894496
  H     13.428090   -9.380508   -2.517599
  H     10.427960  -16.982392   -1.909695
  H     11.511983  -17.613064   -0.644146
  H     10.128023  -16.583900   -0.193656
  H      5.456936   -7.472698    1.956545
  H      6.535093   -8.790873    2.504487
  H      6.460924   -7.257684    3.410684
  H     14.632874  -11.755530   -0.693109
  H      7.521911  -11.474561    1.410766
  H      4.471175  -13.041972   -0.874037
  H      9.143570   -9.321545    1.510967
  H     11.759167   -6.887792    0.713461
  H     12.876224   -7.943364    1.628219
  H     12.737369   -8.103412   -0.143128

----------------------------
CARTESIAN COORDINATES (A.U.)
----------------------------
  NO LB      ZA    FRAG     MASS         X           Y           Z
   0 C     6.0000    0    12.011   22.378332  -22.971970   -3.647649
   1 C     6.0000    0    12.011   23.140625  -25.382168   -2.870267
   2 C     6.0000    0    12.011   21.358897  -27.329963   -2.689078
   3 C     6.0000    0    12.011   18.840078  -26.836336   -3.234105
   4 C     6.0000    0    12.011   18.082939  -24.442069   -3.975342
   5 C     6.0000    0    12.011   19.854509  -22.521660   -4.189739
   6 C     6.0000    0    12.011   15.352112  -23.878384   -4.499394
   7 C     6.0000    0    12.011   14.165912  -22.424754   -2.285990
   8 C     6.0000    0    12.011   11.642312  -21.130040   -2.943765
   9 C     6.0000    0    12.011   12.073509  -18.626596   -4.352107
  10 C     6.0000    0    12.011   13.733518  -16.794435   -2.949157
  11 C     6.0000    0    12.011   13.099710  -16.044743   -0.506132
  12 C     6.0000    0    12.011   14.569053  -14.312236    0.780492
  13 C     6.0000    0    12.011   16.691631  -13.238200   -0.400518
  14 C     6.0000    0    12.011   17.339140  -14.007651   -2.811459
  15 C     6.0000    0    12.011   15.876226  -15.783587   -4.063002
  16 C     6.0000    0    12.011   13.852497  -24.178128    0.008119
  17 C     6.0000    0    12.011    9.814247  -22.771499   -4.488589
  18 O     8.0000    0    15.999   22.282273  -29.629845   -1.974460
  19 O     8.0000    0    15.999   24.254093  -21.206621   -3.810110
  20 O     8.0000    0    15.999   25.673507  -25.816864   -2.442015
  21 O     8.0000    0    15.999   18.085630  -11.455531    0.822130
  22 O     8.0000    0    15.999   14.147050  -13.480587    3.213199
  23 C     6.0000    0    12.011   26.379947  -26.447112    0.084546
  24 C     6.0000    0    12.011   26.625445  -23.999713    1.664323
  25 C     6.0000    0    12.011   24.062879  -22.808401    2.180629
  26 C     6.0000    0    12.011   28.914590  -27.824926   -0.148945
  27 O     8.0000    0    15.999   28.634216  -30.127609   -1.429188
  28 C     6.0000    0    12.011   23.771631  -20.227702    1.780068
  29 C     6.0000    0    12.011   21.457236  -19.072848    2.134630
  30 C     6.0000    0    12.011   19.381222  -20.520354    2.913850
  31 C     6.0000    0    12.011   19.696574  -23.064605    3.416526
  32 C     6.0000    0    12.011   22.026606  -24.201350    3.060261
  33 C     6.0000    0    12.011   23.622844  -18.806664   -4.763783
  34 C     6.0000    0    12.011   20.599764  -31.680109   -1.790372
  35 C     6.0000    0    12.011   12.132759  -14.562632    4.572040
  36 O     8.0000    0    15.999   28.265645  -22.330937    0.416810
  37 O     8.0000    0    15.999   12.938431  -22.894715    2.150693
  38 O     8.0000    0    15.999    9.113018  -25.042789   -3.302155
  39 O     8.0000    0    15.999   20.966275  -16.543967    1.796283
  40 O     8.0000    0    15.999   17.068959  -19.397733    3.216055
  41 C     6.0000    0    12.011   23.036903  -14.900732    1.469977
  42 H     1.0000    0     1.008   17.445117  -28.314646   -3.103814
  43 H     1.0000    0     1.008   19.229478  -20.671955   -4.769575
  44 H     1.0000    0     1.008   14.307766  -25.627504   -4.802947
  45 H     1.0000    0     1.008   15.221757  -22.726194   -6.204835
  46 H     1.0000    0     1.008   15.481655  -20.925016   -1.722700
  47 H     1.0000    0     1.008   10.722604  -20.719129   -1.132368
  48 H     1.0000    0     1.008   12.901742  -19.016656   -6.200522
  49 H     1.0000    0     1.008   10.235920  -17.735926   -4.678989
  50 H     1.0000    0     1.008   11.440888  -16.830764    0.374762
  51 H     1.0000    0     1.008   18.982008  -13.184120   -3.691923
  52 H     1.0000    0     1.008   16.400475  -16.352365   -5.952050
  53 H     1.0000    0     1.008   15.682706  -25.068235    0.412660
  54 H     1.0000    0     1.008   12.482288  -25.662938   -0.408195
  55 H     1.0000    0     1.008    8.116473  -21.640728   -4.907815
  56 H     1.0000    0     1.008   10.659908  -23.324714   -6.287155
  57 H     1.0000    0     1.008   17.320053  -11.183063    2.459196
  58 H     1.0000    0     1.008   24.994132  -27.730984    0.921622
  59 H     1.0000    0     1.008   27.534302  -24.467903    3.468871
  60 H     1.0000    0     1.008   29.661269  -28.265121    1.723396
  61 H     1.0000    0     1.008   30.252936  -26.584183   -1.138916
  62 H     1.0000    0     1.008   27.560434  -29.806110   -2.870309
  63 H     1.0000    0     1.008   25.398768  -19.153204    1.192295
  64 H     1.0000    0     1.008   18.110312  -24.136640    4.114204
  65 H     1.0000    0     1.008   22.231537  -26.183239    3.489823
  66 H     1.0000    0     1.008   22.909006  -18.930486   -6.700982
  67 H     1.0000    0     1.008   22.214782  -17.860836   -3.580079
  68 H     1.0000    0     1.008   25.375412  -17.726591   -4.757572
  69 H     1.0000    0     1.008   19.705988  -32.092070   -3.608800
  70 H     1.0000    0     1.008   21.754494  -33.283868   -1.217260
  71 H     1.0000    0     1.008   19.139190  -31.339030   -0.365958
  72 H     1.0000    0     1.008   10.312115  -14.121353    3.697335
  73 H     1.0000    0     1.008   12.349536  -16.612343    4.732795
  74 H     1.0000    0     1.008   12.209376  -13.715036    6.445259
  75 H     1.0000    0     1.008   27.652124  -22.214733   -1.309787
  76 H     1.0000    0     1.008   14.214352  -21.683778    2.665962
  77 H     1.0000    0     1.008    8.449297  -24.645756   -1.651690
  78 H     1.0000    0     1.008   17.278843  -17.615168    2.855314
  79 H     1.0000    0     1.008   22.221604  -13.016041    1.348246
  80 H     1.0000    0     1.008   24.332537  -15.010783    3.076887
  81 H     1.0000    0     1.008   24.070140  -15.313230   -0.270472

--------------------------------
INTERNAL COORDINATES (ANGSTROEM)
--------------------------------
 C      0   0   0     0.000000000000     0.00000000     0.00000000
 C      1   0   0     1.399518096492     0.00000000     0.00000000
 C      2   1   0     1.400200185007   119.79492661     0.00000000
 C      3   2   1     1.388540441005   119.58275769   358.69297823
 C      4   3   2     1.385515657490   120.55893441     0.56704736
 C      1   2   3     1.386638501055   119.67201876     1.12920899
 C      5   4   3     1.501389397301   120.81751559   181.66820373
 C      7   5   4     1.535459182969   110.61663694   102.93956814
 C      8   7   5     1.540761204994   113.87650248   163.77823136
 C      9   8   7     1.537037572612   111.35398294   279.88187652
 C     10   9   8     1.504270722266   113.75985996   304.08796867
 C     11  10   9     1.393266729410   120.05888944   303.91874459
 C     12  11  10     1.381542529565   120.71410272   181.73406137
 C     13  12  11     1.405429038991   119.93473676     1.65358190
 C     14  13  12     1.382354233798   119.30040705   357.50852962
 C     11  10   9     1.385359399019   121.12046793   125.26371757
 C      8   7   5     1.536937165832   110.13371251   288.79841256
 C      9   8   7     1.535771424512   114.50039247    43.88130766
 O      3   2   1     1.364904098500   115.74042714   178.50442772
 O      1   2   3     1.365782696758   115.61765122   181.09865651
 O      2   1   3     1.378692222950   118.72361870   176.21327859
 O     14  13  12     1.361128459443   120.13466325   177.35593533
 O     13  12  11     1.378686339198   125.50924279   181.41025225
 C     21   2   1     1.427776592977   116.57968170   116.38760029
 C     24  21   2     1.546947227328   109.41909057   278.04060630
 C     25  24  21     1.520180044295   111.67854958    71.02668955
 C     24  21   2     1.531628147065   105.36349318   157.89704059
 O     27  24  21     1.402067983337   111.10200023   294.46499289
 C     26  25  24     1.390566962604   118.60295975   227.26306108
 C     29  26  25     1.381530069759   120.79559843   177.65812098
 C     30  29  26     1.401300342600   119.54797909     0.17166338
 C     31  30  29     1.382494110337   119.62530962     2.59840633
 C     32  31  30     1.384803659136   120.28575860   357.52855190
 C     20   1   2     1.406831612323   117.87075726   175.32488096
 C     19   3   2     1.406885615464   118.70240627   180.90842168
 C     23  13  12     1.407515561271   118.02344838     3.41741230
 O     25  24  21     1.403203440708   108.94018041   306.73239643
 O     17   8   7     1.407381798611   112.46364105   175.75663287
 O     18   9   8     1.405870276418   114.33591391    59.30989092
 O     30  29  26     1.374920171467   125.47686340   179.89822537
 O     31  30  29     1.369553843341   119.84622260   181.41043793
 C     40  30  29     1.409460285667   118.00416814   348.84243403
 H      4   3   2     1.077793984899   120.50577865   179.99836523
 H      6   1   2     1.077793252592   120.69960829   179.26922743
 H      7   5   4     1.089928373154   110.27554605   341.90785781
 H      7   5   4     1.091320057695   108.94026881   222.69642279
 H      8   7   5     1.097029814199   108.07314228    45.23564713
 H      9   8   7     1.096798000549   105.98114523   161.97881351
 H     10   9   8     1.091537240783   109.33678888    66.51370117
 H     10   9   8     1.094370809383   108.41696865   183.13730099
 H     12  11  10     1.077430434730   119.18628945     1.62036099
 H     15  14  13     1.078332283561   118.65759797   180.59387960
 H     16  11  10     1.080202081015   119.75859353   358.33178489
 H     17   8   7     1.098041003313   108.52875199    52.96788881
 H     17   8   7     1.091625910791   110.29159736   294.29861350
 H     18   9   8     1.102014378142   108.27445528   182.06778233
 H     18   9   8     1.091699862941   110.94858022   300.07296792
 H     22  14  13     0.967154721428   107.58227006   359.83628766
 H     24  21   2     1.093427450053   110.41954604    40.44035699
 H     25  24  21     1.097531675457   108.54213719   191.40945532
 H     27  24  21     1.091820064875   110.19854549   176.12210821
 H     27  24  21     1.098683717161   108.57126909    56.71057052
 H     28  27  24     0.966121531702   106.89424653    44.21315631
 H     29  26  25     1.077703597183   118.26756820   357.46459018
 H     32  31  30     1.078306984416   118.96408491   176.62728247
 H     33  32  31     1.078587986162   118.89509628   179.17634893
 H     34  20   1     1.094468060363   111.33987933   299.29924048
 H     34  20   1     1.094563483023   111.66294184    61.61535888
 H     34  20   1     1.089397128180   105.68800841   180.90314456
 H     35  19   3     1.094159518182   111.48826009    60.91989258
 H     35  19   3     1.088858672938   105.37891290   179.51424531
 H     35  19   3     1.094587061140   111.55426569   298.19703055
 H     36  23  13     1.094076743326   111.34080775   295.59839908
 H     36  23  13     1.094021654993   111.32438580    58.33227879
 H     36  23  13     1.088773399963   105.62462088   177.09508405
 H     37  25  24     0.971591515070   105.99523312    50.95885470
 H     38  17   8     0.969975592617   107.81982863   294.78578740
 H     39  18   9     0.964525780077   108.31679479    54.25218174
 H     41  31  30     0.968802306578   107.27219680   358.23170814
 H     42  40  30     1.088561397383   105.32996113   183.15532721
 H     42  40  30     1.093867109948   111.05031019   302.28654373
 H     42  40  30     1.093092987861   111.64677577    64.57203711

---------------------------
INTERNAL COORDINATES (A.U.)
---------------------------
 C      0   0   0     0.000000000000     0.00000000     0.00000000
 C      1   0   0     2.644705921836     0.00000000     0.00000000
 C      2   1   0     2.645994882329   119.79492661     0.00000000
 C      3   2   1     2.623961159374   119.58275769   358.69297823
 C      4   3   2     2.618245146916   120.55893441     0.56704736
 C      1   2   3     2.620367013745   119.67201876     1.12920899
 C      5   4   3     2.837214781273   120.81751559   181.66820373
 C      7   5   4     2.901597345625   110.61663694   102.93956814
 C      8   7   5     2.911616715208   113.87650248   163.77823136
 C      9   8   7     2.904580069784   111.35398294   279.88187652
 C     10   9   8     2.842659696359   113.75985996   304.08796867
 C     11  10   9     2.632892550089   120.05888944   303.91874459
 C     12  11  10     2.610737023242   120.71410272   181.73406137
 C     13  12  11     2.655875984353   119.93473676     1.65358190
 C     14  13  12     2.612270921946   119.30040705   357.50852962
 C     11  10   9     2.617949861200   121.12046793   125.26371757
 C      8   7   5     2.904390328467   110.13371251   288.79841256
 C      9   8   7     2.902187396631   114.50039247    43.88130766
 O      3   2   1     2.579294945231   115.74042714   178.50442772
 O      1   2   3     2.580955255322   115.61765122   181.09865651
 O      2   1   3     2.605350724343   118.72361870   176.21327859
 O     14  13  12     2.572160021433   120.13466325   177.35593533
 O     13  12  11     2.605339605663   125.50924279   181.41025225
 C     21   2   1     2.698106741149   116.57968170   116.38760029
 C     24  21   2     2.923306603278   109.41909057   278.04060630
 C     25  24  21     2.872723957969   111.67854958    71.02668955
 C     24  21   2     2.894357736959   105.36349318   157.89704059
 O     27  24  21     2.649524509646   111.10200023   294.46499289
 C     26  25  24     2.627790730201   118.60295975   227.26306108
 C     29  26  25     2.610713477621   120.79559843   177.65812098
 C     30  29  26     2.648073878884   119.54797909     0.17166338
 C     31  30  29     2.612535250296   119.62530962     2.59840633
 C     32  31  30     2.616899665019   120.28575860   357.52855190
 C     20   1   2     2.658526463833   117.87075726   175.32488096
 C     19   3   2     2.658628514980   118.70240627   180.90842168
 C     23  13  12     2.659818940035   118.02344838     3.41741230
 O     25  24  21     2.651670213114   108.94018041   306.73239643
 O     17   8   7     2.659566165240   112.46364105   175.75663287
 O     18   9   8     2.656709802249   114.33591391    59.30989092
 O     30  29  26     2.598222580076   125.47686340   179.89822537
 O     31  30  29     2.588081689574   119.84622260   181.41043793
 C     40  30  29     2.663493936549   118.00416814   348.84243403
 H      4   3   2     2.036735460246   120.50577865   179.99836523
 H      6   1   2     2.036734076387   120.69960829   179.26922743
 H      7   5   4     2.059666130851   110.27554605   341.90785781
 H      7   5   4     2.062296033499   108.94026881   222.69642279
 H      8   7   5     2.073085909582   108.07314228    45.23564713
 H      9   8   7     2.072647845270   105.98114523   161.97881351
 H     10   9   8     2.062706450056   109.33678888    66.51370117
 H     10   9   8     2.068061118692   108.41696865   183.13730099
 H     12  11  10     2.036048449992   119.18628945     1.62036099
 H     15  14  13     2.037752697296   118.65759797   180.59387960
 H     16  11  10     2.041286102411   119.75859353   358.33178489
 H     17   8   7     2.074996780077   108.52875199    52.96788881
 H     17   8   7     2.062874012088   110.29159736   294.29861350
 H     18   9   8     2.082505370331   108.27445528   182.06778233
 H     18   9   8     2.063013761397   110.94858022   300.07296792
 H     22  14  13     1.827657552627   107.58227006   359.83628766
 H     24  21   2     2.066278427912   110.41954604    40.44035699
 H     25  24  21     2.074034289918   108.54213719   191.40945532
 H     27  24  21     2.063240910133   110.19854549   176.12210821
 H     27  24  21     2.076211333233   108.57126909    56.71057052
 H     28  27  24     1.825705107002   106.89424653    44.21315631
 H     29  26  25     2.036564652217   118.26756820   357.46459018
 H     32  31  30     2.037704888841   118.96408491   176.62728247
 H     33  32  31     2.038235905183   118.89509628   179.17634893
 H     34  20   1     2.068244896409   111.33987933   299.29924048
 H     34  20   1     2.068425219104   111.66294184    61.61535888
 H     34  20   1     2.058662223341   105.68800841   180.90314456
 H     35  19   3     2.067661836188   111.48826009    60.91989258
 H     35  19   3     2.057644690397   105.37891290   179.51424531
 H     35  19   3     2.068469775289   111.55426569   298.19703055
 H     36  23  13     2.067505414379   111.34080775   295.59839908
 H     36  23  13     2.067401312516   111.32438580    58.33227879
 H     36  23  13     2.057483547829   105.62462088   177.09508405
 H     37  25  24     1.836041877525   105.99523312    50.95885470
 H     38  17   8     1.832988226633   107.81982863   294.78578740
 H     39  18   9     1.822689573452   108.31679479    54.25218174
 H     41  31  30     1.830771037344   107.27219680   358.23170814
 H     42  40  30     2.057082921013   105.32996113   183.15532721
 H     42  40  30     2.067109264706   111.05031019   302.28654373
 H     42  40  30     2.065646385967   111.64677577    64.57203711

---------------------
BASIS SET INFORMATION
---------------------
There are 3 groups of distinct atoms

 Group   1 Type C   : 11s6p2d1f contracted to 5s3p2d1f pattern {62111/411/11/1}
 Group   2 Type O   : 11s6p2d1f contracted to 5s3p2d1f pattern {62111/411/11/1}
 Group   3 Type H   : 5s1p contracted to 3s1p pattern {311/1}

Atom   0C    basis set group =>   1
Atom   1C    basis set group =>   1
Atom   2C    basis set group =>   1
Atom   3C    basis set group =>   1
Atom   4C    basis set group =>   1
Atom   5C    basis set group =>   1
Atom   6C    basis set group =>   1
Atom   7C    basis set group =>   1
Atom   8C    basis set group =>   1
Atom   9C    basis set group =>   1
Atom  10C    basis set group =>   1
Atom  11C    basis set group =>   1
Atom  12C    basis set group =>   1
Atom  13C    basis set group =>   1
Atom  14C    basis set group =>   1
Atom  15C    basis set group =>   1
Atom  16C    basis set group =>   1
Atom  17C    basis set group =>   1
Atom  18O    basis set group =>   2
Atom  19O    basis set group =>   2
Atom  20O    basis set group =>   2
Atom  21O    basis set group =>   2
Atom  22O    basis set group =>   2
Atom  23C    basis set group =>   1
Atom  24C    basis set group =>   1
Atom  25C    basis set group =>   1
Atom  26C    basis set group =>   1
Atom  27O    basis set group =>   2
Atom  28C    basis set group =>   1
Atom  29C    basis set group =>   1
Atom  30C    basis set group =>   1
Atom  31C    basis set group =>   1
Atom  32C    basis set group =>   1
Atom  33C    basis set group =>   1
Atom  34C    basis set group =>   1
Atom  35C    basis set group =>   1
Atom  36O    basis set group =>   2
Atom  37O    basis set group =>   2
Atom  38O    basis set group =>   2
Atom  39O    basis set group =>   2
Atom  40O    basis set group =>   2
Atom  41C    basis set group =>   1
Atom  42H    basis set group =>   3
Atom  43H    basis set group =>   3
Atom  44H    basis set group =>   3
Atom  45H    basis set group =>   3
Atom  46H    basis set group =>   3
Atom  47H    basis set group =>   3
Atom  48H    basis set group =>   3
Atom  49H    basis set group =>   3
Atom  50H    basis set group =>   3
Atom  51H    basis set group =>   3
Atom  52H    basis set group =>   3
Atom  53H    basis set group =>   3
Atom  54H    basis set group =>   3
Atom  55H    basis set group =>   3
Atom  56H    basis set group =>   3
Atom  57H    basis set group =>   3
Atom  58H    basis set group =>   3
Atom  59H    basis set group =>   3
Atom  60H    basis set group =>   3
Atom  61H    basis set group =>   3
Atom  62H    basis set group =>   3
Atom  63H    basis set group =>   3
Atom  64H    basis set group =>   3
Atom  65H    basis set group =>   3
Atom  66H    basis set group =>   3
Atom  67H    basis set group =>   3
Atom  68H    basis set group =>   3
Atom  69H    basis set group =>   3
Atom  70H    basis set group =>   3
Atom  71H    basis set group =>   3
Atom  72H    basis set group =>   3
Atom  73H    basis set group =>   3
Atom  74H    basis set group =>   3
Atom  75H    basis set group =>   3
Atom  76H    basis set group =>   3
Atom  77H    basis set group =>   3
Atom  78H    basis set group =>   3
Atom  79H    basis set group =>   3
Atom  80H    basis set group =>   3
Atom  81H    basis set group =>   3
---------------------------------
AUXILIARY/J BASIS SET INFORMATION
---------------------------------
There are 3 groups of distinct atoms

 Group   1 Type C   : 12s5p4d2f1g contracted to 6s4p3d1f1g pattern {711111/2111/211/2/1}
 Group   2 Type O   : 12s5p4d2f1g contracted to 6s4p3d1f1g pattern {711111/2111/211/2/1}
 Group   3 Type H   : 5s2p1d contracted to 3s1p1d pattern {311/2/1}

Atom   0C    basis set group =>   1
Atom   1C    basis set group =>   1
Atom   2C    basis set group =>   1
Atom   3C    basis set group =>   1
Atom   4C    basis set group =>   1
Atom   5C    basis set group =>   1
Atom   6C    basis set group =>   1
Atom   7C    basis set group =>   1
Atom   8C    basis set group =>   1
Atom   9C    basis set group =>   1
Atom  10C    basis set group =>   1
Atom  11C    basis set group =>   1
Atom  12C    basis set group =>   1
Atom  13C    basis set group =>   1
Atom  14C    basis set group =>   1
Atom  15C    basis set group =>   1
Atom  16C    basis set group =>   1
Atom  17C    basis set group =>   1
Atom  18O    basis set group =>   2
Atom  19O    basis set group =>   2
Atom  20O    basis set group =>   2
Atom  21O    basis set group =>   2
Atom  22O    basis set group =>   2
Atom  23C    basis set group =>   1
Atom  24C    basis set group =>   1
Atom  25C    basis set group =>   1
Atom  26C    basis set group =>   1
Atom  27O    basis set group =>   2
Atom  28C    basis set group =>   1
Atom  29C    basis set group =>   1
Atom  30C    basis set group =>   1
Atom  31C    basis set group =>   1
Atom  32C    basis set group =>   1
Atom  33C    basis set group =>   1
Atom  34C    basis set group =>   1
Atom  35C    basis set group =>   1
Atom  36O    basis set group =>   2
Atom  37O    basis set group =>   2
Atom  38O    basis set group =>   2
Atom  39O    basis set group =>   2
Atom  40O    basis set group =>   2
Atom  41C    basis set group =>   1
Atom  42H    basis set group =>   3
Atom  43H    basis set group =>   3
Atom  44H    basis set group =>   3
Atom  45H    basis set group =>   3
Atom  46H    basis set group =>   3
Atom  47H    basis set group =>   3
Atom  48H    basis set group =>   3
Atom  49H    basis set group =>   3
Atom  50H    basis set group =>   3
Atom  51H    basis set group =>   3
Atom  52H    basis set group =>   3
Atom  53H    basis set group =>   3
Atom  54H    basis set group =>   3
Atom  55H    basis set group =>   3
Atom  56H    basis set group =>   3
Atom  57H    basis set group =>   3
Atom  58H    basis set group =>   3
Atom  59H    basis set group =>   3
Atom  60H    basis set group =>   3
Atom  61H    basis set group =>   3
Atom  62H    basis set group =>   3
Atom  63H    basis set group =>   3
Atom  64H    basis set group =>   3
Atom  65H    basis set group =>   3
Atom  66H    basis set group =>   3
Atom  67H    basis set group =>   3
Atom  68H    basis set group =>   3
Atom  69H    basis set group =>   3
Atom  70H    basis set group =>   3
Atom  71H    basis set group =>   3
Atom  72H    basis set group =>   3
Atom  73H    basis set group =>   3
Atom  74H    basis set group =>   3
Atom  75H    basis set group =>   3
Atom  76H    basis set group =>   3
Atom  77H    basis set group =>   3
Atom  78H    basis set group =>   3
Atom  79H    basis set group =>   3
Atom  80H    basis set group =>   3
Atom  81H    basis set group =>   3
--------------------------------------------------------------------------
WARNING: There is at least one non-excluded one OpenFabrics device found,
but there are no active ports detected (or Open MPI was unable to use
them).  This is most certainly not what you wanted.  Check your
cables, subnet manager configuration, etc.  The openib BTL will be
ignored for this job.

  Local host: c08b01n08
--------------------------------------------------------------------------
--------------------------------------------------------------------------
WARNING: There was an error initializing an OpenFabrics device.

  Local host:   c08b01n08
  Local device: mlx5_0
--------------------------------------------------------------------------
[c08b01n08:810493] 7 more processes have sent help message help-mpi-btl-openib.txt / no active ports found
[c08b01n08:810493] Set MCA parameter "orte_base_help_aggregate" to 0 to see all help / error messages
[c08b01n08:810493] 55 more processes have sent help message help-mpi-btl-openib.txt / error in device init


           ************************************************************
           *        Program running with 64 parallel MPI-processes    *
           *              working on a common directory               *
           ************************************************************
------------------------------------------------------------------------------
                             ORCA STARTUP CALCULATIONS
                           -- RI-GTO INTEGRALS CHOSEN --
------------------------------------------------------------------------------
------------------------------------------------------------------------------
                   ___                                                        
                  /   \      - P O W E R E D   B Y -                         
                 /     \                                                     
                 |  |  |   _    _      __       _____    __    __             
                 |  |  |  | |  | |    /  \     |  _  \  |  |  /  |          
                  \  \/   | |  | |   /    \    | | | |  |  | /  /          
                 / \  \   | |__| |  /  /\  \   | |_| |  |  |/  /          
                |  |  |   |  __  | /  /__\  \  |    /   |      \           
                |  |  |   | |  | | |   __   |  |    \   |  |\   \          
                \     /   | |  | | |  |  |  |  | |\  \  |  | \   \       
                 \___/    |_|  |_| |__|  |__|  |_| \__\ |__|  \__/        
                                                                              
                      - O R C A' S   B I G   F R I E N D -                    
                                      &                                       
                       - I N T E G R A L  F E E D E R -                       
                                                                              
 v1 FN, 2020, v2 2021, v3 2022-2024                                           
------------------------------------------------------------------------------


----------------------
SHARK INTEGRAL PACKAGE
----------------------

Number of atoms                             ...     82
Number of basis functions                   ...   1542
Number of shells                            ...    622
Maximum angular momentum                    ...      3
Integral batch strategy                     ... SHARK/LIBINT Hybrid
RI-J (if used) integral strategy            ... SPLIT-RIJ (Revised 2003 algorithm where possible)
Printlevel                                  ...      1
Contraction scheme used                     ... SEGMENTED contraction
Prescreening option                         ... SCHWARTZ
   Thresh                                   ... 2.500e-11
   Tcut                                     ... 2.500e-12
   Tpresel                                  ... 2.500e-12 
Coulomb Range Separation                    ... NOT USED
Exchange Range Separation                   ... NOT USED
Multipole approximations                    ... NOT USED
Finite Nucleus Model                        ... NOT USED
CABS basis                                  ... NOT available
Auxiliary Coulomb fitting basis             ... AVAILABLE
   # of basis functions in Aux-J            ...   2498
   # of shells in Aux-J                     ...    830
   Maximum angular momentum in Aux-J        ...      4
Auxiliary J/K fitting basis                 ... NOT available
Auxiliary Correlation fitting basis         ... NOT available
Auxiliary 'external' fitting basis          ... NOT available

Checking pre-screening integrals            ... done (  0.3 sec) Dimension = 622
   => SHARK Basis and OBASIS are compatible. Storing Pre-screening
Shell pair information
Shell pair cut-off parameter TPreSel        ...   2.5e-12
Total number of shell pairs                 ...    193753
Shell pairs after pre-screening             ...    116073
Total number of primitive shell pairs       ...    584784
Primitive shell pairs kept                  ...    218967
          la=0 lb=0:  32293 shell pairs
          la=1 lb=0:  34633 shell pairs
          la=1 lb=1:   9382 shell pairs
          la=2 lb=0:  15734 shell pairs
          la=2 lb=1:   8655 shell pairs
          la=2 lb=2:   1983 shell pairs
          la=3 lb=0:   7182 shell pairs
          la=3 lb=1:   4032 shell pairs
          la=3 lb=2:   1757 shell pairs
          la=3 lb=3:    422 shell pairs

Checking whether 4 symmetric matrices of dimension 1542 fit in memory
:Max Core in MB      =   6000.00
 MB in use           =    139.09
 MB left             =   5860.91
 MB needed           =     36.31
 Data fit in memory  = YES
Calculating RI/J V-Matrix + Cholesky decomp.... done (  4.3 sec)
Calculating Nuclear repulsion               ... done (  0.1 sec) ENN=   5759.628749656997 Eh

Diagonalization of the overlap matrix:
Smallest eigenvalue                        ... 3.377e-06
Time for diagonalization                   ...   28.931 sec
Threshold for overlap eigenvalues          ... 1.000e-07
Number of eigenvalues below threshold      ... 0
Time for construction of square roots      ...    2.017 sec
Total time needed                          ...   31.280 sec

-------------------
DFT GRID GENERATION
-------------------

General Integration Accuracy     IntAcc      ... 4.388
Radial Grid Type                 RadialGrid  ... OptM3 with GC (2021)
Angular Grid (max. ang.)         AngularGrid ... 4 (Lebedev-302)
Angular grid pruning method      GridPruning ... 4 (adaptive)
Weight generation scheme         WeightScheme... mBecke (2022)
Basis function cutoff            BFCut       ... 1.0000e-11
Integration weight cutoff        WCut        ... 1.0000e-14
Partially contracted basis set               ... off
Rotationally invariant grid construction     ... off
Angular grids for H and He will be reduced by one unit

Total number of grid points                  ...   373590
Total number of batches                      ...     5880
Average number of points per batch           ...       63
Average number of grid points per atom       ...     4556

--------------------
COSX GRID GENERATION
--------------------

GRIDX 1
-------
General Integration Accuracy     IntAcc      ... 3.816
Radial Grid Type                 RadialGrid  ... OptM3 with GC (2021)
Angular Grid (max. ang.)         AngularGrid ... 1 (Lebedev-50)
Angular grid pruning method      GridPruning ... 4 (adaptive)
Weight generation scheme         WeightScheme... mBecke (2022)
Basis function cutoff            BFCut       ... 1.0000e-11
Integration weight cutoff        WCut        ... 1.0000e-14
Partially contracted basis set               ... on
Rotationally invariant grid construction     ... off
Angular grids for H and He will be reduced by one unit

Total number of grid points                  ...    47252
Total number of batches                      ...      418
Average number of points per batch           ...      113
Average number of grid points per atom       ...      576
UseSFitting                                  ... on

GRIDX 2
-------
General Integration Accuracy     IntAcc      ... 4.020
Radial Grid Type                 RadialGrid  ... OptM3 with GC (2021)
Angular Grid (max. ang.)         AngularGrid ... 2 (Lebedev-110)
Angular grid pruning method      GridPruning ... 4 (adaptive)
Weight generation scheme         WeightScheme... mBecke (2022)
Basis function cutoff            BFCut       ... 1.0000e-11
Integration weight cutoff        WCut        ... 1.0000e-14
[...]
freq.     629.00  E(vib)   ...       0.09 
freq.     645.65  E(vib)   ...       0.09 
freq.     660.60  E(vib)   ...       0.08 
freq.     688.49  E(vib)   ...       0.07 
freq.     726.11  E(vib)   ...       0.06 
freq.     732.24  E(vib)   ...       0.06 
freq.     742.87  E(vib)   ...       0.06 
freq.     745.97  E(vib)   ...       0.06 
freq.     757.14  E(vib)   ...       0.06 
freq.     771.34  E(vib)   ...       0.05 
freq.     782.72  E(vib)   ...       0.05 
freq.     803.89  E(vib)   ...       0.05 
freq.     811.96  E(vib)   ...       0.05 
freq.     816.32  E(vib)   ...       0.05 
freq.     830.58  E(vib)   ...       0.04 
freq.     838.33  E(vib)   ...       0.04 
freq.     852.65  E(vib)   ...       0.04 
freq.     854.09  E(vib)   ...       0.04 
freq.     874.83  E(vib)   ...       0.04 
freq.     876.09  E(vib)   ...       0.04 
freq.     886.49  E(vib)   ...       0.04 
freq.     904.37  E(vib)   ...       0.03 
freq.     912.92  E(vib)   ...       0.03 
freq.     918.38  E(vib)   ...       0.03 
freq.     928.99  E(vib)   ...       0.03 
freq.     943.50  E(vib)   ...       0.03 
freq.     948.15  E(vib)   ...       0.03 
freq.     958.10  E(vib)   ...       0.03 
freq.     970.15  E(vib)   ...       0.03 
freq.     972.98  E(vib)   ...       0.03 
freq.     982.81  E(vib)   ...       0.02 
freq.    1001.86  E(vib)   ...       0.02 
freq.    1024.57  E(vib)   ...       0.02 
freq.    1028.23  E(vib)   ...       0.02 
freq.    1035.14  E(vib)   ...       0.02 
freq.    1046.79  E(vib)   ...       0.02 
freq.    1048.11  E(vib)   ...       0.02 
freq.    1056.28  E(vib)   ...       0.02 
freq.    1058.44  E(vib)   ...       0.02 
freq.    1060.83  E(vib)   ...       0.02 
freq.    1087.93  E(vib)   ...       0.02 
freq.    1092.12  E(vib)   ...       0.02 
freq.    1093.56  E(vib)   ...       0.02 
freq.    1117.46  E(vib)   ...       0.01 
freq.    1134.56  E(vib)   ...       0.01 
freq.    1141.05  E(vib)   ...       0.01 
freq.    1146.76  E(vib)   ...       0.01 
freq.    1149.88  E(vib)   ...       0.01 
freq.    1165.51  E(vib)   ...       0.01 
freq.    1170.23  E(vib)   ...       0.01 
freq.    1170.60  E(vib)   ...       0.01 
freq.    1171.01  E(vib)   ...       0.01 
freq.    1171.92  E(vib)   ...       0.01 
freq.    1173.83  E(vib)   ...       0.01 
freq.    1178.36  E(vib)   ...       0.01 
freq.    1179.99  E(vib)   ...       0.01 
freq.    1195.31  E(vib)   ...       0.01 
freq.    1199.15  E(vib)   ...       0.01 
freq.    1201.30  E(vib)   ...       0.01 
freq.    1207.98  E(vib)   ...       0.01 
freq.    1214.54  E(vib)   ...       0.01 
freq.    1219.83  E(vib)   ...       0.01 
freq.    1223.50  E(vib)   ...       0.01 
freq.    1228.39  E(vib)   ...       0.01 
freq.    1230.98  E(vib)   ...       0.01 
freq.    1244.16  E(vib)   ...       0.01 
freq.    1246.54  E(vib)   ...       0.01 
freq.    1251.18  E(vib)   ...       0.01 
freq.    1260.24  E(vib)   ...       0.01 
freq.    1264.30  E(vib)   ...       0.01 
freq.    1275.66  E(vib)   ...       0.01 
freq.    1288.28  E(vib)   ...       0.01 
freq.    1290.15  E(vib)   ...       0.01 
freq.    1296.62  E(vib)   ...       0.01 
freq.    1309.56  E(vib)   ...       0.01 
freq.    1312.56  E(vib)   ...       0.01 
freq.    1321.09  E(vib)   ...       0.01 
freq.    1321.31  E(vib)   ...       0.01 
freq.    1339.95  E(vib)   ...       0.01 
freq.    1342.79  E(vib)   ...       0.01 
freq.    1347.40  E(vib)   ...       0.01 
freq.    1357.09  E(vib)   ...       0.01 
freq.    1362.00  E(vib)   ...       0.01 
freq.    1367.42  E(vib)   ...       0.01 
freq.    1377.65  E(vib)   ...       0.01 
freq.    1384.59  E(vib)   ...       0.00 
freq.    1393.04  E(vib)   ...       0.00 
freq.    1395.73  E(vib)   ...       0.00 
freq.    1396.37  E(vib)   ...       0.00 
freq.    1401.48  E(vib)   ...       0.00 
freq.    1408.02  E(vib)   ...       0.00 
freq.    1421.87  E(vib)   ...       0.00 
freq.    1426.43  E(vib)   ...       0.00 
freq.    1427.73  E(vib)   ...       0.00 
freq.    1435.93  E(vib)   ...       0.00 
freq.    1452.64  E(vib)   ...       0.00 
freq.    1454.71  E(vib)   ...       0.00 
freq.    1459.61  E(vib)   ...       0.00 
freq.    1478.73  E(vib)   ...       0.00 
freq.    1478.95  E(vib)   ...       0.00 
freq.    1479.02  E(vib)   ...       0.00 
freq.    1480.05  E(vib)   ...       0.00 
freq.    1480.51  E(vib)   ...       0.00 
freq.    1481.39  E(vib)   ...       0.00 
freq.    1483.17  E(vib)   ...       0.00 
freq.    1484.79  E(vib)   ...       0.00 
freq.    1486.95  E(vib)   ...       0.00 
freq.    1490.53  E(vib)   ...       0.00 
freq.    1491.60  E(vib)   ...       0.00 
freq.    1491.95  E(vib)   ...       0.00 
freq.    1492.61  E(vib)   ...       0.00 
freq.    1494.69  E(vib)   ...       0.00 
freq.    1500.63  E(vib)   ...       0.00 
freq.    1503.15  E(vib)   ...       0.00 
freq.    1506.49  E(vib)   ...       0.00 
freq.    1536.70  E(vib)   ...       0.00 
freq.    1542.11  E(vib)   ...       0.00 
freq.    1544.07  E(vib)   ...       0.00 
freq.    1628.23  E(vib)   ...       0.00 
freq.    1636.51  E(vib)   ...       0.00 
freq.    1643.01  E(vib)   ...       0.00 
freq.    1644.45  E(vib)   ...       0.00 
freq.    1648.71  E(vib)   ...       0.00 
freq.    1649.97  E(vib)   ...       0.00 
freq.    2994.94  E(vib)   ...       0.00 
freq.    3012.35  E(vib)   ...       0.00 
freq.    3016.82  E(vib)   ...       0.00 
freq.    3020.48  E(vib)   ...       0.00 
freq.    3020.92  E(vib)   ...       0.00 
freq.    3021.61  E(vib)   ...       0.00 
freq.    3024.35  E(vib)   ...       0.00 
freq.    3025.28  E(vib)   ...       0.00 
freq.    3026.31  E(vib)   ...       0.00 
freq.    3027.62  E(vib)   ...       0.00 
freq.    3031.14  E(vib)   ...       0.00 
freq.    3036.66  E(vib)   ...       0.00 
freq.    3055.72  E(vib)   ...       0.00 
freq.    3074.38  E(vib)   ...       0.00 
freq.    3077.56  E(vib)   ...       0.00 
freq.    3082.66  E(vib)   ...       0.00 
freq.    3084.20  E(vib)   ...       0.00 
freq.    3088.08  E(vib)   ...       0.00 
freq.    3091.33  E(vib)   ...       0.00 
freq.    3097.81  E(vib)   ...       0.00 
freq.    3100.22  E(vib)   ...       0.00 
freq.    3100.61  E(vib)   ...       0.00 
freq.    3138.64  E(vib)   ...       0.00 
freq.    3142.48  E(vib)   ...       0.00 
freq.    3143.83  E(vib)   ...       0.00 
freq.    3164.00  E(vib)   ...       0.00 
freq.    3169.48  E(vib)   ...       0.00 
freq.    3185.48  E(vib)   ...       0.00 
freq.    3187.46  E(vib)   ...       0.00 
freq.    3199.77  E(vib)   ...       0.00 
freq.    3202.61  E(vib)   ...       0.00 
freq.    3210.54  E(vib)   ...       0.00 
freq.    3211.63  E(vib)   ...       0.00 
freq.    3232.89  E(vib)   ...       0.00 
freq.    3636.75  E(vib)   ...       0.00 
freq.    3643.12  E(vib)   ...       0.00 
freq.    3713.66  E(vib)   ...       0.00 
freq.    3722.04  E(vib)   ...       0.00 
freq.    3750.36  E(vib)   ...       0.00 
freq.    3773.12  E(vib)   ...       0.00 

------------
INNER ENERGY
------------

The inner energy is: U= E(el) + E(ZPE) + E(vib) + E(rot) + E(trans)
    E(el)   - is the total energy from the electronic structure calculation
              = E(kin-el) + E(nuc-el) + E(el-el) + E(nuc-nuc)
    E(ZPE)  - the the zero temperature vibrational energy from the frequency calculation
    E(vib)  - the the finite temperature correction to E(ZPE) due to population
              of excited vibrational states
    E(rot)  - is the rotational thermal energy
    E(trans)- is the translational thermal energy

Summary of contributions to the inner energy U:
Electronic energy                ...  -2032.63840001 Eh
Zero point energy                ...      0.67930111 Eh     426.27 kcal/mol
Thermal vibrational correction   ...      0.03928417 Eh      24.65 kcal/mol
Thermal rotational correction    ...      0.00141627 Eh       0.89 kcal/mol
Thermal translational correction ...      0.00141627 Eh       0.89 kcal/mol
-----------------------------------------------------------------------
Total thermal energy                  -2031.91698218 Eh


Summary of corrections to the electronic energy:
(perhaps to be used in another calculation)
Total thermal correction                  0.04211671 Eh      26.43 kcal/mol
Non-thermal (ZPE) correction              0.67930111 Eh     426.27 kcal/mol
-----------------------------------------------------------------------
Total correction                          0.72141782 Eh     452.70 kcal/mol


--------
ENTHALPY
--------

The enthalpy is H = U + kB*T
                kB is Boltzmann's constant
Total thermal energy              ...  -2031.91698218 Eh 
Thermal Enthalpy correction       ...      0.00094421 Eh       0.59 kcal/mol
-----------------------------------------------------------------------
Total Enthalpy                    ...  -2031.91603797 Eh


Note: Only C1 symmetry has been detected, increase convergence thresholds 
      if your molecule has a higher symmetry. Symmetry factor of 1.0 is   
      used for the rotational entropy correction. 
 

Note: Rotational entropy computed according to Herzberg 
Infrared and Raman Spectra, Chapter V,1, Van Nostrand Reinhold, 1945 
Point Group:  C1, Symmetry Number:   1  
Rotational constants in cm-1:     0.004108     0.002179     0.001739 

Vibrational entropy computed according to the QRRHO of S. Grimme
Chem.Eur.J. 2012 18 9955 using a reference frequency of 100.0 cm-1


-------
ENTROPY
-------

The entropy contributions are T*S = T*(S(el)+S(vib)+S(rot)+S(trans))
     S(el)   - electronic entropy
     S(vib)  - vibrational entropy
     S(rot)  - rotational entropy
     S(trans)- translational entropy
The entropies will be listed as multiplied by the temperature to get
units of energy

Electronic entropy                ...      0.00000000 Eh      0.00 kcal/mol
Vibrational entropy               ...      0.06988374 Eh     43.85 kcal/mol
Rotational entropy                ...      0.01799810 Eh     11.29 kcal/mol
Translational entropy             ...      0.02138181 Eh     13.42 kcal/mol
-----------------------------------------------------------------------
Final entropy term                ...      0.10926365 Eh     68.56 kcal/mol

In case the symmetry of your molecule has not been determined correctly
or in case you have a reason to use a different symmetry number we print 
out the resulting rotational entropy values for sn=1,12:

 non-linear molecules -----------------------------------
|  sn= 1 | S(rot)=       0.01799810 Eh     11.29 kcal/mol|
|  sn= 2 | S(rot)=       0.01734364 Eh     10.88 kcal/mol|
|  sn= 3 | S(rot)=       0.01696081 Eh     10.64 kcal/mol|
|  sn= 4 | S(rot)=       0.01668918 Eh     10.47 kcal/mol|
|  sn= 5 | S(rot)=       0.01647850 Eh     10.34 kcal/mol|
|  sn= 6 | S(rot)=       0.01630635 Eh     10.23 kcal/mol|
|  sn= 7 | S(rot)=       0.01616081 Eh     10.14 kcal/mol|
|  sn= 8 | S(rot)=       0.01603473 Eh     10.06 kcal/mol|
|  sn= 9 | S(rot)=       0.01592352 Eh      9.99 kcal/mol|
|  sn=10 | S(rot)=       0.01582404 Eh      9.93 kcal/mol|
|  sn=11 | S(rot)=       0.01573405 Eh      9.87 kcal/mol|
|  sn=12 | S(rot)=       0.01565190 Eh      9.82 kcal/mol|
 linear molecules ---------------------------------------
|  Dinfh | S(rot)=       0.01132571 Eh      7.11 kcal/mol|
|  Cinfv | S(rot)=       0.01198016 Eh      7.52 kcal/mol|
 --------------------------------------------------------


-------------------
GIBBS FREE ENERGY
-------------------

The Gibbs free energy is G = H - T*S

Total enthalpy                    ...  -2031.91603797 Eh 
Total entropy correction          ...     -0.10926365 Eh    -68.56 kcal/mol
-----------------------------------------------------------------------
Final Gibbs free energy         ...  -2032.02530162 Eh

For completeness - the Gibbs free energy minus the electronic energy
G-E(el)                           ...      0.61309839 Eh    384.72 kcal/mol


Maximum memory used throughout the entire PROP-calculation: 1818.8 MB
--------------------------------------------------------------------------
WARNING: There was an error initializing an OpenFabrics device.

  Local host:   c08b01n08
  Local device: mlx5_0
--------------------------------------------------------------------------
--------------------------------------------------------------------------
WARNING: There is at least one non-excluded one OpenFabrics device found,
but there are no active ports detected (or Open MPI was unable to use
them).  This is most certainly not what you wanted.  Check your
cables, subnet manager configuration, etc.  The openib BTL will be
ignored for this job.

  Local host: c08b01n08
--------------------------------------------------------------------------
[c08b01n08:898488] 58 more processes have sent help message help-mpi-btl-openib.txt / error in device init
[c08b01n08:898488] Set MCA parameter "orte_base_help_aggregate" to 0 to see all help / error messages
[c08b01n08:898488] 4 more processes have sent help message help-mpi-btl-openib.txt / no active ports found

--------------------------------
SUGGESTED CITATIONS FOR THIS RUN
--------------------------------

Below you find a list of papers that are relevant to this ORCA run
We neither can nor want to force you to cite these papers, but we appreciate if you do
You receive ORCA, which is the product of decades of hard work by many enthusiastic individuals, for free
The only thing we kindly ask in return is that you cite our papers,
We deeply appreciate it, if you show your appreciation for ORCA by not just citing the generic ORCA reference.

Please note that relegating all ORCA citations to the supporting information does *not* help us.
SI sections are not indexed - citations you put there will not count into any citation statistics
But we need these citations in order to attract the funding resources that allow us to do what we are doing

Therefore, if you are a happy ORCA user, please consider citing a few of the papers listed below in the main body of your paper

In addition to the list printed below, the program has created the file opt-conf-0.bibtex that contains the list in bibtex format
You can import this file easily into all common literature databanks and citation aid programs


List of essential papers. We consider these as the minimum necessary citations

  1. Neese, F.
     Software update: the ORCA program system, version 6.0
     WIRES Comput. Molec. Sci. 2025 15(1), e70019
     doi.org/10.1002/wcms.7019

List of papers to cite with high priority. The work reported in these papers was absolutely
necessary for this run to complete.
Our perspective: the developers of density functionals and basis sets usually get cited in chemistry papers
Good! But without the algorithms to do something with them, the functionals or basis sets would not do anything.
Hence, in our opinion, the algorithm design and method developments papers are equally worthy of getting cited

  1. Neese, F.
     An improvement of the resolution of the identity approximation for the formation of the Coulomb matrix
     J. Comp. Chem. 2003 24(14), 1740-1747
     doi.org/10.1002/jcc.10318
  2. Neese, F.; Wennmohs, F.; Hansen, A.; Becker, U.
     Efficient, approximate and parallel Hartree-Fock and hybrid DFT calculations. A 'chain-of-spheres' algorithm for the Hartree-Fock exchange
     Chem. Phys. 2009 356(1-3), 98-109
     doi.org/10.1016/j.chemphys.2008.10.036
  3. Bykov, D.; Petrenko, T.; Izsak, R.; Kossmann, S.; Becker, U.; Valeev, E.; Neese, F.
     Efficient implementation of the analytic second derivatives of Hartree-Fock and hybrid DFT energies: a detailed analysis of different approximations
     Molec. Phys. 2015 113 , 1961-1977
     doi.org/10.1080/00268976.2015.1025114
  4. Caldeweyher, E.; Bannwarth, C.; Grimme, S.
     Extension of the D3 dispersion coefficient model
     J. Chem. Phys. 2017 147 , 034112
     doi.org/10.1063/1.4993215
  5. Caldeweyher, E.; Ehlert, S.; Hansen, A.; Neugebauer, H.; Spicher, S.; Bannwarth, C.; Grimme, S.
     A generally applicable atomic-charge dependent London dispersion correction
     J. Chem. Phys. 2019 150 , 154122
     doi.org/10.1063/1.5090222
  6. Garcia-Rates, M.; Neese, F.
     Efficient implementation of the analytical second derivatives of hartree-fock and hybrid DFT energies within the framework of the conductor-like polarizable continuum model
     J. Comput. Chem. 2019 40 , 1816-1828
     doi.org/10.1002/jcc.25833
  7. Caldeweyher, E.; Mewes, J.; Ehlert, S.; Grimme, S.
     Extension and evaluation of the D4 London-dispersion model for periodic systems
     Phys. Chem. Chem. Phys. 2020 22(16), 8499-8512
     doi.org/10.1039/D0CP00502A
  8. Garcia-Rates, M.; Neese, F.
     Effect of the Solute Cavity on the Solvation Energy and its Derivatives within the Framework of the Gaussian Charge Scheme
     J. Comput. Chem. 2020 41 , 922-939
     doi.org/10.1002/jcc.26139
  9. Helmich-Paris, B.; de Souza, B.; Neese, F.; Izsák, R.
     An improved chain of spheres for exchange algorithm
     J. Chem. Phys. 2021 155(10), 104109
     doi.org/10.1063/5.0058766
 10. Neese, F.
     The SHARK Integral Generation and Digestion System
     J. Comp. Chem. 2022 44(3), 381
     doi.org/10.1002/jcc.26942
 11. Wittmann, L.; Gordiy, I.; Friede, M.; Helmich-Paris, B.; Grimme, S.; Hansen, A.; Bursch, M.
     Extension of the D3 and D4 London Dispersion Corrections to the full Actinides Series
     Phys. Chem. Chem. Phys. 2024 26(32), 21379-21394
     doi.org/10.1039/D4CP01514B

List of suggested additional citations. These are papers that are important in the 'surrounding' of 
of this run, or papers that preceded the highly important papers. If you like your results we are grateful for a citation.

  1. Izsak, R.; Neese, F.
     An overlap fitted chain of spheres exchange method
     J. Chem. Phys. 2011 135 , 144105
     doi.org/10.1063/1.3646921
  2. Izsak, R.; Hansen, A.; Neese, F.
     The resolution of identity and chain of spheres approximations for the LPNO-CCSD singles Fock term
     Molec. Phys. 2012 110 , 2413-2417
     doi.org/10.1080/00268976.2012.687466
  3. Neese, F.
     The ORCA program system
     WIRES Comput. Molec. Sci. 2012 2(1), 73-78
     doi.org/10.1002/wcms.81
  4. Izsak, R.; Neese, F.; Klopper, W.
     Robust fitting techniques in the chain of spheres approximation to the Fock exchange: The role of the complementary space
     J. Chem. Phys. 2013 139 , 
     doi.org/10.1063/1.4819264
  5. Neese, F.
     Software update: the ORCA program system, version 4.0
     WIRES Comput. Molec. Sci. 2018 8(1), 1-6
     doi.org/10.1002/wcms.1327
  6. Neese, F.; Wennmohs, F.; Becker, U.; Riplinger, C.
     The ORCA quantum chemistry program package
     J. Chem. Phys. 2020 152(22), 224108
     doi.org/10.1063/5.0004608
  7. Neese, F.
     Software update: The ORCA program system—Version 5.0
     WIRES Comput. Molec. Sci. 2022 12(1), e1606
     doi.org/10.1002/wcms.1606

List of optional additional citations

  1. Neese, F.
     Approximate second-order SCF convergence for spin unrestricted wavefunctions
     Chem. Phys. Lett. 2000 325(1-3), 93-98
     doi.org/10.1016/s0009-2614(00)00662-x

Timings for individual modules:

Sum of individual times          ...    21420.285 sec (= 357.005 min)
Startup calculation              ...     2048.232 sec (=  34.137 min)   9.6 %
SCF iterations                   ...    12213.930 sec (= 203.565 min)  57.0 %
Property integrals               ...     1649.717 sec (=  27.495 min)   7.7 %
SCF Response                     ...     3393.286 sec (=  56.555 min)  15.8 %
Property calculations            ...      797.110 sec (=  13.285 min)   3.7 %
SCF Gradient evaluation          ...     1304.100 sec (=  21.735 min)   6.1 %
Geometry relaxation              ...       13.910 sec (=   0.232 min)   0.1 %
                             ****ORCA TERMINATED NORMALLY****
TOTAL RUN TIME: 0 days 6 hours 4 minutes 41 seconds 983 msec
