
                                 *****************
                                 * O   R   C   A *
                                 *****************

                                            #,                                       
                                            ###                                      
                                            ####                                     
                                            #####                                    
                                            ######                                   
                                           ########,                                 
                                     ,,################,,,,,                         
                               ,,#################################,,                 
                          ,,##########################################,,             
                       ,#########################################, ''#####,          
                    ,#############################################,,   '####,        
                  ,##################################################,,,,####,       
                ,###########''''           ''''###############################       
              ,#####''   ,,,,##########,,,,          '''####'''          '####       
            ,##' ,,,,###########################,,,                        '##       
           ' ,,###''''                  '''############,,,                           
         ,,##''                                '''############,,,,        ,,,,,,###''
      ,#''                                            '''#######################'''  
     '                                                          ''''####''''         
             ,#######,   #######,   ,#######,      ##                                
            ,#'     '#,  ##    ##  ,#'     '#,    #''#        ,####,    ,#,          
            ##       ##  ##   ,#'  ##            #'  '#       #'       ,# #          
            ##       ##  #######   ##           ,######,      #####,      #          
            '#,     ,#'  ##    ##  '#,     ,#' ,#      #,     #,   #      #          
             '#######'   ##     ##  '#######'  #'      '#     '####' #    #          



                #########################################################
                #                        -***-                          #
                #          Department of theory and spectroscopy        #
                #                                                       #
                #                      Frank Neese                      #
                #                                                       #
                #     Directorship, Architecture, Infrastructure        #
                #                    SHARK, DRIVERS                     #
                #        Core code/Algorithms in most modules           #
                #                                                       #
                #        Max Planck Institute fuer Kohlenforschung      #
                #                Kaiser Wilhelm Platz 1                 #
                #                 D-45470 Muelheim/Ruhr                 #
                #                      Germany                          #
                #                                                       #
                #                  All rights reserved                  #
                #                        -***-                          #
                #########################################################


                         Program Version 6.1.0-f.0  -   RELEASE   -


 With contributions from (in alphabetic order):
[Max-Planck-Institut fuer Kohlenforschung]                               
  Daniel Aravena         : Magnetic Suceptibility                        
  Michael Atanasov       : Ab Initio Ligand Field Theory (pilot matlab implementation)
  Alexander A. Auer      : GIAO ZORA, VPT2 properties, NMR spectrum      
  Ute Becker             : All parallelization in ORCA, NUMFREQ, NUMCALC 
  Giovanni Bistoni       : ED, misc. LED, open-shell LED, HFLD           
  Dmytro Bykov           : pre 5.0 version of the SCF Hessian            
  Marcos Casanova-Páez   : Triplet and SCS-CIS(D). UHF-(DLPNO)-IP/EA/STEOM-CCSD. UHF-CVS-IP/STEOM-CCSD   
  Vijay G. Chilkuri      : MRCI spin determinant printing, contributions to CSF-ICE 
  Pauline Colinet        : FMM embedding                                 
  Dipayan Datta          : RHF DLPNO-CCSD density                        
  Achintya Kumar Dutta   : EOM-CC, STEOM-CC                              
  Nicolas Foglia         : Exact transition moments, OPA infrastructure, MCD improvements    
  Dmitry Ganyushin       : Spin-Orbit,Spin-Spin,Magnetic field MRCI      
  Miquel Garcia-Rates    : C-PCM and meta-GGA Hessian, CCSD/C-PCM, Gaussian charge scheme 
  Tiago L. C. Gouveia    : GS-ROHF, GS-ROCIS                             
  Yang Guo               : DLPNO-NEVPT2, F12-NEVPT2, CIM, IAO-localization        
  Andreas Hansen         : Spin unrestricted coupled pair/coupled cluster methods 
  Ingolf Harden          : AUTO-CI MPn and infrastructure                
  Benjamin Helmich-Paris : MC-RPA, TRAH-(SCF,CASSCF), AVAS, COSX integrals, SCF dyn. polar., MC-PDFT, srDFT 
  Lee Huntington         : MR-EOM, pCC                                   
  Robert Izsak           : Overlap fitted RIJCOSX, COSX-SCS-MP3, EOM     
  Riya Kayal             : Wick's Theorem for AUTO-CI, AUTO-CI UHF-CCSDT 
  Emily Kempfer          : AUTO-CI RHF CISDT and CCSDT, approximate NEVPT4
  Christian Kollmar      : KDIIS, OOCD, Brueckner-CCSD(T), CCSD density, CASPT2, CASPT2-K, improved NEVPT2 
  Axel Koslowski         : Symmetry handling                             
  Simone Kossmann        : meta-GGA functionals, TD-DFT gradient, OOMP2, (MP2 Hessian; deprecated post 5.0) 
  Lucas Lang             : DCDCAS, Hyperfine gauge corrections, ICE-SOC+SSC
  Marvin Lechner         : AUTO-CI (C++ implementation), FIC-MRCC        
  Spencer Leger          : CASSCF response                               
  Dagmar Lenk            : GEPOL surface, SMD, ORCA-2-JSON               
  Dimitrios Liakos       : Extrapolation schemes; Compound Job, Property file
  Dimitrios Manganas     : Further ROCIS development; embedding schemes. LFT, Crystal Embedding 
  Dimitrios Pantazis     : SARC Basis sets                               
  Anastasios Papadopoulos: AUTO-CI, single reference methods and gradients 
  Taras Petrenko         : pre 6.0 DFT Hessian and TD-DFT gradient,  ECA, NRVS 
  Petra Pikulova         : Analytic Raman intensities                    
  Peter Pinski           : DLPNO-MP2, DLPNO-MP2 Gradient                 
  Shashank Vittal Rao    : ES-AILFT, MagRelax                            
  Christoph Reimann      : Effective Core Potentials                     
  Marius Retegan         : Local ZFS, SOC                                
  Christoph Riplinger    : Optimizer, TS searches, QM/MM, DLPNO-CCSD(T), (RO)-DLPNO pert. Triples 
  Michael Roemelt        : Original ROCIS implementation, recursive CI coupling coefficients
  Masaaki Saitow         : Open-shell DLPNO-CCSD energy and density      
  Barbara Sandhoefer     : DKH picture change effects                    
  Yorick L. A. Schmerwitz: GMF and freeze-and-release deltaSCF, NEB S-IDPP initial path                    
  Kantharuban Sivalingam : CASSCF convergence/infrastructure, NEVPT2, NEVPT3, NEVPT4(SD), FIC-MRCI and CEPA variants
  Bernardo de Souza      : ESD, SOC TD-DFT                               
  Georgi L. Stoychev     : AutoAux, RI-MP2 NMR, DLPNO-MP2 response, X2C  
  Van Anh Tran           : RI-MP2 g-tensors                              
  Willem Van den Heuvel  : Paramagnetic NMR                              
  Zikuan Wang            : NOTCH, Electric field optimization            
  Frank Wennmohs         : Technical directorship and infrastructure     
  Hang Xu                : AUTO-CI-Response properties                   
                                                                         
[FACCTs GmbH]                                                            
  Markus Bursch, Nicolas Foglia, Miquel Garcia-Rates, Ingolf Harden, Hagen Neugebauer, Anastasios Papadopoulos, 
  Christoph Riplinger, Bernardo de Souza, Georgi L. Stoychev                                                    
                                                                 
  APM, various basis sets, CI-OPT, improved COSX, DLPNO-Multilevel,           
  DOCKER, DRACO, updates on ESD, Fragmentator, GOAT, IRC, LR-CPCM, L-BFGS, MBIS, meta-GGA TD-DFT gradient, ML-optimized integration grids, 
  MM, NACMEs, nearIR, NEB, NEB-TS, NL-DFT gradient (VV10), 2- and 3-layer-ONIOM, interface openCOSMO-RS, QMMM,   
  Crystal-QMMM, RESP, rigid body optimization, SF, symmetry and pop. for TD-DFT, various functionals, SOLVATOR                                   
                                                                         
[Other institutions]                                                     
  V. Asgeirsson          : NEB                                           
  Christoph Bannwarth    : sTDA-DFT, sTD-DFT, PBEh-3c, B97-3c, D3        
  Giovanni Bistoni       : ETS/NOCV, ADLD/ADEX, COVALED                  
  Martin Brehm           : Molecular dynamics                            
  Ronald Cardenas        : ETS/NOCV                                      
  Martina Colucci        : COVALED                                       
  Sebastian Ehlert       : rSCAN, r2SCAN, r2SCAN-3c, D4, dhf basis sets  
  Marvin Friede          : D4 for Fr, Ra, Ac-Lr                          
  Lars Goerigk           : TD-DFT with DH, B97 family of functionals     
  Stefan Grimme          : VdW corrections, initial TS optimization, DFT functionals, gCP, sTDA/sTD-DF 
  Waldemar Hujo          : DFT-NL                                        
  H. Jonsson             : NEB                                           
  Holger Kruse           : gCP                                           
  Marcel Mueller         : wB97X-3c, vDZP basis set                      
  Hagen Neugebauer       : wr2SCAN, Native XTB                           
  Gianluca Regni         : ADLD/ADEX                                     
  Tobias Risthaus        : pre 6.0 range-separated hybrid DFT and stability analysis
  Lukas Wittmann         : regularized MP2, r2SCAN double-hybrids, wr2SCAN        
                                                                         
We gratefully acknowledge several colleagues who have allowed us to      
interface, adapt or use parts of their codes:                            
  Ed Valeev, F. Pavosevic, A. Kumar             : LibInt (2-el integral package), F12 methods 
  Garnet Chan, S. Sharma, J. Yang, R. Olivares  : DMRG                   
  Ulf Ekstrom                                   : XCFun DFT Library      
  Mihaly Kallay                                 : mrcc  (arbitrary order and MRCC methods)
  Frank Weinhold                                : gennbo (NPA and NBO analysis)           
  Simon Mueller                                 : openCOSMO-RS                            
  Christopher J. Cramer and Donald G. Truhlar   : smd solvation model                     
  S Lehtola, MJT Oliveira, MAL Marques          : LibXC Library                           
  Liviu Ungur et al                             : ANISO software                          


 Your calculation uses the libint2 library for the computation of 2-el integrals
 For citations please refer to: http://libint.valeyev.net

 Your ORCA version has been built with support for libXC version: 7.0.0
 For citations please refer to: https://libxc.gitlab.io

 This ORCA versions uses:
   CBLAS   interface :  Fast vector & matrix operations
   LAPACKE interface :  Fast linear algebra routines
   SCALAPACK package :  Parallel linear algebra routines
   Shared memory     :  Shared parallel matrices
   BLAS/LAPACK       :  OpenBLAS 0.3.29  USE64BITINT DYNAMIC_ARCH NO_AFFINITY Cooperlake SINGLE_THREADED
        Core in use  :  Cooperlake
   Copyright (c) 2011-2014, The OpenBLAS Project


  ***********************************
  * Starting time: Sat Feb 28 07:45:40 2026
  * Host name:     c03b01n02
  * Process ID:    2342851
  * Working dir.:  /lustre1/jiangy/jiangy_liuxy/NMR/B9D7C2-RSSS
  ***********************************

NOTE: MaxCore=6000 MB was set to SCF,MP2,MDCI,CIPSI,MRCI,RASCI and CIS
      => If you want to overwrite this, your respective input block should be placed after the MaxCore statement


***************************************
The coordinates will be read from file: conf-3.xyz
***************************************


Your calculation utilizes the atom-pairwise dispersion correction
based on EEQ partial charges (D4)


Warning: RI is on but no J-basis has been assigned. Assigning Def2/J (nothing to worry about!)
================================================================================

----- Orbital basis set information -----
Your calculation utilizes the basis: def2-TZVP
   F. Weigend and R. Ahlrichs, Phys. Chem. Chem. Phys. 7, 3297 (2005).

----- AuxJ basis set information -----
Your calculation utilizes the auxiliary basis: def2/J
   H-Rn: F. Weigend, Phys. Chem. Chem. Phys. 8, 1057 (2006).
   Fr-Lr: K. Eichkorn, F. Weigend, O. Treutler, R. Ahlrichs; Theor. Chem. Acc. 97, 119 (1997).

================================================================================
                                        WARNINGS
                       Please study these warnings very carefully!
================================================================================


WARNING: Geometry Optimization
  ===> : Switching off AutoStart
         For restart on a previous wavefunction, please use MOREAD

================================================================================
                                       INPUT FILE
================================================================================
NAME = opt-conf-3.inp
|  1> ! B3LYP OPT FREQ DEF2-TZVP D4 CPCM(Methanol) 
|  2> ! TightOpt
|  3> %pal nprocs 64 end
|  4> %maxcore 6000
|  5> 
|  6> %cpcm
|  7> end
|  8> 
|  9> %freq
| 10>    Temp 298.15
| 11> end
| 12> 
| 13> * xyzfile 0 1 conf-3.xyz
| 14> 
| 15> 
| 16>                          ****END OF INPUT****
================================================================================

                       *****************************
                       * Geometry Optimization Run *
                       *****************************

Geometry optimization settings:
Update method            Update   .... BFGS
Choice of coordinates    CoordSys .... (2022) Redundant Internals
Initial Hessian          InHess   .... Almloef's Model
Max. no of cycles        MaxIter  .... 246

Convergence Tolerances:
Energy Change            TolE     ....  1.0000e-06 Eh
Max. Gradient            TolMAXG  ....  1.0000e-04 Eh/bohr
RMS Gradient             TolRMSG  ....  3.0000e-05 Eh/bohr
Max. Displacement        TolMAXD  ....  1.0000e-03 bohr
RMS Displacement         TolRMSD  ....  6.0000e-04 bohr
Strict Convergence                .... False

------------------------------------------------------------------------------
                        ORCA OPTIMIZATION COORDINATE SETUP
------------------------------------------------------------------------------

The optimization will be done in redundant internal coordinates (2022)
Making redundant internal coordinates   ...  (2022 redundants) done
Evaluating the initial hessian          ...  (Almloef) done
Evaluating the coordinates              ...  done
Calculating the B-matrix                .... done
Calculating the G-matrix                .... done
The number of degrees of freedom        ....  408

    -----------------------------------------------------------------
                    Redundant Internal Coordinates


    -----------------------------------------------------------------
         Definition                    Initial Value    Approx d2E/dq
    -----------------------------------------------------------------
      1. B(C   1,C   0)                  1.3996         0.603172   
      2. B(C   2,C   1)                  1.3996         0.603049   
      3. B(C   3,C   2)                  1.3889         0.627280   
      4. B(C   4,C   3)                  1.3861         0.633804   
      5. B(C   5,C   4)                  1.3876         0.630387   
      6. B(C   5,C   0)                  1.3869         0.631888   
      7. B(C   6,C   4)                  1.5032         0.412156   
      8. B(C   7,C   6)                  1.5386         0.361939   
      9. B(C   8,C   7)                  1.5434         0.355583   
     10. B(C   9,C   8)                  1.5384         0.362219   
     11. B(C  10,C   9)                  1.5035         0.411813   
     12. B(C  11,C  10)                  1.3943         0.614904   
     13. B(C  12,C  11)                  1.3815         0.644539   
     14. B(C  13,C  12)                  1.4050         0.591303   
     15. B(C  14,C  13)                  1.3823         0.642826   
     16. B(C  15,C  10)                  1.3846         0.637253   
     17. B(C  15,C  14)                  1.3861         0.633923   
     18. B(C  16,C   7)                  1.5376         0.363332   
     19. B(C  17,C   8)                  1.5385         0.362068   
     20. B(O  18,C   2)                  1.3642         0.615135   
     21. B(O  19,C   0)                  1.3645         0.614596   
     22. B(O  20,C   1)                  1.3787         0.583221   
     23. B(O  21,C  13)                  1.3610         0.622554   
     24. B(O  22,C  12)                  1.3790         0.582712   
     25. B(C  23,O  20)                  1.4270         0.488456   
     26. B(C  24,C  23)                  1.5481         0.349591   
     27. B(C  25,C  24)                  1.5202         0.387286   
     28. B(C  26,C  23)                  1.5319         0.370928   
     29. B(O  27,C  26)                  1.4017         0.536096   
     30. B(C  28,C  25)                  1.3910         0.622615   
     31. B(C  29,C  28)                  1.3813         0.645196   
     32. B(C  30,C  29)                  1.4008         0.600487   
     33. B(C  31,C  30)                  1.3823         0.642818   
     34. B(C  32,C  31)                  1.3848         0.636887   
     35. B(C  32,C  25)                  1.3864         0.633158   
     36. B(C  33,O  19)                  1.4078         0.524271   
     37. B(C  34,O  18)                  1.4068         0.526143   
     38. B(C  35,O  22)                  1.4056         0.528473   
     39. B(O  36,C  24)                  1.4021         0.535240   
     40. B(O  37,C  16)                  1.4082         0.523324   
     41. B(O  38,C  17)                  1.4058         0.528058   
     42. B(O  39,C  29)                  1.3772         0.586535   
     43. B(O  40,C  30)                  1.3706         0.600835   
     44. B(C  41,O  39)                  1.4090         0.521810   
     45. B(H  42,C   3)                  1.0779         0.376459   
     46. B(H  43,C   5)                  1.0780         0.376369   
     47. B(H  44,C   6)                  1.0906         0.359286   
     48. B(H  45,C   6)                  1.0880         0.362703   
     49. B(H  46,C   7)                  1.0963         0.351863   
     50. B(H  47,C   8)                  1.0963         0.351813   
     51. B(H  48,C   9)                  1.0909         0.358965   
     52. B(H  49,C   9)                  1.0936         0.355401   
     53. B(H  50,C  11)                  1.0785         0.375584   
     54. B(H  51,C  14)                  1.0784         0.375766   
     55. B(H  52,C  15)                  1.0800         0.373541   
     56. B(H  53,C  16)                  1.0973         0.350622   
     57. B(H  54,C  16)                  1.0935         0.355514   
     58. B(H  55,C  17)                  1.0942         0.354582   
     59. B(H  56,C  17)                  1.1002         0.346793   
     60. B(H  57,O  21)                  0.9665         0.507728   
     61. B(H  57,O  22)                  2.1242         0.010000   
     62. B(H  58,C  23)                  1.0939         0.354993   
     63. B(H  59,C  24)                  1.0978         0.349990   
     64. B(H  60,C  26)                  1.0918         0.357757   
     65. B(H  61,C  26)                  1.0987         0.348808   
     66. B(H  62,O  20)                  2.3338         0.010000   
     67. B(H  62,O  27)                  0.9661         0.508444   
     68. B(H  63,C  28)                  1.0779         0.376422   
     69. B(H  64,C  31)                  1.0784         0.375800   
     70. B(H  65,C  32)                  1.0786         0.375494   
     71. B(H  66,H  51)                  2.7533         0.010000   
     72. B(H  66,C  33)                  1.0936         0.355308   
     73. B(H  67,C  33)                  1.0935         0.355495   
     74. B(H  68,C  33)                  1.0891         0.361351   
     75. B(H  69,C  34)                  1.0942         0.354606   
     76. B(H  70,C  34)                  1.0888         0.361687   
     77. B(H  71,H  64)                  4.4612         0.010000   
     78. B(H  71,C  34)                  1.0947         0.353909   
     79. B(H  72,C  35)                  1.0949         0.353720   
     80. B(H  73,C  35)                  1.0891         0.361324   
     81. B(H  74,C  35)                  1.0942         0.354573   
     82. B(H  75,O  20)                  2.2636         0.010000   
     83. B(H  75,O  19)                  2.2033         0.010000   
     84. B(H  75,O  36)                  0.9721         0.497277   
     85. B(H  76,O  40)                  1.9849         0.012046   
     86. B(H  76,O  37)                  0.9695         0.502043   
     87. B(H  77,O  37)                  2.0475         0.010000   
     88. B(H  77,O  38)                  0.9687         0.503671   
     89. B(H  78,H  72)                  2.3942         0.010000   
     90. B(H  78,O  39)                  2.0770         0.010000   
     91. B(H  78,O  40)                  0.9684         0.504171   
     92. B(H  79,C  41)                  1.0933         0.355767   
     93. B(H  80,H  67)                  2.4457         0.010000   
     94. B(H  80,C  41)                  1.0935         0.355440   
     95. B(H  81,C  41)                  1.0892         0.361105   
     96. A(C   1,C   0,O  19)          115.3516         0.428429   
     97. A(C   5,C   0,O  19)          124.9094         0.432021   
     98. A(C   1,C   0,C   5)          119.7371         0.433401   
     99. A(C   0,C   1,O  20)          118.5921         0.424427   
    100. A(C   0,C   1,C   2)          119.8567         0.429779   
    101. A(C   2,C   1,O  20)          121.4550         0.424411   
    102. A(C   3,C   2,O  18)          124.7421         0.431521   
    103. A(C   1,C   2,C   3)          119.4878         0.432815   
    104. A(C   1,C   2,O  18)          115.7699         0.428480   
    105. A(C   4,C   3,H  42)          119.0584         0.356908   
    106. A(C   2,C   3,H  42)          120.3429         0.356281   
    107. A(C   2,C   3,C   4)          120.5985         0.436708   
    108. A(C   5,C   4,C   6)          119.1619         0.404790   
    109. A(C   3,C   4,C   6)          120.9082         0.405177   
    110. A(C   3,C   4,C   5)          119.8852         0.437097   
    111. A(C   4,C   5,H  43)          118.8468         0.356566   
    112. A(C   0,C   5,H  43)          120.7428         0.356710   
    113. A(C   0,C   5,C   4)          120.4072         0.436858   
    114. A(C   4,C   6,H  44)          110.2465         0.329489   
    115. A(C   7,C   6,H  45)          109.3814         0.323021   
    116. A(C   4,C   6,C   7)          109.7006         0.367521   
    117. A(H  44,C   6,H  45)          108.5102         0.291065   
    118. A(C   4,C   6,H  45)          108.8961         0.330005   
    119. A(C   7,C   6,H  44)          110.0772         0.322520   
    120. A(C   6,C   7,C  16)          108.7907         0.359685   
    121. A(C   8,C   7,C  16)          111.0028         0.358602   
    122. A(C  16,C   7,H  46)          107.7557         0.321621   
    123. A(C   8,C   7,H  46)          106.6459         0.320489   
    124. A(C   6,C   7,H  46)          107.1300         0.321419   
    125. A(C   6,C   7,C   8)          115.1853         0.358367   
    126. A(C   7,C   8,C  17)          113.4902         0.358389   
    127. A(C  17,C   8,H  47)          105.8206         0.321430   
    128. A(C   7,C   8,C   9)          112.6494         0.358415   
    129. A(C   9,C   8,H  47)          107.3543         0.321452   
    130. A(C   7,C   8,H  47)          106.1177         0.320481   
    131. A(C   9,C   8,C  17)          110.8616         0.359519   
    132. A(H  48,C   9,H  49)          107.3048         0.290096   
    133. A(C  10,C   9,H  48)          109.7810         0.329395   
    134. A(C  10,C   9,H  49)          108.8572         0.328853   
    135. A(C   8,C   9,C  10)          113.1815         0.367517   
    136. A(C   8,C   9,H  48)          109.8688         0.322513   
    137. A(C   8,C   9,H  49)          107.6526         0.321987   
    138. A(C   9,C  10,C  11)          119.8159         0.402959   
    139. A(C  11,C  10,C  15)          118.8141         0.435568   
    140. A(C   9,C  10,C  15)          121.3653         0.405506   
    141. A(C  10,C  11,C  12)          120.8600         0.436461   
    142. A(C  10,C  11,H  50)          118.8159         0.354938   
    143. A(C  12,C  11,H  50)          120.3208         0.357787   
    144. A(C  11,C  12,C  13)          119.7501         0.433397   
    145. A(C  13,C  12,O  22)          114.6589         0.422855   
    146. A(C  11,C  12,O  22)          125.5878         0.429433   
    147. A(C  12,C  13,O  21)          120.5032         0.427891   
    148. A(C  12,C  13,C  14)          119.3936         0.433190   
    149. A(C  14,C  13,O  21)          120.1009         0.434360   
    150. A(C  13,C  14,H  51)          118.4792         0.357654   
    151. A(C  13,C  14,C  15)          120.2620         0.438654   
    152. A(C  15,C  14,H  51)          121.2545         0.356808   
    153. A(C  14,C  15,H  52)          119.0530         0.356448   
    154. A(C  10,C  15,H  52)          120.0242         0.356765   
    155. A(C  10,C  15,C  14)          120.9151         0.437966   
    156. A(O  37,C  16,H  54)          105.9721         0.340155   
    157. A(C   7,C  16,H  54)          110.3700         0.322165   
    158. A(O  37,C  16,H  53)          110.5737         0.339369   
    159. A(C   7,C  16,H  53)          108.4420         0.321435   
    160. A(C   7,C  16,O  37)          113.4125         0.380824   
    161. A(H  53,C  16,H  54)          107.9347         0.289043   
    162. A(O  38,C  17,H  56)          110.5281         0.339257   
    163. A(C   8,C  17,O  38)          112.7493         0.381188   
    164. A(H  55,C  17,H  56)          107.4725         0.288428   
    165. A(C   8,C  17,H  56)          110.3721         0.320675   
    166. A(O  38,C  17,H  55)          105.3930         0.340518   
    167. A(C   8,C  17,H  55)          110.0864         0.321843   
    168. A(C   2,O  18,C  34)          118.7371         0.415449   
    169. A(C   0,O  19,C  33)          118.1413         0.415121   
    170. A(C   1,O  20,C  23)          116.4255         0.406156   
    171. A(C  13,O  21,H  57)          107.4742         0.368866   
    172. A(C  12,O  22,C  35)          118.1689         0.411796   
    173. A(C  26,C  23,H  58)          109.0255         0.323182   
    174. A(C  24,C  23,H  58)          110.9631         0.320063   
    175. A(O  20,C  23,H  58)          110.2947         0.336184   
    176. A(C  24,C  23,C  26)          111.4580         0.358827   
    177. A(O  20,C  23,C  26)          105.2454         0.377653   
    178. A(O  20,C  23,C  24)          109.7056         0.373809   
    179. A(C  23,C  24,O  36)          109.1545         0.379766   
    180. A(O  36,C  24,H  59)          106.2485         0.340545   
    181. A(C  25,C  24,H  59)          108.8617         0.324722   
    182. A(C  23,C  24,H  59)          108.3129         0.319322   
    183. A(C  25,C  24,O  36)          112.1876         0.386584   
    184. A(C  23,C  24,C  25)          111.8510         0.361476   
    185. A(C  28,C  25,C  32)          119.1836         0.436041   
    186. A(C  24,C  25,C  32)          121.9223         0.400682   
    187. A(C  24,C  25,C  28)          118.8780         0.399500   
    188. A(O  27,C  26,H  61)          110.9651         0.340444   
    189. A(H  60,C  26,H  61)          109.1086         0.289093   
    190. A(C  23,C  26,H  61)          108.5191         0.322252   
    191. A(O  27,C  26,H  60)          106.9141         0.341890   
    192. A(C  23,C  26,H  60)          110.1941         0.323594   
    193. A(C  23,C  26,O  27)          111.1210         0.383798   
    194. A(C  26,O  27,H  62)          106.8784         0.359640   
    195. A(C  29,C  28,H  63)          120.9140         0.357984   
    196. A(C  25,C  28,H  63)          118.4911         0.355824   
    197. A(C  25,C  28,C  29)          120.5946         0.437523   
    198. A(C  30,C  29,O  39)          114.7416         0.424518   
    199. A(C  28,C  29,O  39)          125.5309         0.430016   
    200. A(C  28,C  29,C  30)          119.7213         0.434680   
    201. A(C  31,C  30,O  40)          120.9277         0.431594   
    202. A(C  29,C  30,O  40)          119.4081         0.426353   
    203. A(C  29,C  30,C  31)          119.6526         0.434391   
    204. A(C  32,C  31,H  64)          120.7585         0.357096   
    205. A(C  30,C  31,H  64)          119.1141         0.357659   
    206. A(C  30,C  31,C  32)          120.1141         0.439023   
    207. A(C  31,C  32,H  65)          118.8963         0.357047   
    208. A(C  25,C  32,H  65)          120.5160         0.356691   
    209. A(C  25,C  32,C  31)          120.5863         0.437825   
    210. A(H  67,C  33,H  68)          109.6422         0.290410   
    211. A(H  66,C  33,H  68)          109.2955         0.290386   
    212. A(O  19,C  33,H  68)          105.7387         0.341186   
    213. A(H  66,C  33,H  67)          109.0615         0.289643   
    214. A(O  19,C  33,H  67)          111.7950         0.340255   
    215. A(O  19,C  33,H  66)          111.2381         0.340225   
    216. A(H  69,C  34,H  71)          109.4970         0.289350   
    217. A(O  18,C  34,H  71)          111.5506         0.340204   
    218. A(H  69,C  34,H  70)          109.3763         0.290339   
    219. A(O  18,C  34,H  70)          105.4009         0.341443   
    220. A(O  18,C  34,H  69)          111.4978         0.340316   
    221. A(H  70,C  34,H  71)          109.4172         0.290249   
    222. A(H  73,C  35,H  74)          109.3684         0.290289   
    223. A(H  72,C  35,H  74)          109.2751         0.289322   
    224. A(O  22,C  35,H  74)          111.3347         0.340562   
    225. A(H  72,C  35,H  73)          109.1380         0.290179   
    226. A(O  22,C  35,H  73)          105.7566         0.341638   
    227. A(O  22,C  35,H  72)          111.8760         0.340425   
    228. A(C  24,O  36,H  75)          106.1939         0.358186   
    229. A(C  16,O  37,H  76)          107.8996         0.357396   
    230. A(C  17,O  38,H  77)          108.6120         0.358141   
    231. A(C  29,O  39,C  41)          117.7894         0.411347   
    232. A(C  30,O  40,H  78)          106.4281         0.366184   
    233. A(H  80,C  41,H  81)          109.4124         0.290372   
    234. A(H  79,C  41,H  81)          109.4570         0.290414   
    235. A(O  39,C  41,H  81)          105.5642         0.340879   
    236. A(H  79,C  41,H  80)          109.5686         0.289694   
    237. A(O  39,C  41,H  80)          111.5962         0.339979   
    238. A(O  39,C  41,H  79)          111.1487         0.340031   
    239. D(O  20,C   1,C   0,O  19)     -2.2834         0.025095   
    240. D(C   2,C   1,C   0,O  19)   -178.7706         0.025095   
    241. D(C   2,C   1,C   0,C   5)      1.7123         0.025095   
    242. D(O  20,C   1,C   0,C   5)    178.1994         0.025095   
    243. D(O  18,C   2,C   1,C   0)    178.6355         0.025084   
    244. D(C   3,C   2,C   1,C   0)     -1.4995         0.025084   
    245. D(C   3,C   2,C   1,O  20)   -177.8837         0.025084   
    246. D(O  18,C   2,C   1,O  20)      2.2514         0.025084   
    247. D(C   4,C   3,C   2,C   1)      0.0975         0.027267   
    248. D(H  42,C   3,C   2,O  18)     -0.2374         0.027267   
    249. D(C   4,C   3,C   2,O  18)    179.9496         0.027267   
    250. D(H  42,C   3,C   2,C   1)    179.9106         0.027267   
    251. D(C   6,C   4,C   3,H  42)      3.7327         0.027874   
    252. D(C   5,C   4,C   3,H  42)   -178.7199         0.027874   
    253. D(C   5,C   4,C   3,C   2)      1.0955         0.027874   
    254. D(C   6,C   4,C   3,C   2)   -176.4519         0.027874   
    255. D(H  43,C   5,C   4,C   6)     -2.6519         0.027555   
    256. D(H  43,C   5,C   4,C   3)    179.7578         0.027555   
    257. D(C   0,C   5,C   4,C   3)     -0.8811         0.027555   
    258. D(C   4,C   5,C   0,O  19)   -179.9897         0.027695   
    259. D(H  43,C   5,C   0,C   1)    178.8271         0.027695   
    260. D(H  43,C   5,C   0,O  19)     -0.6408         0.027695   
    261. D(C   0,C   5,C   4,C   6)    176.7092         0.027555   
    262. D(C   4,C   5,C   0,C   1)     -0.5218         0.027695   
    263. D(H  45,C   6,C   4,C   3)   -141.3860         0.012577   
    264. D(H  44,C   6,C   4,C   5)    159.9904         0.012577   
    265. D(H  44,C   6,C   4,C   3)    -22.4447         0.012577   
    266. D(C   7,C   6,C   4,C   5)    -78.6293         0.012577   
    267. D(C   7,C   6,C   4,C   3)     98.9356         0.012577   
    268. D(C   8,C   7,C   6,H  44)    -74.4337         0.010502   
    269. D(C   8,C   7,C   6,C   4)    164.0845         0.010502   
    270. D(C  16,C   7,C   6,H  45)    170.0389         0.010502   
    271. D(C  16,C   7,C   6,H  44)     50.9019         0.010502   
    272. D(C   8,C   7,C   6,H  45)     44.7033         0.010502   
    273. D(C  16,C   7,C   6,C   4)    -70.5800         0.010502   
    274. D(C  17,C   8,C   7,H  46)   -170.5883         0.010162   
    275. D(C  17,C   8,C   7,C  16)    -53.4761         0.010162   
    276. D(C  17,C   8,C   7,C   6)     70.7056         0.010162   
    277. D(C   9,C   8,C   7,C  16)    179.5043         0.010162   
    278. D(C   9,C   8,C   7,H  46)     62.3920         0.010162   
    279. D(C   9,C   8,C   7,C   6)    -56.3140         0.010162   
    280. D(H  48,C   9,C   8,C  17)    -55.4717         0.010517   
    281. D(H  48,C   9,C   8,C   7)     72.9337         0.010517   
    282. D(C  10,C   9,C   8,H  47)     66.2859         0.010517   
    283. D(C  10,C   9,C   8,C  17)   -178.5785         0.010517   
    284. D(H  48,C   9,C   8,H  47)   -170.6073         0.010517   
    285. D(C  10,C   9,C   8,C   7)    -50.1731         0.010517   
    286. D(C  15,C  10,C   9,H  48)     -3.0568         0.012556   
    287. D(C  15,C  10,C   9,C   8)    120.0985         0.012556   
    288. D(C  11,C  10,C   9,H  49)     58.9588         0.012556   
    289. D(C  11,C  10,C   9,H  48)    176.1443         0.012556   
    290. D(C  11,C  10,C   9,C   8)    -60.7005         0.012556   
    291. D(H  50,C  11,C  10,C  15)    178.7017         0.026138   
    292. D(H  50,C  11,C  10,C   9)     -0.5197         0.026138   
    293. D(C  12,C  11,C  10,C  15)     -0.6476         0.026138   
    294. D(C  12,C  11,C  10,C   9)   -179.8690         0.026138   
    295. D(O  22,C  12,C  11,H  50)      0.0887         0.028891   
    296. D(C  13,C  12,C  11,H  50)   -179.2157         0.028891   
    297. D(O  22,C  12,C  11,C  10)    179.4283         0.028891   
    298. D(C  13,C  12,C  11,C  10)      0.1238         0.028891   
    299. D(O  21,C  13,C  12,C  11)    179.9454         0.024067   
    300. D(C  14,C  13,C  12,O  22)   -178.8801         0.024067   
    301. D(C  14,C  13,C  12,C  11)      0.4975         0.024067   
    302. D(O  21,C  13,C  12,O  22)      0.5678         0.024067   
    303. D(H  51,C  14,C  13,O  21)     -0.7904         0.028727   
    304. D(H  51,C  14,C  13,C  12)    178.6598         0.028727   
    305. D(C  15,C  14,C  13,O  21)    179.9611         0.028727   
    306. D(C  15,C  14,C  13,C  12)     -0.5887         0.028727   
    307. D(H  52,C  15,C  14,H  51)     -0.1775         0.027885   
    308. D(H  52,C  15,C  14,C  13)    179.0498         0.027885   
    309. D(C  10,C  15,C  14,H  51)   -179.1687         0.027885   
    310. D(C  10,C  15,C  14,C  13)      0.0586         0.027885   
    311. D(H  52,C  15,C  10,C  11)   -178.4232         0.028199   
    312. D(H  52,C  15,C  10,C   9)      0.7856         0.028199   
    313. D(C  14,C  15,C  10,C  11)      0.5582         0.028199   
    314. D(C  14,C  15,C  10,C   9)    179.7671         0.028199   
    315. D(H  53,C  16,C   7,H  46)    -56.4280         0.010578   
    316. D(H  53,C  16,C   7,C   8)   -172.8592         0.010578   
    317. D(H  53,C  16,C   7,C   6)     59.3977         0.010578   
    318. D(O  37,C  16,C   7,H  46)     66.8063         0.010578   
    319. D(O  37,C  16,C   7,C   8)    -49.6250         0.010578   
    320. D(O  37,C  16,C   7,C   6)   -177.3680         0.010578   
    321. D(H  55,C  17,C   8,H  47)     93.5964         0.010509   
    322. D(H  55,C  17,C   8,C   9)    -22.4923         0.010509   
    323. D(H  55,C  17,C   8,C   7)   -150.4422         0.010509   
    324. D(O  38,C  17,C   8,H  47)    -23.7782         0.010509   
    325. D(O  38,C  17,C   8,C   9)   -139.8669         0.010509   
    326. D(O  38,C  17,C   8,C   7)     92.1832         0.010509   
    327. D(C  34,O  18,C   2,C   3)      1.1020         0.027730   
    328. D(C  34,O  18,C   2,C   1)   -179.0410         0.027730   
    329. D(C  33,O  19,C   0,C   5)     -5.7164         0.030545   
    330. D(C  33,O  19,C   0,C   1)    174.7948         0.030545   
    331. D(C  23,O  20,C   1,C   2)    -68.5594         0.029671   
    332. D(C  23,O  20,C   1,C   0)    115.0121         0.029671   
    333. D(H  57,O  21,C  13,C  14)    175.4820         0.028452   
    334. D(H  57,O  21,C  13,C  12)     -3.9620         0.028452   
    335. D(C  35,O  22,C  12,C  13)    173.1306         0.027251   
    336. D(C  35,O  22,C  12,C  11)     -6.2049         0.027251   
    337. D(H  58,C  23,O  20,C   1)     42.7231         0.021926   
    338. D(C  26,C  23,O  20,C   1)    160.1768         0.021926   
    339. D(C  24,C  23,O  20,C   1)    -79.7991         0.021926   
    340. D(O  36,C  24,C  23,H  58)   -174.6108         0.010000   
    341. D(O  36,C  24,C  23,C  26)     63.6747         0.010000   
    342. D(O  36,C  24,C  23,O  20)    -52.4863         0.010000   
    343. D(C  25,C  24,C  23,H  58)    -49.8601         0.010000   
    344. D(C  25,C  24,C  23,C  26)   -171.5747         0.010000   
    345. D(C  25,C  24,C  23,O  20)     72.2644         0.010000   
    346. D(C  32,C  25,C  24,O  36)    172.3804         0.011167   
    347. D(C  32,C  25,C  24,C  23)     49.3331         0.011167   
    348. D(C  28,C  25,C  24,H  59)    108.2069         0.011167   
    349. D(C  28,C  25,C  24,O  36)     -9.0936         0.011167   
    350. D(C  28,C  25,C  24,C  23)   -132.1409         0.011167   
    351. D(H  60,C  26,C  23,H  58)    -64.5797         0.010995   
    352. D(H  60,C  26,C  23,C  24)     58.2513         0.010995   
    353. D(H  60,C  26,C  23,O  20)    177.1095         0.010995   
    354. D(O  27,C  26,C  23,H  58)     53.7406         0.010995   
    355. D(O  27,C  26,C  23,C  24)    176.5716         0.010995   
    356. D(O  27,C  26,C  23,O  20)    -64.5702         0.010995   
    357. D(H  62,O  27,C  26,H  61)    -75.6655         0.022847   
    358. D(H  62,O  27,C  26,H  60)    165.4572         0.022847   
    359. D(H  62,O  27,C  26,C  23)     45.1748         0.022847   
    360. D(H  63,C  28,C  25,C  32)    176.8317         0.026838   
    361. D(H  63,C  28,C  25,C  24)     -1.7352         0.026838   
    362. D(C  29,C  28,C  25,C  32)     -2.9621         0.026838   
    363. D(C  29,C  28,C  25,C  24)    178.4709         0.026838   
    364. D(C  30,C  29,C  28,H  63)    179.8751         0.028954   
    365. D(C  30,C  29,C  28,C  25)     -0.3361         0.028954   
    366. D(O  39,C  29,C  28,H  63)     -1.0785         0.028954   
    367. D(O  39,C  29,C  28,C  25)    178.7103         0.028954   
    368. D(O  40,C  30,C  29,O  39)      2.8319         0.024860   
    369. D(O  40,C  30,C  29,C  28)   -178.0226         0.024860   
    370. D(C  31,C  30,C  29,O  39)   -175.9418         0.024860   
    371. D(C  31,C  30,C  29,C  28)      3.2037         0.024860   
    372. D(H  64,C  31,C  30,O  40)     -2.8188         0.028727   
    373. D(H  64,C  31,C  30,C  29)    175.9358         0.028727   
    374. D(C  32,C  31,C  30,O  40)    178.4961         0.028727   
    375. D(C  32,C  31,C  30,C  29)     -2.7493         0.028727   
    376. D(H  65,C  32,C  31,H  64)      0.3234         0.028164   
    377. D(H  65,C  32,C  31,C  30)    178.9866         0.028164   
    378. D(C  25,C  32,C  31,H  64)   -179.2454         0.028164   
    379. D(C  25,C  32,C  31,C  30)     -0.5822         0.028164   
    380. D(H  65,C  32,C  25,C  28)   -176.1284         0.027814   
    381. D(H  65,C  32,C  25,C  24)      2.3932         0.027814   
    382. D(C  31,C  32,C  25,C  28)      3.4334         0.027814   
    383. D(C  31,C  32,C  25,C  24)   -178.0450         0.027814   
    384. D(H  68,C  33,O  19,C   0)   -178.7493         0.023671   
    385. D(H  67,C  33,O  19,C   0)     61.9880         0.023671   
    386. D(H  66,C  33,O  19,C   0)    -60.2041         0.023671   
    387. D(H  71,C  34,O  18,C   2)    -61.9807         0.021969   
    388. D(H  70,C  34,O  18,C   2)    179.3643         0.021969   
    389. D(H  69,C  34,O  18,C   2)     60.7863         0.021969   
    390. D(H  74,C  35,O  22,C  12)    -57.9460         0.024071   
    391. D(H  73,C  35,O  22,C  12)   -176.6409         0.024071   
    392. D(H  72,C  35,O  22,C  12)     64.6500         0.024071   
    393. D(H  75,O  36,C  24,H  59)    167.6583         0.022771   
    394. D(H  75,O  36,C  24,C  25)    -73.4911         0.022771   
    395. D(H  75,O  36,C  24,C  23)     51.0626         0.022771   
    396. D(H  76,O  37,C  16,H  54)    175.1274         0.023582   
    397. D(H  76,O  37,C  16,H  53)     58.4125         0.023582   
    398. D(H  76,O  37,C  16,C   7)    -63.6428         0.023582   
    399. D(H  77,O  38,C  17,H  56)     83.1685         0.022136   
    400. D(H  77,O  38,C  17,H  55)   -161.0064         0.022136   
    401. D(H  77,O  38,C  17,C   8)    -40.8934         0.022136   
    402. D(C  41,O  39,C  29,C  30)    162.9313         0.027634   
    403. D(C  41,O  39,C  29,C  28)    -16.1568         0.027634   
    404. D(H  78,O  40,C  30,C  31)    177.0558         0.029095   
    405. D(H  78,O  40,C  30,C  29)     -1.7019         0.029095   
    406. D(H  81,C  41,O  39,C  29)   -164.8931         0.023439   
    407. D(H  80,C  41,O  39,C  29)     76.3351         0.023439   
    408. D(H  79,C  41,O  39,C  29)    -46.3057         0.023439   
    -----------------------------------------------------------------

Number of atoms                         .... 82
Number of degrees of freedom            .... 408


         *************************************************************
         *                GEOMETRY OPTIMIZATION CYCLE   1            *
         *************************************************************
---------------------------------
CARTESIAN COORDINATES (ANGSTROEM)
---------------------------------
  C     11.818741  -11.867502   -1.776061
  C     12.259152  -13.175771   -1.545156
  C     11.358771  -14.242430   -1.647892
  C     10.027077  -13.986512   -1.948223
  C      9.585853  -12.687792   -2.148050
  C     10.483901  -11.632867   -2.070537
  C      8.132131  -12.395577   -2.395142
  C      7.467210  -11.929981   -1.088072
  C      6.098949  -11.236324   -1.258056
  C      6.163465  -10.021698   -2.199972
  C      7.270538   -9.064295   -1.856171
  C      7.286036   -8.441437   -0.608772
  C      8.291386   -7.556008   -0.271254
  C      9.311929   -7.274805   -1.195071
  C      9.289607   -7.882354   -2.436448
  C      8.276036   -8.770134   -2.761507
  C      7.362098  -13.129085   -0.131402
  C      4.972682  -12.196440   -1.678452
  O     11.882947  -15.483728   -1.434409
  O     12.777922  -10.902115   -1.677021
  O     13.597931  -13.386211   -1.291537
  O     10.309156   -6.404209   -0.879060
  O      8.396228   -6.879145    0.925598
  C     13.928701  -13.878454    0.006404
  C     13.920286  -12.712439    1.024655
  C     12.508696  -12.237530    1.329365
  C     15.327386  -14.486503   -0.137754
  O     15.311781  -15.590050   -1.001840
  C     12.237480  -10.873623    1.298571
  C     10.960482  -10.405190    1.538802
  C      9.927505  -11.311938    1.809011
  C     10.208869  -12.662303    1.898399
  C     11.494534  -13.121028    1.665456
  C     12.425470   -9.579664   -2.006660
  C     11.037293  -16.602762   -1.542401
  C      7.339536   -6.990629    1.845718
  O     14.735349  -11.677154    0.545301
  O      6.711247  -12.823497    1.079448
  O      4.272152  -12.726376   -0.580875
  O     10.584453   -9.080465    1.558586
  O      8.654756  -10.842990    2.006153
  C     11.601054   -8.110526    1.663999
  H      9.322176  -14.797662   -2.032079
  H     10.123414  -10.629984   -2.232698
  H      7.627848  -13.284565   -2.775724
  H      8.052971  -11.607529   -3.141159
  H      8.137606  -11.193901   -0.629130
  H      5.820265  -10.865401   -0.264724
  H      6.273486  -10.358130   -3.231806
  H      5.207048   -9.496156   -2.129408
  H      6.491249   -8.654377    0.088522
  H     10.068040   -7.639174   -3.142046
  H      8.269065   -9.221829   -3.742515
  H      8.373102  -13.510270    0.059779
  H      6.780503  -13.932916   -0.591099
  H      4.223797  -11.661131   -2.269972
  H      5.373756  -13.005369   -2.307200
  H     10.108939   -6.037536   -0.007542
  H     13.227607  -14.663431    0.304514
  H     14.385157  -13.063631    1.955041
  H     15.683767  -14.845626    0.829716
  H     16.009900  -13.708358   -0.506194
  H     14.787899  -15.335418   -1.772586
  H     13.046221  -10.193193    1.086695
  H      9.420604  -13.345530    2.171801
  H     11.695773  -14.176759    1.756693
  H     12.089243   -9.506310   -3.044751
  H     11.642078   -9.192409   -1.349332
  H     13.333369   -8.991675   -1.880044
  H     10.611665  -16.688277   -2.546775
  H     11.671978  -17.465008   -1.344416
  H     10.229112  -16.568720   -0.804770
  H      7.226575   -8.015116    2.215040
  H      7.601503   -6.338122    2.677401
  H      6.393530   -6.658207    1.407697
  H     14.443504  -11.501812   -0.365269
  H      7.247787  -12.166142    1.548514
  H      4.908584  -12.944215    0.116124
  H      8.705460   -9.878039    1.942255
  H     12.319143   -8.375004    2.444828
  H     12.126242   -7.973108    0.714717
  H     11.094888   -7.184891    1.935002

----------------------------
CARTESIAN COORDINATES (A.U.)
----------------------------
  NO LB      ZA    FRAG     MASS         X           Y           Z
   0 C     6.0000    0    12.011   22.334184  -22.426329   -3.356269
   1 C     6.0000    0    12.011   23.166440  -24.898599   -2.919921
   2 C     6.0000    0    12.011   21.464966  -26.914293   -3.114064
   3 C     6.0000    0    12.011   18.948430  -26.430676   -3.681607
   4 C     6.0000    0    12.011   18.114636  -23.976452   -4.059226
   5 C     6.0000    0    12.011   19.811702  -21.982933   -3.912748
   6 C     6.0000    0    12.011   15.367501  -23.424246   -4.526162
   7 C     6.0000    0    12.011   14.110983  -22.544398   -2.056158
   8 C     6.0000    0    12.011   11.525343  -21.233575   -2.377382
   9 C     6.0000    0    12.011   11.647261  -18.938264   -4.157344
  10 C     6.0000    0    12.011   13.739326  -17.129035   -3.507655
  11 C     6.0000    0    12.011   13.768613  -15.952004   -1.150412
  12 C     6.0000    0    12.011   15.668449  -14.278787   -0.512596
  13 C     6.0000    0    12.011   17.596995  -13.747388   -2.258356
  14 C     6.0000    0    12.011   17.554813  -14.895490   -4.604220
  15 C     6.0000    0    12.011   15.639442  -16.573152   -5.218492
  16 C     6.0000    0    12.011   13.912348  -24.810375   -0.248314
  17 C     6.0000    0    12.011    9.397008  -23.047932   -3.171814
  18 O     8.0000    0    15.999   22.455515  -29.260006   -2.710639
  19 O     8.0000    0    15.999   24.146773  -20.602012   -3.169111
  20 O     8.0000    0    15.999   25.696365  -25.296273   -2.440651
  21 O     8.0000    0    15.999   19.481482  -12.102201   -1.661182
  22 O     8.0000    0    15.999   15.866572  -12.999701    1.749127
  23 C     6.0000    0    12.011   26.321430  -26.226477    0.012102
  24 C     6.0000    0    12.011   26.305527  -24.023028    1.936317
  25 C     6.0000    0    12.011   23.638010  -23.125580    2.512135
  26 C     6.0000    0    12.011   28.964562  -27.375522   -0.260318
  27 O     8.0000    0    15.999   28.935072  -29.460924   -1.893203
  28 C     6.0000    0    12.011   23.125485  -20.548170    2.453943
  29 C     6.0000    0    12.011   20.712310  -19.662959    2.907915
  30 C     6.0000    0    12.011   18.760265  -21.376465    3.418536
  31 C     6.0000    0    12.011   19.291967  -23.928285    3.587453
  32 C     6.0000    0    12.011   21.721520  -24.795149    3.147256
  33 C     6.0000    0    12.011   23.480736  -18.102941   -3.792038
  34 C     6.0000    0    12.011   20.857461  -31.374674   -2.914715
  35 C     6.0000    0    12.011   13.869714  -13.210374    3.487902
  36 O     8.0000    0    15.999   27.845774  -22.066622    1.030470
  37 O     8.0000    0    15.999   12.682419  -24.232898    2.039860
  38 O     8.0000    0    15.999    8.073198  -24.049366   -1.097694
  39 O     8.0000    0    15.999   20.001718  -17.159592    2.945300
  40 O     8.0000    0    15.999   16.355118  -20.490281    3.791080
  41 C     6.0000    0    12.011   21.922814  -15.326673    3.144502
  42 H     1.0000    0     1.008   17.616360  -27.963528   -3.840073
  43 H     1.0000    0     1.008   19.130479  -20.087758   -4.219188
  44 H     1.0000    0     1.008   14.414543  -25.104189   -5.245358
  45 H     1.0000    0     1.008   15.217909  -21.935050   -5.935931
  46 H     1.0000    0     1.008   15.377847  -21.153407   -1.188884
  47 H     1.0000    0     1.008   10.998707  -20.532633   -0.500257
  48 H     1.0000    0     1.008   11.855171  -19.574030   -6.107229
  49 H     1.0000    0     1.008    9.839894  -17.945135   -4.023998
  50 H     1.0000    0     1.008   12.266684  -16.354402    0.167283
  51 H     1.0000    0     1.008   19.025839  -14.435948   -5.937607
  52 H     1.0000    0     1.008   15.626268  -17.426732   -7.072329
  53 H     1.0000    0     1.008   15.822869  -25.530710    0.112967
  54 H     1.0000    0     1.008   12.813293  -26.329396   -1.117015
  55 H     1.0000    0     1.008    7.981820  -22.036344   -4.289625
  56 H     1.0000    0     1.008   10.154926  -24.576585   -4.359976
  57 H     1.0000    0     1.008   19.103126  -11.409289   -0.014252
  58 H     1.0000    0     1.008   24.996555  -27.709869    0.575448
  59 H     1.0000    0     1.008   27.184008  -24.686684    3.694491
  60 H     1.0000    0     1.008   29.638025  -28.054168    1.567937
  61 H     1.0000    0     1.008   30.254327  -25.905043   -0.956568
  62 H     1.0000    0     1.008   27.945079  -28.979740   -3.349702
  63 H     1.0000    0     1.008   24.653785  -19.262343    2.053555
  64 H     1.0000    0     1.008   17.802362  -25.219398    4.104109
  65 H     1.0000    0     1.008   22.101808  -26.790191    3.319669
  66 H     1.0000    0     1.008   22.845358  -17.964323   -5.753746
  67 H     1.0000    0     1.008   22.000339  -17.371136   -2.549867
  68 H     1.0000    0     1.008   25.196416  -16.991804   -3.552768
  69 H     1.0000    0     1.008   20.053141  -31.536274   -4.812708
  70 H     1.0000    0     1.008   22.056842  -33.004082   -2.540577
  71 H     1.0000    0     1.008   19.330221  -31.310344   -1.520795
  72 H     1.0000    0     1.008   13.656247  -15.146374    4.185819
  73 H     1.0000    0     1.008   14.364758  -11.977314    5.059554
  74 H     1.0000    0     1.008   12.082020  -12.582188    2.660161
  75 H     1.0000    0     1.008   27.294266  -21.735275   -0.690257
  76 H     1.0000    0     1.008   13.696332  -22.990676    2.926267
  77 H     1.0000    0     1.008    9.275880  -24.461020    0.219442
  78 H     1.0000    0     1.008   16.450935  -18.666789    3.670329
  79 H     1.0000    0     1.008   23.279806  -15.826464    4.620055
  80 H     1.0000    0     1.008   22.915277  -15.066991    1.350619
  81 H     1.0000    0     1.008   20.966300  -13.577477    3.656623

--------------------------------
INTERNAL COORDINATES (ANGSTROEM)
--------------------------------
 C      0   0   0     0.000000000000     0.00000000     0.00000000
 C      1   0   0     1.399588107097     0.00000000     0.00000000
 C      2   1   0     1.399643901428   119.85673180     0.00000000
 C      3   2   1     1.388920309368   119.48781744   358.50046148
 C      4   3   2     1.386103667089   120.59849931     0.09754463
 C      1   2   3     1.386927643477   119.73708064     1.71225800
 C      5   4   3     1.503246107795   120.90818308   183.54808314
 C      7   5   4     1.538613700248   109.70063455    98.93555252
 C      8   7   5     1.543436071376   115.18528532   164.08446485
 C      9   8   7     1.538403117467   112.64938898   303.68603528
 C     10   9   8     1.503472643360   113.18148521   309.82689328
 C     11  10   9     1.394344542395   119.81588044   299.29950275
 C     12  11  10     1.381531574184   120.85999732   180.13096241
 C     13  12  11     1.404998039767   119.75010082     0.12382820
 C     14  13  12     1.382256281262   119.39360696     0.49751029
 C     11  10   9     1.384626402600   121.36531308   120.09845036
 C      8   7   5     1.537567656872   108.79071684   289.42003015
 C      9   8   7     1.538516468493   113.49015884    70.70564942
 O      3   2   1     1.364242141148   115.76992504   178.63547967
 O      1   2   3     1.364480778845   115.35156139   181.22944738
 O      2   1   3     1.378744530849   118.59212350   176.48718927
 O     14  13  12     1.360978667632   120.50317874   179.94541681
 O     13  12  11     1.378982141867   125.58776656   179.42825159
 C     21   2   1     1.427012037883   116.42550282   115.01206641
 C     24  21   2     1.548062065183   109.70563480   280.20090278
 C     25  24  21     1.520187887052   111.85098422    72.26436550
 C     24  21   2     1.531935347807   105.24541893   160.17675485
 O     27  24  21     1.401678718460   111.12099710   295.42979785
 C     26  25  24     1.390952080063   118.87802021   227.85907191
 C     29  26  25     1.381254498855   120.59461741   178.47088205
 C     30  29  26     1.400802661261   119.72131445   359.66392888
 C     31  30  29     1.382259543362   119.65260378     3.20374146
 C     32  31  30     1.384782901152   120.11410683   357.25069081
 C     20   1   2     1.407750462265   118.14134793   174.79478463
 C     19   3   2     1.406780075616   118.73706874   180.95900272
 C     23  13  12     1.405577368522   118.16894282   353.79509594
 O     25  24  21     1.402113994700   109.15453593   307.51371670
 O     17   8   7     1.408242563780   113.41249599   182.63195411
 O     18   9   8     1.405791380693   112.74931061    92.18317349
 O     30  29  26     1.377201877779   125.53088726   178.71031532
 O     31  30  29     1.370645003071   119.40806950   181.97742862
 C     40  30  29     1.409031145536   117.78943806   343.84319220
 H      4   3   2     1.077906595345   120.34287097   179.91057461
 H      6   1   2     1.077971240496   120.74281796   178.82709772
 H      7   5   4     1.090615947439   110.24646987   337.55534921
 H      7   5   4     1.088039143915   108.89614268   218.61397857
 H      8   7   5     1.096299269016   107.12995648    45.64834281
 H      9   8   7     1.096337692361   106.11772742   186.49175825
 H     10   9   8     1.090859502721   109.86880301    72.93366824
 H     10   9   8     1.093575683692   107.65258847   189.47943687
 H     12  11  10     1.078540176304   118.81594764   359.48030274
 H     15  14  13     1.078407994112   118.47917356   178.65979027
 H     16  11  10     1.080024671228   120.02415031     0.78562855
 H     17   8   7     1.097260973500   108.44198403    59.39773334
 H     17   8   7     1.093489244071   110.36995579   301.35863495
 H     18   9   8     1.094203422581   110.08635004   209.55776303
 H     18   9   8     1.100249783503   110.37208171   328.03536933
 H     22  14  13     0.966478006450   107.47422158   356.03800341
 H     24  21   2     1.093887800174   110.29469223    42.72306521
 H     25  24  21     1.097751967328   108.31292890   192.23858027
 H     27  24  21     1.091776787718   110.19410695   177.10949393
 H     27  24  21     1.098672950732   108.51913423    57.69962795
 H     28  27  24     0.966094814619   106.87842418    45.17484213
 H     29  26  25     1.077933442686   118.49107116   358.26475046
 H     32  31  30     1.078383267898   119.11413053   175.93580375
 H     33  32  31     1.078604915628   118.89633964   178.98659127
 H     34  20   1     1.093646364892   111.23812178   299.79594881
 H     34  20   1     1.093503537411   111.79502145    61.98801322
 H     34  20   1     1.089055975890   105.73865704   181.25073228
 H     35  19   3     1.094184778630   111.49781824    60.78630550
 H     35  19   3     1.088802679390   105.40092108   179.36428478
 H     35  19   3     1.094720904743   111.55061466   298.01925045
 H     36  23  13     1.094866372827   111.87595562    64.64995629
 H     36  23  13     1.089076433986   105.75662351   183.35914556
 H     36  23  13     1.094210184323   111.33465076   302.05399998
 H     37  25  24     0.972139988983   106.19394176    51.06257408
 H     38  17   8     0.969543270022   107.89961166   296.35723703
 H     39  18   9     0.968662066477   108.61204061   319.10661079
 H     41  31  30     0.968391953358   106.42805502   358.29812096
 H     42  40  30     1.093295654242   111.14869917   313.69425794
 H     42  40  30     1.093545972139   111.59624206    76.33506956
 H     42  40  30     1.089241035299   105.56422505   195.10690501

---------------------------
INTERNAL COORDINATES (A.U.)
---------------------------
 C      0   0   0     0.000000000000     0.00000000     0.00000000
 C      1   0   0     2.644838222707     0.00000000     0.00000000
 C      2   1   0     2.644943658711   119.85673180     0.00000000
 C      3   2   1     2.624679006546   119.48781744   358.50046148
 C      4   3   2     2.619356324023   120.59849931     0.09754463
 C      1   2   3     2.620913413737   119.73708064     1.71225800
 C      5   4   3     2.840723455616   120.90818308   183.54808314
 C      7   5   4     2.907558519369   109.70063455    98.93555252
 C      8   7   5     2.916671480116   115.18528532   164.08446485
 C      9   8   7     2.907160575583   112.64938898   303.68603528
 C     10   9   8     2.841151545794   113.18148521   309.82689328
 C     11  10   9     2.634929321455   119.81588044   299.29950275
 C     12  11  10     2.610716320572   120.85999732   180.13096241
 C     13  12  11     2.655061513856   119.75010082     0.12382820
 C     14  13  12     2.612085818478   119.39360696     0.49751029
 C     11  10   9     2.616564698711   121.36531308   120.09845036
 C      8   7   5     2.905581783863   108.79071684   289.42003015
 C      9   8   7     2.907374777980   113.49015884    70.70564942
 O      3   2   1     2.578044027124   115.76992504   178.63547967
 O      1   2   3     2.578494987017   115.35156139   181.22944738
 O      2   1   3     2.605449571946   118.59212350   176.48718927
 O     14  13  12     2.571876955933   120.50317874   179.94541681
 O     13  12  11     2.605898591696   125.58776656   179.42825159
 C     21   2   1     2.696661941408   116.42550282   115.01206641
 C     24  21   2     2.925413341508   109.70563480   280.20090278
 C     25  24  21     2.872738778632   111.85098422    72.26436550
 C     24  21   2     2.894938262228   105.24541893   160.17675485
 O     27  24  21     2.648788905636   111.12099710   295.42979785
 C     26  25  24     2.628518496728   118.87802021   227.85907191
 C     29  26  25     2.610192724082   120.59461741   178.47088205
 C     30  29  26     2.647133397451   119.72131445   359.66392888
 C     31  30  29     2.612091982953   119.65260378     3.20374146
 C     32  31  30     2.616860438114   120.11410683   357.25069081
 C     20   1   2     2.660262838582   118.14134793   174.79478463
 C     19   3   2     2.658429073572   118.73706874   180.95900272
 C     23  13  12     2.656156286545   118.16894282   353.79509594
 O     25  24  21     2.649611458522   109.15453593   307.51371670
 O     17   8   7     2.661192775675   113.41249599   182.63195411
 O     18   9   8     2.656560710937   112.74931061    92.18317349
 O     30  29  26     2.602534380124   125.53088726   178.71031532
 O     31  30  29     2.590143682632   119.40806950   181.97742862
 C     40  30  29     2.662682979228   117.78943806   343.84319220
 H      4   3   2     2.036948263149   120.34287097   179.91057461
 H      6   1   2     2.037070424782   120.74281796   178.82709772
 H      7   5   4     2.060965457947   110.24646987   337.55534921
 H      7   5   4     2.056096004986   108.89614268   218.61397857
 H      8   7   5     2.071705379258   107.12995648    45.64834281
 H      9   8   7     2.071777988857   106.11772742   186.49175825
 H     10   9   8     2.061425710728   109.86880301    72.93366824
 H     10   9   8     2.066558548894   107.65258847   189.47943687
 H     12  11  10     2.038145557645   118.81594764   359.48030274
 H     15  14  13     2.037895769503   118.47917356   178.65979027
 H     16  11  10     2.040950846499   120.02415031     0.78562855
 H     17   8   7     2.073522737355   108.44198403    59.39773334
 H     17   8   7     2.066395201683   110.36995579   301.35863495
 H     18   9   8     2.067744803478   110.08635004   209.55776303
 H     18   9   8     2.079170769728   110.37208171   328.03536933
 H     22  14  13     1.826378746648   107.47422158   356.03800341
 H     24  21   2     2.067148363566   110.29469223    42.72306521
 H     25  24  21     2.074450581223   108.31292890   192.23858027
 H     27  24  21     2.063159128159   110.19410695   177.10949393
 H     27  24  21     2.076190987630   108.51913423    57.69962795
 H     28  27  24     1.825654619032   106.87842418    45.17484213
 H     29  26  25     2.036998997271   118.49107116   358.26475046
 H     32  31  30     2.037849043730   119.11413053   175.93580375
 H     33  32  31     2.038267897238   118.89633964   178.98659127
 H     34  20   1     2.066692117004   111.23812178   299.79594881
 H     34  20   1     2.066422212180   111.79502145    61.98801322
 H     34  20   1     2.058017538942   105.73865704   181.25073228
 H     35  19   3     2.067709571516   111.49781824    60.78630550
 H     35  19   3     2.057538877926   105.40092108   179.36428478
 H     35  19   3     2.068722703043   111.55061466   298.01925045
 H     36  23  13     2.068997597882   111.87595562    64.64995629
 H     36  23  13     2.058056199140   105.75662351   183.35914556
 H     36  23  13     2.067757581317   111.33465076   302.05399998
 H     37  25  24     1.837078343011   106.19394176    51.06257408
 H     38  17   8     1.832171255328   107.89961166   296.35723703
 H     39  18   9     1.830506021960   108.61204061   319.10661079
 H     41  31  30     1.829995582140   106.42805502   358.29812096
 H     42  40  30     2.066029369924   111.14869917   313.69425794
 H     42  40  30     2.066502402195   111.59624206    76.33506956
 H     42  40  30     2.058367250545   105.56422505   195.10690501

---------------------
BASIS SET INFORMATION
---------------------
There are 3 groups of distinct atoms

 Group   1 Type C   : 11s6p2d1f contracted to 5s3p2d1f pattern {62111/411/11/1}
 Group   2 Type O   : 11s6p2d1f contracted to 5s3p2d1f pattern {62111/411/11/1}
 Group   3 Type H   : 5s1p contracted to 3s1p pattern {311/1}

Atom   0C    basis set group =>   1
Atom   1C    basis set group =>   1
Atom   2C    basis set group =>   1
Atom   3C    basis set group =>   1
Atom   4C    basis set group =>   1
Atom   5C    basis set group =>   1
Atom   6C    basis set group =>   1
Atom   7C    basis set group =>   1
Atom   8C    basis set group =>   1
Atom   9C    basis set group =>   1
Atom  10C    basis set group =>   1
Atom  11C    basis set group =>   1
Atom  12C    basis set group =>   1
Atom  13C    basis set group =>   1
Atom  14C    basis set group =>   1
Atom  15C    basis set group =>   1
Atom  16C    basis set group =>   1
Atom  17C    basis set group =>   1
Atom  18O    basis set group =>   2
Atom  19O    basis set group =>   2
Atom  20O    basis set group =>   2
Atom  21O    basis set group =>   2
Atom  22O    basis set group =>   2
Atom  23C    basis set group =>   1
Atom  24C    basis set group =>   1
Atom  25C    basis set group =>   1
Atom  26C    basis set group =>   1
Atom  27O    basis set group =>   2
Atom  28C    basis set group =>   1
Atom  29C    basis set group =>   1
Atom  30C    basis set group =>   1
Atom  31C    basis set group =>   1
Atom  32C    basis set group =>   1
Atom  33C    basis set group =>   1
Atom  34C    basis set group =>   1
Atom  35C    basis set group =>   1
Atom  36O    basis set group =>   2
Atom  37O    basis set group =>   2
Atom  38O    basis set group =>   2
Atom  39O    basis set group =>   2
Atom  40O    basis set group =>   2
Atom  41C    basis set group =>   1
Atom  42H    basis set group =>   3
Atom  43H    basis set group =>   3
Atom  44H    basis set group =>   3
Atom  45H    basis set group =>   3
Atom  46H    basis set group =>   3
Atom  47H    basis set group =>   3
Atom  48H    basis set group =>   3
Atom  49H    basis set group =>   3
Atom  50H    basis set group =>   3
Atom  51H    basis set group =>   3
Atom  52H    basis set group =>   3
Atom  53H    basis set group =>   3
Atom  54H    basis set group =>   3
Atom  55H    basis set group =>   3
Atom  56H    basis set group =>   3
Atom  57H    basis set group =>   3
Atom  58H    basis set group =>   3
Atom  59H    basis set group =>   3
Atom  60H    basis set group =>   3
Atom  61H    basis set group =>   3
Atom  62H    basis set group =>   3
Atom  63H    basis set group =>   3
Atom  64H    basis set group =>   3
Atom  65H    basis set group =>   3
Atom  66H    basis set group =>   3
Atom  67H    basis set group =>   3
Atom  68H    basis set group =>   3
Atom  69H    basis set group =>   3
Atom  70H    basis set group =>   3
Atom  71H    basis set group =>   3
Atom  72H    basis set group =>   3
Atom  73H    basis set group =>   3
Atom  74H    basis set group =>   3
Atom  75H    basis set group =>   3
Atom  76H    basis set group =>   3
Atom  77H    basis set group =>   3
Atom  78H    basis set group =>   3
Atom  79H    basis set group =>   3
Atom  80H    basis set group =>   3
Atom  81H    basis set group =>   3
---------------------------------
AUXILIARY/J BASIS SET INFORMATION
---------------------------------
There are 3 groups of distinct atoms

 Group   1 Type C   : 12s5p4d2f1g contracted to 6s4p3d1f1g pattern {711111/2111/211/2/1}
 Group   2 Type O   : 12s5p4d2f1g contracted to 6s4p3d1f1g pattern {711111/2111/211/2/1}
 Group   3 Type H   : 5s2p1d contracted to 3s1p1d pattern {311/2/1}

Atom   0C    basis set group =>   1
Atom   1C    basis set group =>   1
Atom   2C    basis set group =>   1
Atom   3C    basis set group =>   1
Atom   4C    basis set group =>   1
Atom   5C    basis set group =>   1
Atom   6C    basis set group =>   1
Atom   7C    basis set group =>   1
Atom   8C    basis set group =>   1
Atom   9C    basis set group =>   1
Atom  10C    basis set group =>   1
Atom  11C    basis set group =>   1
Atom  12C    basis set group =>   1
Atom  13C    basis set group =>   1
Atom  14C    basis set group =>   1
Atom  15C    basis set group =>   1
Atom  16C    basis set group =>   1
Atom  17C    basis set group =>   1
Atom  18O    basis set group =>   2
Atom  19O    basis set group =>   2
Atom  20O    basis set group =>   2
Atom  21O    basis set group =>   2
Atom  22O    basis set group =>   2
Atom  23C    basis set group =>   1
Atom  24C    basis set group =>   1
Atom  25C    basis set group =>   1
Atom  26C    basis set group =>   1
Atom  27O    basis set group =>   2
Atom  28C    basis set group =>   1
Atom  29C    basis set group =>   1
Atom  30C    basis set group =>   1
Atom  31C    basis set group =>   1
Atom  32C    basis set group =>   1
Atom  33C    basis set group =>   1
Atom  34C    basis set group =>   1
Atom  35C    basis set group =>   1
Atom  36O    basis set group =>   2
Atom  37O    basis set group =>   2
Atom  38O    basis set group =>   2
Atom  39O    basis set group =>   2
Atom  40O    basis set group =>   2
Atom  41C    basis set group =>   1
Atom  42H    basis set group =>   3
Atom  43H    basis set group =>   3
Atom  44H    basis set group =>   3
Atom  45H    basis set group =>   3
Atom  46H    basis set group =>   3
Atom  47H    basis set group =>   3
Atom  48H    basis set group =>   3
Atom  49H    basis set group =>   3
Atom  50H    basis set group =>   3
Atom  51H    basis set group =>   3
Atom  52H    basis set group =>   3
Atom  53H    basis set group =>   3
Atom  54H    basis set group =>   3
Atom  55H    basis set group =>   3
Atom  56H    basis set group =>   3
Atom  57H    basis set group =>   3
Atom  58H    basis set group =>   3
Atom  59H    basis set group =>   3
Atom  60H    basis set group =>   3
Atom  61H    basis set group =>   3
Atom  62H    basis set group =>   3
Atom  63H    basis set group =>   3
Atom  64H    basis set group =>   3
Atom  65H    basis set group =>   3
Atom  66H    basis set group =>   3
Atom  67H    basis set group =>   3
Atom  68H    basis set group =>   3
Atom  69H    basis set group =>   3
Atom  70H    basis set group =>   3
Atom  71H    basis set group =>   3
Atom  72H    basis set group =>   3
Atom  73H    basis set group =>   3
Atom  74H    basis set group =>   3
Atom  75H    basis set group =>   3
Atom  76H    basis set group =>   3
Atom  77H    basis set group =>   3
Atom  78H    basis set group =>   3
Atom  79H    basis set group =>   3
Atom  80H    basis set group =>   3
Atom  81H    basis set group =>   3
--------------------------------------------------------------------------
WARNING: There was an error initializing an OpenFabrics device.

  Local host:   c03b01n02
  Local device: mlx5_0
--------------------------------------------------------------------------
--------------------------------------------------------------------------
WARNING: There is at least one non-excluded one OpenFabrics device found,
but there are no active ports detected (or Open MPI was unable to use
them).  This is most certainly not what you wanted.  Check your
cables, subnet manager configuration, etc.  The openib BTL will be
ignored for this job.

  Local host: c03b01n02
--------------------------------------------------------------------------
[c03b01n02:2342860] 60 more processes have sent help message help-mpi-btl-openib.txt / error in device init
[c03b01n02:2342860] Set MCA parameter "orte_base_help_aggregate" to 0 to see all help / error messages
[c03b01n02:2342860] 2 more processes have sent help message help-mpi-btl-openib.txt / no active ports found


           ************************************************************
           *        Program running with 64 parallel MPI-processes    *
           *              working on a common directory               *
           ************************************************************
------------------------------------------------------------------------------
                             ORCA STARTUP CALCULATIONS
                           -- RI-GTO INTEGRALS CHOSEN --
------------------------------------------------------------------------------
------------------------------------------------------------------------------
                   ___                                                        
                  /   \      - P O W E R E D   B Y -                         
                 /     \                                                     
                 |  |  |   _    _      __       _____    __    __             
                 |  |  |  | |  | |    /  \     |  _  \  |  |  /  |          
                  \  \/   | |  | |   /    \    | | | |  |  | /  /          
                 / \  \   | |__| |  /  /\  \   | |_| |  |  |/  /          
                |  |  |   |  __  | /  /__\  \  |    /   |      \           
                |  |  |   | |  | | |   __   |  |    \   |  |\   \          
                \     /   | |  | | |  |  |  |  | |\  \  |  | \   \       
                 \___/    |_|  |_| |__|  |__|  |_| \__\ |__|  \__/        
                                                                              
                      - O R C A' S   B I G   F R I E N D -                    
                                      &                                       
                       - I N T E G R A L  F E E D E R -                       
                                                                              
 v1 FN, 2020, v2 2021, v3 2022-2024                                           
------------------------------------------------------------------------------


----------------------
SHARK INTEGRAL PACKAGE
----------------------

Number of atoms                             ...     82
Number of basis functions                   ...   1542
Number of shells                            ...    622
Maximum angular momentum                    ...      3
Integral batch strategy                     ... SHARK/LIBINT Hybrid
RI-J (if used) integral strategy            ... SPLIT-RIJ (Revised 2003 algorithm where possible)
Printlevel                                  ...      1
Contraction scheme used                     ... SEGMENTED contraction
Prescreening option                         ... SCHWARTZ
   Thresh                                   ... 2.500e-11
   Tcut                                     ... 2.500e-12
   Tpresel                                  ... 2.500e-12 
Coulomb Range Separation                    ... NOT USED
Exchange Range Separation                   ... NOT USED
Multipole approximations                    ... NOT USED
Finite Nucleus Model                        ... NOT USED
CABS basis                                  ... NOT available
Auxiliary Coulomb fitting basis             ... AVAILABLE
   # of basis functions in Aux-J            ...   2498
   # of shells in Aux-J                     ...    830
   Maximum angular momentum in Aux-J        ...      4
Auxiliary J/K fitting basis                 ... NOT available
Auxiliary Correlation fitting basis         ... NOT available
Auxiliary 'external' fitting basis          ... NOT available

Checking pre-screening integrals            ... done (  0.3 sec) Dimension = 622
   => SHARK Basis and OBASIS are compatible. Storing Pre-screening
Shell pair information
Shell pair cut-off parameter TPreSel        ...   2.5e-12
Total number of shell pairs                 ...    193753
Shell pairs after pre-screening             ...    117683
Total number of primitive shell pairs       ...    584784
Primitive shell pairs kept                  ...    222138
          la=0 lb=0:  32741 shell pairs
          la=1 lb=0:  35114 shell pairs
          la=1 lb=1:   9500 shell pairs
          la=2 lb=0:  15978 shell pairs
          la=2 lb=1:   8766 shell pairs
          la=2 lb=2:   2001 shell pairs
          la=3 lb=0:   7284 shell pairs
          la=3 lb=1:   4082 shell pairs
          la=3 lb=2:   1790 shell pairs
          la=3 lb=3:    427 shell pairs

Checking whether 4 symmetric matrices of dimension 1542 fit in memory
:Max Core in MB      =   6000.00
 MB in use           =    140.97
 MB left             =   5859.03
 MB needed           =     36.31
 Data fit in memory  = YES
Calculating RI/J V-Matrix + Cholesky decomp.... done (  3.1 sec)
Calculating Nuclear repulsion               ... done (  0.0 sec) ENN=   5799.997543086673 Eh

Diagonalization of the overlap matrix:
Smallest eigenvalue                        ... 2.873e-06
Time for diagonalization                   ...   32.776 sec
Threshold for overlap eigenvalues          ... 1.000e-07
Number of eigenvalues below threshold      ... 0
Time for construction of square roots      ...    2.116 sec
Total time needed                          ...   35.197 sec

-------------------
DFT GRID GENERATION
-------------------

General Integration Accuracy     IntAcc      ... 4.388
Radial Grid Type                 RadialGrid  ... OptM3 with GC (2021)
Angular Grid (max. ang.)         AngularGrid ... 4 (Lebedev-302)
Angular grid pruning method      GridPruning ... 4 (adaptive)
Weight generation scheme         WeightScheme... mBecke (2022)
Basis function cutoff            BFCut       ... 1.0000e-11
Integration weight cutoff        WCut        ... 1.0000e-14
Partially contracted basis set               ... off
Rotationally invariant grid construction     ... off
Angular grids for H and He will be reduced by one unit

Total number of grid points                  ...   373322
Total number of batches                      ...     5875
Average number of points per batch           ...       63
Average number of grid points per atom       ...     4553

--------------------
COSX GRID GENERATION
--------------------

GRIDX 1
-------
General Integration Accuracy     IntAcc      ... 3.816
Radial Grid Type                 RadialGrid  ... OptM3 with GC (2021)
Angular Grid (max. ang.)         AngularGrid ... 1 (Lebedev-50)
Angular grid pruning method      GridPruning ... 4 (adaptive)
Weight generation scheme         WeightScheme... mBecke (2022)
Basis function cutoff            BFCut       ... 1.0000e-11
Integration weight cutoff        WCut        ... 1.0000e-14
Partially contracted basis set               ... on
Rotationally invariant grid construction     ... off
Angular grids for H and He will be reduced by one unit

Total number of grid points                  ...    47208
Total number of batches                      ...      410
Average number of points per batch           ...      115
Average number of grid points per atom       ...      576
UseSFitting                                  ... on

GRIDX 2
-------
General Integration Accuracy     IntAcc      ... 4.020
Radial Grid Type                 RadialGrid  ... OptM3 with GC (2021)
Angular Grid (max. ang.)         AngularGrid ... 2 (Lebedev-110)
Angular grid pruning method      GridPruning ... 4 (adaptive)
Weight generation scheme         WeightScheme... mBecke (2022)
[...]
B( 35-C , 74-H ) :   0.9671 B( 36-O , 75-H ) :   0.8454 B( 37-O , 76-H ) :   0.8436 
B( 38-O , 77-H ) :   0.8446 B( 39-O , 41-C ) :   0.9031 B( 40-O , 78-H ) :   0.8365 
B( 41-C , 79-H ) :   0.9652 B( 41-C , 80-H ) :   0.9643 B( 41-C , 81-H ) :   0.9647 


-------
TIMINGS
-------

Total SCF time: 0 days 0 hours 3 min 56 sec 

Total time                  ....     236.961 sec
Sum of individual times     ....     205.737 sec  ( 86.8%)

SCF preparation             ....      16.363 sec  (  6.9%)
Fock matrix formation       ....     101.695 sec  ( 42.9%)
  Startup                   ....       1.973 sec  (  1.9% of F)
  Split-RI-J                ....       9.368 sec  (  9.2% of F)
  Chain of spheres X        ....      56.583 sec  ( 55.6% of F)
  XC integration            ....      26.435 sec  ( 26.0% of F)
    XC Preparation          ....       0.000 sec  (  0.0% of XC)
    Basis function eval.    ....       0.387 sec  (  1.5% of XC)
    Density eval.           ....       0.574 sec  (  2.2% of XC)
    XC-Functional eval.     ....       0.020 sec  (  0.1% of XC)
    XC-Potential eval.      ....       0.379 sec  (  1.4% of XC)
  CPCM terms                ....       9.238 sec  (  9.1% of F)
Diagonalization             ....       0.000 sec  (  0.0%)
Density matrix formation    ....       5.831 sec  (  2.5%)
Total Energy calculation    ....       4.317 sec  (  1.8%)
Population analysis         ....       5.190 sec  (  2.2%)
Orbital Transformation      ....       9.693 sec  (  4.1%)
Orbital Orthonormalization  ....       0.000 sec  (  0.0%)
DIIS solution               ....      14.980 sec  (  6.3%)
SOSCF solution              ....      47.668 sec  ( 20.1%)
Finished LeanSCF after 239.3 sec

Maximum memory used throughout the entire LEANSCF-calculation: 347.3 MB
--------------------------------------------------------------------------
WARNING: There was an error initializing an OpenFabrics device.

  Local host:   c03b01n02
  Local device: mlx5_0
--------------------------------------------------------------------------
--------------------------------------------------------------------------
WARNING: There is at least one non-excluded one OpenFabrics device found,
but there are no active ports detected (or Open MPI was unable to use
them).  This is most certainly not what you wanted.  Check your
cables, subnet manager configuration, etc.  The openib BTL will be
ignored for this job.

  Local host: c03b01n02
--------------------------------------------------------------------------


           ************************************************************
           *        Program running with 64 parallel MPI-processes    *
           *              working on a common directory               *
           ************************************************************

------------------------------------------------------------------------------
                         ORCA PROPERTY INTEGRAL CALCULATIONS
------------------------------------------------------------------------------

GBWName                                   ... opt-conf-3.gbw
Number of atoms                           ...     82
Number of basis functions                 ...   1542
Max core memory                           ...   6000 MB

Dipole integrals                          ... YES
Quadrupole integrals                      ...  NO
Linear momentum integrals                 ...  NO
Angular momentum integrals                ...  NO
Higher moments length integrals           ...  NO
Higher moments velocity integrals         ...  NO
Kinetic energy integrals                  ...  NO
GIAO right hand sides                     ...  NO
GIAO dipole derivative integrals          ...  NO
SOC integrals                             ...  NO
EPR diamagnetic integrals (GIAO)          ...  NO
EPR gauge integrals                       ...  NO
Field gradient integrals                  ...  NO (   0 nuclei)
Spin-dipole/Fermi contact integrals       ...  NO (   0 nuclei)
Contact density integrals                 ...  NO (   0 nuclei)
Nucleus-orbit integrals                   ...  NO (   0 nuclei)
Geometric perturbations                   ... YES (  82 nuclei)

Choice of electric origin   ... Center of mass
Position of electric origin ... ( 19.1801,-21.4646, -0.8317) 
Choice of magnetic origin   ... GIAO
Position of magnetic origin ... (  0.0000,  0.0000,  0.0000) 

Calculating integrals                     ... Electric Dipole (Length)     done (  0.4 sec)
Calculating integrals                     ... Geometrical perturbation right hand sides
[c03b01n02:2420234] 58 more processes have sent help message help-mpi-btl-openib.txt / error in device init
[c03b01n02:2420234] Set MCA parameter "orte_base_help_aggregate" to 0 to see all help / error messages
[c03b01n02:2420234] 4 more processes have sent help message help-mpi-btl-openib.txt / no active ports found

-----------------------
GEOMETRIC PERTURBATIONS (82 nuclei)
-----------------------

MaxCore                            ...   6000 MB
Number of batches                  ...      5

BATCH   0: Atoms    0 -   18 ( 57 perturbations)
   => H(core) and overlap derivative integrals     ... done (     7.3 sec)
   => Making and storing internal U-coefficients   ... done (     0.2 sec)
   => RI-J derivative integrals                    ... done (    53.2 sec)
   => RI-J response operators                      ... done (     8.9 sec)
   => Chain of spheres derivative integrals        ... done (    34.1 sec)
   => Chain of spheres response operator           ... done (    95.3 sec)
   => XC derivative integrals                      ... done (    33.3 sec)
   => XC response operators                        ... done (    18.1 sec)
   => CPCM derivative integrals                    ... done (    38.5 sec)
   => CPCM response operators                      ... done (    72.7 sec)
   => Completing and storing right hand sides      ... done (     0.1 sec)
BATCH   1: Atoms   19 -   37 ( 57 perturbations)
   => H(core) and overlap derivative integrals     ... done (     8.5 sec)
   => Making and storing internal U-coefficients   ... done (     0.1 sec)
   => RI-J derivative integrals                    ... done (    46.3 sec)
   => RI-J response operators                      ... done (     7.3 sec)
   => Chain of spheres derivative integrals        ... done (    28.3 sec)
   => Chain of spheres response operator           ... done (    92.9 sec)
   => XC derivative integrals                      ... done (    31.6 sec)
   => XC response operators                        ... done (    17.2 sec)
   => CPCM derivative integrals                    ... done (    39.9 sec)
   => CPCM response operators                      ... done (    72.3 sec)
   => Completing and storing right hand sides      ... done (     0.0 sec)
BATCH   2: Atoms   38 -   56 ( 57 perturbations)
   => H(core) and overlap derivative integrals     ... done (     8.9 sec)
   => Making and storing internal U-coefficients   ... done (     0.1 sec)
   => RI-J derivative integrals                    ... done (    47.3 sec)
   => RI-J response operators                      ... done (     7.3 sec)
   => Chain of spheres derivative integrals        ... done (    19.2 sec)
   => Chain of spheres response operator           ... done (    87.8 sec)
   => XC derivative integrals                      ... done (    23.4 sec)
   => XC response operators                        ... done (    15.0 sec)
   => CPCM derivative integrals                    ... done (    43.1 sec)
   => CPCM response operators                      ... done (    73.9 sec)
   => Completing and storing right hand sides      ... done (     0.0 sec)
BATCH   3: Atoms   57 -   75 ( 57 perturbations)
   => H(core) and overlap derivative integrals     ... done (     7.3 sec)
   => Making and storing internal U-coefficients   ... done (     0.1 sec)
   => RI-J derivative integrals                    ... done (    46.0 sec)
   => RI-J response operators                      ... done (     7.8 sec)
   => Chain of spheres derivative integrals        ... done (    16.7 sec)
   => Chain of spheres response operator           ... done (    82.4 sec)
   => XC derivative integrals                      ... done (    19.8 sec)
   => XC response operators                        ... done (    14.8 sec)
   => CPCM derivative integrals                    ... done (    48.8 sec)
   => CPCM response operators                      ... done (    80.0 sec)
   => Completing and storing right hand sides      ... done (     0.0 sec)
BATCH   4: Atoms   76 -   81 ( 18 perturbations)
   => H(core) and overlap derivative integrals     ... done (     2.9 sec)
   => Making and storing internal U-coefficients   ... done (     0.1 sec)
   => RI-J derivative integrals                    ... done (    17.4 sec)
   => RI-J response operators                      ... done (     3.8 sec)
   => Chain of spheres derivative integrals        ... done (     7.9 sec)
   => Chain of spheres response operator           ... done (    22.7 sec)
   => XC derivative integrals                      ... done (    13.6 sec)
   => XC response operators                        ... done (     8.5 sec)
   => CPCM derivative integrals                    ... done (    27.4 sec)
   => CPCM response operators                      ... done (    39.6 sec)
   => Completing and storing right hand sides      ... done (     0.0 sec)
   => Total time for right hand sides = 1354.7 sec

  geometrical perturbations done (1355.2 sec)

Property integrals calculated in 1356.0 sec

Maximum memory used throughout the entire PROPINT-calculation: 4357.8 MB


-------------------------------------------------------------------------------
                          DFT DISPERSION CORRECTION                            
                                                                               
                                DFTD4 V3.4.0                                   
-------------------------------------------------------------------------------
The B3LYP functional is recognized
Active option DFTDOPT                   ...         5   

-------------------------   ----------------
Dispersion correction           -0.195555146
-------------------------   ----------------


-------------------------   --------------------
FINAL SINGLE POINT ENERGY     -2032.640408668682
-------------------------   --------------------

                                *** OPTIMIZATION RUN DONE ***

--------------------------------------------------------------------------
WARNING: There was an error initializing an OpenFabrics device.

  Local host:   c03b01n02
  Local device: mlx5_0
--------------------------------------------------------------------------
--------------------------------------------------------------------------
WARNING: There is at least one non-excluded one OpenFabrics device found,
but there are no active ports detected (or Open MPI was unable to use
them).  This is most certainly not what you wanted.  Check your
cables, subnet manager configuration, etc.  The openib BTL will be
ignored for this job.

  Local host: c03b01n02
--------------------------------------------------------------------------


           ************************************************************
           *        Program running with 64 parallel MPI-processes    *
           *              working on a common directory               *
           ************************************************************
------------------------------------------------------------------------------
                            ORCA SCF RESPONSE CALCULATION
------------------------------------------------------------------------------

GBWName                                 ... opt-conf-3.gbw
Number of atoms                         ...     82
Number of basis functions               ...   1542
Max core memory                         ...   6000 MB

Electric field perturbation             ...  NO
Quadrupolar field perturbation          ...  NO
Magnetic field perturbation (no GIAO)   ...  NO
Magnetic field perturbation (with GIAO) ...  NO
Linear momentum (velocity) perturbation ...  NO
Spin-orbit coupling perturbation        ...  NO
Choice of electric origin               ... Center of mass
Position of electric origin             ...    19.180082   -21.464553    -0.831657
Choice of magnetic origin               ... GIAO
Position of magnetic origin             ...     0.000000     0.000000     0.000000
Nuclear geometric perturbations         ... YES ( 246 perturbations)
Nucleus-orbit perturbations             ...  NO (   0 perturbations)
Spin-dipole/Fermi contact perturbations ...  NO (   0 perturbations)

Total number of real perturbations      ...    246
Total number of imaginary perturbations ...      0
Total number of triplet perturbations   ...      0
Total number of SOC perturbations       ...      0

[c03b01n02:2420902] 59 more processes have sent help message help-mpi-btl-openib.txt / error in device init
[c03b01n02:2420902] Set MCA parameter "orte_base_help_aggregate" to 0 to see all help / error messages
[c03b01n02:2420902] 3 more processes have sent help message help-mpi-btl-openib.txt / no active ports found
Using XC Grid                  ... (opt-conf-3.grid_cpscf.tmp) 
Recalculating density on grid  ... (opt-conf-3.grho_cpscf0.tmp) done
Calculating the xc-kernel      ... (opt-conf-3.fxc_cpscf0.tmp) done

                                **********************
                                * REAL PERTURBATIONS *
                                **********************



-------------------
SHARK CP-SCF DRIVER
-------------------

Dimension of the orbital basis          ...   1542
Dimension of the CPSCF-problem          ... 217445
Number of operators                     ...      1
Max. number of iterations               ...    128
Convergence Tolerance                   ... 1.0e-04
Number of perturbations                 ...    246
Perturbation type                       ... REAL

----------------------------
POPLE LINEAR EQUATION SOLVER
----------------------------

  ITERATION   0:   ||err||_max =   4.4099e-01 ( 447.4 sec   0/246 done)
  ITERATION   1: [c03b01n02:2420922:0:2420922] Caught signal 11 (Segmentation fault: address not mapped to object at address (nil))
==== backtrace (tid:2420922) ====
 0 0x0000000000012cf0 __funlockfile()  :0
 1 0x0000000000002ce4 uct_knem_md_query()  ???:0
 2 0x0000000000044ffd ucp_rkey_pack_memh()  ???:0
 3 0x0000000000094444 ucp_tag_rndv_proto_rts_pack()  ???:0
 4 0x0000000000094748 ucp_tag_rndv_rts_progress()  ???:0
 5 0x000000000009933d ucp_tag_send_nbx()  ???:0
 6 0x0000000000005b19 mca_pml_ucx_send()  ???:0
 7 0x00000000000ad913 ompi_coll_base_sendrecv_actual()  ???:0
 8 0x00000000000b5699 ompi_coll_base_allreduce_intra_redscat_allgather()  ???:0
 9 0x0000000000005581 ompi_coll_tuned_allreduce_intra_dec_fixed()  ???:0
10 0x0000000000069f29 MPI_Allreduce()  ???:0
11 0x000000000462472c PAL_AllReduce<double>()  ???:0
12 0x00000000044b1f5b TIntegrationGrid::CalcSFitData()  ???:0
13 0x0000000000962701 SHARK_DRIVER_RPA_Sigma()  ???:0
14 0x0000000000918a79 TShark_Pople::BuildSigmaVectors()  ???:0
15 0x00000000047b0ad7 TLinEq_Solver::Solve()  ???:0
16 0x000000000091b174 SHARK_Solve_CPSCF_Equations()  ???:0
17 0x0000000000024a04 std::__shared_ptr<TMatrix<double>, (__gnu_cxx::_Lock_policy)2>::~__shared_ptr()  ???:0
18 0x000000000000a5eb ???()  /lustre1/jiangy/jiangy_liuxy/orca-6.1.0-f.0_linux_x86-64/bin/orca_scfresp_mpi:0
19 0x000000000003ad85 __libc_start_main()  ???:0
20 0x0000000000008e2b ???()  /lustre1/jiangy/jiangy_liuxy/orca-6.1.0-f.0_linux_x86-64/bin/orca_scfresp_mpi:0
=================================
[c03b01n02:2420922] *** Process received signal ***
[c03b01n02:2420922] Signal: Segmentation fault (11)
[c03b01n02:2420922] Signal code:  (-6)
[c03b01n02:2420922] Failing at address: 0x4db0024f0ba
[c03b01n02:2420922] [ 0] /lib64/libpthread.so.0(+0x12cf0)[0x7f5eaee57cf0]
[c03b01n02:2420922] [ 1] /lib64/ucx/libuct_knem.so.0(+0x2ce4)[0x7f5e9c0d6ce4]
[c03b01n02:2420922] [ 2] /lib64/libucp.so.0(ucp_rkey_pack_memh+0xed)[0x7f5e9d1d1ffd]
[c03b01n02:2420922] [ 3] /lib64/libucp.so.0(ucp_tag_rndv_proto_rts_pack+0xb4)[0x7f5e9d221444]
[c03b01n02:2420922] [ 4] /lib64/libucp.so.0(ucp_tag_rndv_rts_progress+0x288)[0x7f5e9d221748]
[c03b01n02:2420922] [ 5] /lib64/libucp.so.0(ucp_tag_send_nbx+0x3ed)[0x7f5e9d22633d]
[c03b01n02:2420922] [ 6] /home/jiangy/jiangy_liuxy/lustre1/openmpi-4.1.8-install/lib/openmpi/mca_pml_ucx.so(mca_pml_ucx_send+0xf9)[0x7f5e9d477b19]
[c03b01n02:2420922] [ 7] /home/jiangy/jiangy_liuxy/lustre1/openmpi-4.1.8-install/lib/libmpi.so.40(ompi_coll_base_sendrecv_actual+0x93)[0x7f5eb0383913]
[c03b01n02:2420922] [ 8] /home/jiangy/jiangy_liuxy/lustre1/openmpi-4.1.8-install/lib/libmpi.so.40(ompi_coll_base_allreduce_intra_redscat_allgather+0x469)[0x7f5eb038b699]
[c03b01n02:2420922] [ 9] /home/jiangy/jiangy_liuxy/lustre1/openmpi-4.1.8-install/lib/openmpi/mca_coll_tuned.so(ompi_coll_tuned_allreduce_intra_dec_fixed+0x41)[0x7f5e9a25a581]
[c03b01n02:2420922] [10] /home/jiangy/jiangy_liuxy/lustre1/openmpi-4.1.8-install/lib/libmpi.so.40(PMPI_Allreduce+0x169)[0x7f5eb033ff29]
[c03b01n02:2420922] [11] /home/jiangy/jiangy_liuxy/lustre1/orca-6.1.0-f.0_linux_x86-64/lib/liborca_tools_mpi-87695a6.so.6(_Z13PAL_AllReduceIdEvRT_mN3PAL8ReduceOpENS2_13CommunicatorsE+0x15c)[0x7f5ebdb1d72c]
[c03b01n02:2420922] [12] /home/jiangy/jiangy_liuxy/lustre1/orca-6.1.0-f.0_linux_x86-64/lib/liborca_tools_mpi-87695a6.so.6(_ZN16TIntegrationGrid12CalcSFitDataEPcRK6TBasisidR7TMatrixIdEbdbidi+0x124b)[0x7f5ebd9aaf5b]
[c03b01n02:2420922] [13] /home/jiangy/jiangy_liuxy/lustre1/orca-6.1.0-f.0_linux_x86-64/lib/liborca_tools_mpi-87695a6.so.6(_Z22SHARK_DRIVER_RPA_SigmaR13TORCAPointersR15TSharkInterfaceR13TResponseDataiiRK17TGeneralVectorSetPS5_S8_P7TVectorIlEb+0x3e11)[0x7f5eb9e5b701]
[c03b01n02:2420922] [14] /home/jiangy/jiangy_liuxy/lustre1/orca-6.1.0-f.0_linux_x86-64/lib/liborca_tools_mpi-87695a6.so.6(_ZN12TShark_Pople17BuildSigmaVectorsER17TGeneralVectorSetR7TVectorIbES1_+0xd9)[0x7f5eb9e11a79]
[c03b01n02:2420922] [15] /home/jiangy/jiangy_liuxy/lustre1/orca-6.1.0-f.0_linux_x86-64/lib/liborca_tools_mpi-87695a6.so.6(_ZN13TLinEq_Solver5SolveEv+0x9c7)[0x7f5ebdca9ad7]
[c03b01n02:2420922] [16] /home/jiangy/jiangy_liuxy/lustre1/orca-6.1.0-f.0_linux_x86-64/lib/liborca_tools_mpi-87695a6.so.6(_Z27SHARK_Solve_CPSCF_EquationsR13TORCAPointersR13TResponseDataR15TSharkInterface14SHARK_PertType18SHARK_LinEq_SolverdR17TGeneralVectorSetS8_+0x394)[0x7f5eb9e14174]
[c03b01n02:2420922] [17] /home/jiangy/jiangy_liuxy/lustre1/orca-6.1.0-f.0_linux_x86-64/bin/orca_scfresp_mpi(+0x24a04)[0x5556002c8a04]
[c03b01n02:2420922] [18] /home/jiangy/jiangy_liuxy/lustre1/orca-6.1.0-f.0_linux_x86-64/bin/orca_scfresp_mpi(+0xa5eb)[0x5556002ae5eb]
[c03b01n02:2420922] [19] /lib64/libc.so.6(__libc_start_main+0xe5)[0x7f5eaeabad85]
[c03b01n02:2420922] [20] /home/jiangy/jiangy_liuxy/lustre1/orca-6.1.0-f.0_linux_x86-64/bin/orca_scfresp_mpi(+0x8e2b)[0x5556002ace2b]
[c03b01n02:2420922] *** End of error message ***
--------------------------------------------------------------------------
Primary job  terminated normally, but 1 process returned
a non-zero exit code. Per user-direction, the job has been aborted.
--------------------------------------------------------------------------
--------------------------------------------------------------------------
mpirun noticed that process rank 8 with PID 2420922 on node c03b01n02 exited on signal 11 (Segmentation fault).
--------------------------------------------------------------------------

ORCA finished by error termination in SCF RESPONSE
Calling Command: mpirun -np 64  /home/jiangy/jiangy_liuxy/lustre1/orca-6.1.0-f.0_linux_x86-64/bin/orca_scfresp_mpi opt-conf-3.respinp.tmp opt-conf-3 1 opt-conf-3 
[file orca_tools/qcmsg.cpp, line 394]: 
  .... aborting the run

[file orca_tools/qcmsg.cpp, line 394]: 
  .... aborting the run

