
                                 *****************
                                 * O   R   C   A *
                                 *****************

                                            #,                                       
                                            ###                                      
                                            ####                                     
                                            #####                                    
                                            ######                                   
                                           ########,                                 
                                     ,,################,,,,,                         
                               ,,#################################,,                 
                          ,,##########################################,,             
                       ,#########################################, ''#####,          
                    ,#############################################,,   '####,        
                  ,##################################################,,,,####,       
                ,###########''''           ''''###############################       
              ,#####''   ,,,,##########,,,,          '''####'''          '####       
            ,##' ,,,,###########################,,,                        '##       
           ' ,,###''''                  '''############,,,                           
         ,,##''                                '''############,,,,        ,,,,,,###''
      ,#''                                            '''#######################'''  
     '                                                          ''''####''''         
             ,#######,   #######,   ,#######,      ##                                
            ,#'     '#,  ##    ##  ,#'     '#,    #''#        ,####,    ,#,          
            ##       ##  ##   ,#'  ##            #'  '#       #'       ,# #          
            ##       ##  #######   ##           ,######,      #####,      #          
            '#,     ,#'  ##    ##  '#,     ,#' ,#      #,     #,   #      #          
             '#######'   ##     ##  '#######'  #'      '#     '####' #    #          



                #########################################################
                #                        -***-                          #
                #          Department of theory and spectroscopy        #
                #                                                       #
                #                      Frank Neese                      #
                #                                                       #
                #     Directorship, Architecture, Infrastructure        #
                #                    SHARK, DRIVERS                     #
                #        Core code/Algorithms in most modules           #
                #                                                       #
                #        Max Planck Institute fuer Kohlenforschung      #
                #                Kaiser Wilhelm Platz 1                 #
                #                 D-45470 Muelheim/Ruhr                 #
                #                      Germany                          #
                #                                                       #
                #                  All rights reserved                  #
                #                        -***-                          #
                #########################################################


                         Program Version 6.1.0-f.0  -   RELEASE   -


 With contributions from (in alphabetic order):
[Max-Planck-Institut fuer Kohlenforschung]                               
  Daniel Aravena         : Magnetic Suceptibility                        
  Michael Atanasov       : Ab Initio Ligand Field Theory (pilot matlab implementation)
  Alexander A. Auer      : GIAO ZORA, VPT2 properties, NMR spectrum      
  Ute Becker             : All parallelization in ORCA, NUMFREQ, NUMCALC 
  Giovanni Bistoni       : ED, misc. LED, open-shell LED, HFLD           
  Dmytro Bykov           : pre 5.0 version of the SCF Hessian            
  Marcos Casanova-Páez   : Triplet and SCS-CIS(D). UHF-(DLPNO)-IP/EA/STEOM-CCSD. UHF-CVS-IP/STEOM-CCSD   
  Vijay G. Chilkuri      : MRCI spin determinant printing, contributions to CSF-ICE 
  Pauline Colinet        : FMM embedding                                 
  Dipayan Datta          : RHF DLPNO-CCSD density                        
  Achintya Kumar Dutta   : EOM-CC, STEOM-CC                              
  Nicolas Foglia         : Exact transition moments, OPA infrastructure, MCD improvements    
  Dmitry Ganyushin       : Spin-Orbit,Spin-Spin,Magnetic field MRCI      
  Miquel Garcia-Rates    : C-PCM and meta-GGA Hessian, CCSD/C-PCM, Gaussian charge scheme 
  Tiago L. C. Gouveia    : GS-ROHF, GS-ROCIS                             
  Yang Guo               : DLPNO-NEVPT2, F12-NEVPT2, CIM, IAO-localization        
  Andreas Hansen         : Spin unrestricted coupled pair/coupled cluster methods 
  Ingolf Harden          : AUTO-CI MPn and infrastructure                
  Benjamin Helmich-Paris : MC-RPA, TRAH-(SCF,CASSCF), AVAS, COSX integrals, SCF dyn. polar., MC-PDFT, srDFT 
  Lee Huntington         : MR-EOM, pCC                                   
  Robert Izsak           : Overlap fitted RIJCOSX, COSX-SCS-MP3, EOM     
  Riya Kayal             : Wick's Theorem for AUTO-CI, AUTO-CI UHF-CCSDT 
  Emily Kempfer          : AUTO-CI RHF CISDT and CCSDT, approximate NEVPT4
  Christian Kollmar      : KDIIS, OOCD, Brueckner-CCSD(T), CCSD density, CASPT2, CASPT2-K, improved NEVPT2 
  Axel Koslowski         : Symmetry handling                             
  Simone Kossmann        : meta-GGA functionals, TD-DFT gradient, OOMP2, (MP2 Hessian; deprecated post 5.0) 
  Lucas Lang             : DCDCAS, Hyperfine gauge corrections, ICE-SOC+SSC
  Marvin Lechner         : AUTO-CI (C++ implementation), FIC-MRCC        
  Spencer Leger          : CASSCF response                               
  Dagmar Lenk            : GEPOL surface, SMD, ORCA-2-JSON               
  Dimitrios Liakos       : Extrapolation schemes; Compound Job, Property file
  Dimitrios Manganas     : Further ROCIS development; embedding schemes. LFT, Crystal Embedding 
  Dimitrios Pantazis     : SARC Basis sets                               
  Anastasios Papadopoulos: AUTO-CI, single reference methods and gradients 
  Taras Petrenko         : pre 6.0 DFT Hessian and TD-DFT gradient,  ECA, NRVS 
  Petra Pikulova         : Analytic Raman intensities                    
  Peter Pinski           : DLPNO-MP2, DLPNO-MP2 Gradient                 
  Shashank Vittal Rao    : ES-AILFT, MagRelax                            
  Christoph Reimann      : Effective Core Potentials                     
  Marius Retegan         : Local ZFS, SOC                                
  Christoph Riplinger    : Optimizer, TS searches, QM/MM, DLPNO-CCSD(T), (RO)-DLPNO pert. Triples 
  Michael Roemelt        : Original ROCIS implementation, recursive CI coupling coefficients
  Masaaki Saitow         : Open-shell DLPNO-CCSD energy and density      
  Barbara Sandhoefer     : DKH picture change effects                    
  Yorick L. A. Schmerwitz: GMF and freeze-and-release deltaSCF, NEB S-IDPP initial path                    
  Kantharuban Sivalingam : CASSCF convergence/infrastructure, NEVPT2, NEVPT3, NEVPT4(SD), FIC-MRCI and CEPA variants
  Bernardo de Souza      : ESD, SOC TD-DFT                               
  Georgi L. Stoychev     : AutoAux, RI-MP2 NMR, DLPNO-MP2 response, X2C  
  Van Anh Tran           : RI-MP2 g-tensors                              
  Willem Van den Heuvel  : Paramagnetic NMR                              
  Zikuan Wang            : NOTCH, Electric field optimization            
  Frank Wennmohs         : Technical directorship and infrastructure     
  Hang Xu                : AUTO-CI-Response properties                   
                                                                         
[FACCTs GmbH]                                                            
  Markus Bursch, Nicolas Foglia, Miquel Garcia-Rates, Ingolf Harden, Hagen Neugebauer, Anastasios Papadopoulos, 
  Christoph Riplinger, Bernardo de Souza, Georgi L. Stoychev                                                    
                                                                 
  APM, various basis sets, CI-OPT, improved COSX, DLPNO-Multilevel,           
  DOCKER, DRACO, updates on ESD, Fragmentator, GOAT, IRC, LR-CPCM, L-BFGS, MBIS, meta-GGA TD-DFT gradient, ML-optimized integration grids, 
  MM, NACMEs, nearIR, NEB, NEB-TS, NL-DFT gradient (VV10), 2- and 3-layer-ONIOM, interface openCOSMO-RS, QMMM,   
  Crystal-QMMM, RESP, rigid body optimization, SF, symmetry and pop. for TD-DFT, various functionals, SOLVATOR                                   
                                                                         
[Other institutions]                                                     
  V. Asgeirsson          : NEB                                           
  Christoph Bannwarth    : sTDA-DFT, sTD-DFT, PBEh-3c, B97-3c, D3        
  Giovanni Bistoni       : ETS/NOCV, ADLD/ADEX, COVALED                  
  Martin Brehm           : Molecular dynamics                            
  Ronald Cardenas        : ETS/NOCV                                      
  Martina Colucci        : COVALED                                       
  Sebastian Ehlert       : rSCAN, r2SCAN, r2SCAN-3c, D4, dhf basis sets  
  Marvin Friede          : D4 for Fr, Ra, Ac-Lr                          
  Lars Goerigk           : TD-DFT with DH, B97 family of functionals     
  Stefan Grimme          : VdW corrections, initial TS optimization, DFT functionals, gCP, sTDA/sTD-DF 
  Waldemar Hujo          : DFT-NL                                        
  H. Jonsson             : NEB                                           
  Holger Kruse           : gCP                                           
  Marcel Mueller         : wB97X-3c, vDZP basis set                      
  Hagen Neugebauer       : wr2SCAN, Native XTB                           
  Gianluca Regni         : ADLD/ADEX                                     
  Tobias Risthaus        : pre 6.0 range-separated hybrid DFT and stability analysis
  Lukas Wittmann         : regularized MP2, r2SCAN double-hybrids, wr2SCAN        
                                                                         
We gratefully acknowledge several colleagues who have allowed us to      
interface, adapt or use parts of their codes:                            
  Ed Valeev, F. Pavosevic, A. Kumar             : LibInt (2-el integral package), F12 methods 
  Garnet Chan, S. Sharma, J. Yang, R. Olivares  : DMRG                   
  Ulf Ekstrom                                   : XCFun DFT Library      
  Mihaly Kallay                                 : mrcc  (arbitrary order and MRCC methods)
  Frank Weinhold                                : gennbo (NPA and NBO analysis)           
  Simon Mueller                                 : openCOSMO-RS                            
  Christopher J. Cramer and Donald G. Truhlar   : smd solvation model                     
  S Lehtola, MJT Oliveira, MAL Marques          : LibXC Library                           
  Liviu Ungur et al                             : ANISO software                          


 Your calculation uses the libint2 library for the computation of 2-el integrals
 For citations please refer to: http://libint.valeyev.net

 Your ORCA version has been built with support for libXC version: 7.0.0
 For citations please refer to: https://libxc.gitlab.io

 This ORCA versions uses:
   CBLAS   interface :  Fast vector & matrix operations
   LAPACKE interface :  Fast linear algebra routines
   SCALAPACK package :  Parallel linear algebra routines
   Shared memory     :  Shared parallel matrices
   BLAS/LAPACK       :  OpenBLAS 0.3.29  USE64BITINT DYNAMIC_ARCH NO_AFFINITY Cooperlake SINGLE_THREADED
        Core in use  :  Cooperlake
   Copyright (c) 2011-2014, The OpenBLAS Project


  ***********************************
  * Starting time: Sat Feb 28 08:16:40 2026
  * Host name:     c08b01n06
  * Process ID:    2630206
  * Working dir.:  /lustre1/jiangy/jiangy_liuxy/NMR/B9D7C2-RSSS
  ***********************************

NOTE: MaxCore=6000 MB was set to SCF,MP2,MDCI,CIPSI,MRCI,RASCI and CIS
      => If you want to overwrite this, your respective input block should be placed after the MaxCore statement


***************************************
The coordinates will be read from file: conf-8.xyz
***************************************


Your calculation utilizes the atom-pairwise dispersion correction
based on EEQ partial charges (D4)


Warning: RI is on but no J-basis has been assigned. Assigning Def2/J (nothing to worry about!)
================================================================================

----- Orbital basis set information -----
Your calculation utilizes the basis: def2-TZVP
   F. Weigend and R. Ahlrichs, Phys. Chem. Chem. Phys. 7, 3297 (2005).

----- AuxJ basis set information -----
Your calculation utilizes the auxiliary basis: def2/J
   H-Rn: F. Weigend, Phys. Chem. Chem. Phys. 8, 1057 (2006).
   Fr-Lr: K. Eichkorn, F. Weigend, O. Treutler, R. Ahlrichs; Theor. Chem. Acc. 97, 119 (1997).

================================================================================
                                        WARNINGS
                       Please study these warnings very carefully!
================================================================================


WARNING: Geometry Optimization
  ===> : Switching off AutoStart
         For restart on a previous wavefunction, please use MOREAD

================================================================================
                                       INPUT FILE
================================================================================
NAME = opt-conf-8.inp
|  1> ! B3LYP OPT FREQ DEF2-TZVP D4 CPCM(Methanol) 
|  2> ! TightOpt
|  3> %pal nprocs 64 end
|  4> %maxcore 6000
|  5> 
|  6> %cpcm
|  7> end
|  8> 
|  9> %freq
| 10>    Temp 298.15
| 11> end
| 12> 
| 13> * xyzfile 0 1 conf-8.xyz
| 14> 
| 15> 
| 16>                          ****END OF INPUT****
================================================================================

                       *****************************
                       * Geometry Optimization Run *
                       *****************************

Geometry optimization settings:
Update method            Update   .... BFGS
Choice of coordinates    CoordSys .... (2022) Redundant Internals
Initial Hessian          InHess   .... Almloef's Model
Max. no of cycles        MaxIter  .... 246

Convergence Tolerances:
Energy Change            TolE     ....  1.0000e-06 Eh
Max. Gradient            TolMAXG  ....  1.0000e-04 Eh/bohr
RMS Gradient             TolRMSG  ....  3.0000e-05 Eh/bohr
Max. Displacement        TolMAXD  ....  1.0000e-03 bohr
RMS Displacement         TolRMSD  ....  6.0000e-04 bohr
Strict Convergence                .... False

------------------------------------------------------------------------------
                        ORCA OPTIMIZATION COORDINATE SETUP
------------------------------------------------------------------------------

The optimization will be done in redundant internal coordinates (2022)
Making redundant internal coordinates   ...  (2022 redundants) done
Evaluating the initial hessian          ...  (Almloef) done
Evaluating the coordinates              ...  done
Calculating the B-matrix                .... done
Calculating the G-matrix                .... done
The number of degrees of freedom        ....  407

    -----------------------------------------------------------------
                    Redundant Internal Coordinates


    -----------------------------------------------------------------
         Definition                    Initial Value    Approx d2E/dq
    -----------------------------------------------------------------
      1. B(C   1,C   0)                  1.3995         0.603314   
      2. B(C   2,C   1)                  1.4002         0.601728   
      3. B(C   3,C   2)                  1.3884         0.628503   
      4. B(C   4,C   3)                  1.3861         0.633842   
      5. B(C   5,C   0)                  1.3872         0.631290   
      6. B(C   5,C   4)                  1.3867         0.632460   
      7. B(C   6,C   4)                  1.5024         0.413405   
      8. B(C   7,C   6)                  1.5379         0.362895   
      9. B(C   8,C   7)                  1.5413         0.358385   
     10. B(C   9,C   8)                  1.5367         0.364505   
     11. B(C  10,C   9)                  1.5041         0.410827   
     12. B(C  11,C  10)                  1.3941         0.615427   
     13. B(C  12,C  11)                  1.3805         0.647026   
     14. B(C  13,C  12)                  1.4051         0.591028   
     15. B(C  14,C  13)                  1.3821         0.643287   
     16. B(C  15,C  10)                  1.3843         0.637908   
     17. B(C  15,C  14)                  1.3871         0.631565   
     18. B(C  16,C   7)                  1.5365         0.364796   
     19. B(C  17,C   8)                  1.5380         0.362782   
     20. B(O  18,C   2)                  1.3644         0.614700   
     21. B(O  19,C   0)                  1.3644         0.614787   
     22. B(O  20,C   1)                  1.3783         0.584165   
     23. B(O  21,C  13)                  1.3612         0.622126   
     24. B(O  22,C  12)                  1.3788         0.583131   
     25. B(C  23,O  20)                  1.4283         0.486171   
     26. B(C  24,C  23)                  1.5476         0.350193   
     27. B(C  25,C  24)                  1.5200         0.387614   
     28. B(C  26,C  23)                  1.5316         0.371366   
     29. B(O  27,C  26)                  1.4019         0.535566   
     30. B(C  28,C  25)                  1.3899         0.625005   
     31. B(C  29,C  28)                  1.3820         0.643518   
     32. B(C  30,C  29)                  1.4013         0.599397   
     33. B(C  31,C  30)                  1.3833         0.640331   
     34. B(C  32,C  31)                  1.3847         0.636968   
     35. B(C  32,C  25)                  1.3861         0.633861   
     36. B(C  33,O  19)                  1.4078         0.524261   
     37. B(C  34,O  18)                  1.4068         0.526150   
     38. B(C  35,O  22)                  1.4069         0.525830   
     39. B(O  36,C  24)                  1.4026         0.534214   
     40. B(O  37,C  16)                  1.4076         0.524643   
     41. B(O  38,C  17)                  1.4082         0.523457   
     42. B(O  39,C  29)                  1.3760         0.589235   
     43. B(O  40,C  30)                  1.3707         0.600653   
     44. B(C  41,O  39)                  1.4103         0.519347   
     45. B(H  42,C   3)                  1.0779         0.376460   
     46. B(H  43,C   5)                  1.0776         0.376821   
     47. B(H  44,C   6)                  1.0905         0.359443   
     48. B(H  45,C   6)                  1.0894         0.360868   
     49. B(H  46,C   7)                  1.0964         0.351768   
     50. B(H  47,C   8)                  1.0963         0.351882   
     51. B(H  48,C   9)                  1.0905         0.359414   
     52. B(H  49,C   9)                  1.0933         0.355710   
     53. B(H  50,C  11)                  1.0781         0.376234   
     54. B(H  51,C  14)                  1.0786         0.375502   
     55. B(H  52,C  15)                  1.0802         0.373332   
     56. B(H  53,C  16)                  1.0978         0.349939   
     57. B(H  54,C  16)                  1.0937         0.355200   
     58. B(H  55,C  17)                  1.0937         0.355251   
     59. B(H  56,C  17)                  1.0992         0.348133   
     60. B(H  57,O  21)                  0.9674         0.505951   
     61. B(H  57,O  22)                  2.1019         0.010000   
     62. B(H  58,C  23)                  1.0935         0.355435   
     63. B(H  59,C  24)                  1.0974         0.350475   
     64. B(H  60,C  26)                  1.0918         0.357752   
     65. B(H  61,C  26)                  1.0987         0.348793   
     66. B(H  62,O  20)                  2.3539         0.010000   
     67. B(H  62,O  27)                  0.9661         0.508421   
     68. B(H  63,C  28)                  1.0775         0.377054   
     69. B(H  64,C  31)                  1.0783         0.375892   
     70. B(H  65,C  32)                  1.0788         0.375267   
     71. B(H  66,C  33)                  1.0943         0.354454   
     72. B(H  67,C  33)                  1.0942         0.354605   
     73. B(H  68,C  33)                  1.0893         0.360997   
     74. B(H  69,H  64)                  4.6079         0.010000   
     75. B(H  69,C  34)                  1.0947         0.353998   
     76. B(H  70,C  34)                  1.0942         0.354566   
     77. B(H  71,C  34)                  1.0888         0.361704   
     78. B(H  72,C  35)                  1.0888         0.361667   
     79. B(H  73,C  35)                  1.0940         0.354865   
     80. B(H  74,C  35)                  1.0944         0.354348   
     81. B(H  75,O  20)                  2.2465         0.010000   
     82. B(H  75,O  19)                  2.3202         0.010000   
     83. B(H  75,O  36)                  0.9715         0.498423   
     84. B(H  76,O  40)                  2.0492         0.010000   
     85. B(H  76,O  37)                  0.9693         0.502440   
     86. B(H  77,O  37)                  2.3091         0.010000   
     87. B(H  77,O  38)                  0.9662         0.508155   
     88. B(H  78,O  39)                  2.1211         0.010000   
     89. B(H  78,O  40)                  0.9684         0.504101   
     90. B(H  79,O  21)                  2.3618         0.010000   
     91. B(H  79,C  41)                  1.0879         0.362903   
     92. B(H  80,C  41)                  1.0939         0.354991   
     93. B(H  81,H  67)                  2.3868         0.010000   
     94. B(H  81,C  41)                  1.0926         0.356701   
     95. A(C   1,C   0,O  19)          115.7010         0.428471   
     96. A(C   5,C   0,O  19)          124.6521         0.431971   
     97. A(C   1,C   0,C   5)          119.6460         0.433345   
     98. A(C   0,C   1,O  20)          118.8662         0.424568   
     99. A(C   0,C   1,C   2)          119.8041         0.429628   
    100. A(C   2,C   1,O  20)          121.2288         0.424368   
    101. A(C   3,C   2,O  18)          124.7229         0.431617   
    102. A(C   1,C   2,C   3)          119.5764         0.432796   
    103. A(C   1,C   2,O  18)          115.7008         0.428257   
    104. A(C   4,C   3,H  42)          119.0972         0.356912   
    105. A(C   2,C   3,H  42)          120.3701         0.356399   
    106. A(C   2,C   3,C   4)          120.5326         0.436866   
    107. A(C   5,C   4,C   6)          119.3157         0.405242   
    108. A(C   3,C   4,C   6)          120.7753         0.405398   
    109. A(C   3,C   4,C   5)          119.8668         0.437360   
    110. A(C   4,C   5,H  43)          118.7830         0.356838   
    111. A(C   0,C   5,H  43)          120.6892         0.356725   
    112. A(C   0,C   5,C   4)          120.5206         0.437042   
    113. A(C   4,C   6,H  44)          109.9397         0.329678   
    114. A(C   7,C   6,H  45)          109.3185         0.322892   
    115. A(C   4,C   6,C   7)          109.7960         0.367878   
    116. A(H  44,C   6,H  45)          108.3813         0.290853   
    117. A(C   4,C   6,H  45)          109.2125         0.329893   
    118. A(C   7,C   6,H  44)          110.1651         0.322682   
    119. A(C   6,C   7,C  16)          109.4457         0.360093   
    120. A(C   8,C   7,C  16)          110.4712         0.359327   
    121. A(C  16,C   7,H  46)          107.4610         0.321819   
    122. A(C   8,C   7,H  46)          106.5859         0.320886   
    123. A(C   6,C   7,H  46)          107.4013         0.321544   
    124. A(C   6,C   7,C   8)          115.1274         0.359007   
    125. A(C   7,C   8,C  17)          113.6364         0.358989   
    126. A(C  17,C   8,H  47)          105.6235         0.321544   
    127. A(C   7,C   8,C   9)          112.0407         0.359278   
    128. A(C   9,C   8,H  47)          106.8962         0.321794   
    129. A(C   7,C   8,H  47)          105.8511         0.320903   
    130. A(C   9,C   8,C  17)          112.1334         0.360025   
    131. A(H  48,C   9,H  49)          107.4573         0.290193   
    132. A(C  10,C   9,H  48)          110.0697         0.329333   
    133. A(C  10,C   9,H  49)          108.6508         0.328770   
    134. A(C   8,C   9,C  10)          112.1389         0.367763   
    135. A(C   8,C   9,H  48)          110.4244         0.322912   
    136. A(C   8,C   9,H  49)          107.9471         0.322364   
    137. A(C   9,C  10,C  11)          119.1962         0.402849   
    138. A(C  11,C  10,C  15)          118.8381         0.435716   
    139. A(C   9,C  10,C  15)          121.9630         0.405408   
    140. A(C  10,C  11,C  12)          120.7917         0.436831   
    141. A(C  10,C  11,H  50)          118.9953         0.355094   
    142. A(C  12,C  11,H  50)          120.2080         0.358126   
    143. A(C  11,C  12,C  13)          119.8528         0.433661   
    144. A(C  13,C  12,O  22)          114.5580         0.422875   
    145. A(C  11,C  12,O  22)          125.5872         0.429786   
    146. A(C  12,C  13,O  21)          119.9554         0.427802   
    147. A(C  12,C  13,C  14)          119.3556         0.433209   
    148. A(C  14,C  13,O  21)          120.6857         0.434362   
    149. A(C  13,C  14,H  51)          118.6056         0.357655   
    150. A(C  13,C  14,C  15)          120.1916         0.438416   
    151. A(C  15,C  14,H  51)          121.1932         0.356539   
    152. A(C  14,C  15,H  52)          119.2149         0.356189   
    153. A(C  10,C  15,H  52)          119.8298         0.356794   
    154. A(C  10,C  15,C  14)          120.9365         0.437753   
    155. A(O  37,C  16,H  54)          106.1983         0.340248   
    156. A(C   7,C  16,H  54)          110.5852         0.322331   
    157. A(O  37,C  16,H  53)          110.6222         0.339401   
    158. A(C   7,C  16,H  53)          108.6283         0.321544   
    159. A(C   7,C  16,O  37)          112.8075         0.381256   
    160. A(H  53,C  16,H  54)          107.8841         0.288915   
    161. A(O  38,C  17,H  56)          110.1807         0.338980   
    162. A(C   8,C  17,O  38)          112.4184         0.380740   
    163. A(H  55,C  17,H  56)          107.5093         0.288688   
    164. A(C   8,C  17,H  56)          110.7620         0.320981   
    165. A(O  38,C  17,H  55)          105.3281         0.340128   
    166. A(C   8,C  17,H  55)          110.3987         0.322046   
    167. A(C   2,O  18,C  34)          118.7858         0.415398   
    168. A(C   0,O  19,C  33)          117.8351         0.415143   
    169. A(C   1,O  20,C  23)          116.3696         0.405936   
    170. A(C  13,O  21,H  57)          107.2662         0.368601   
    171. A(C  12,O  22,C  35)          118.1176         0.411482   
    172. A(C  26,C  23,H  58)          108.9650         0.323311   
    173. A(C  24,C  23,H  58)          110.8259         0.320218   
    174. A(O  20,C  23,H  58)          110.4139         0.335991   
    175. A(C  24,C  23,C  26)          111.6912         0.359005   
    176. A(O  20,C  23,C  26)          105.4094         0.377424   
    177. A(O  20,C  23,C  24)          109.4056         0.373617   
    178. A(C  23,C  24,O  36)          108.9669         0.379753   
    179. A(O  36,C  24,H  59)          106.3354         0.340515   
    180. A(C  25,C  24,H  59)          109.1755         0.324841   
    181. A(C  23,C  24,H  59)          108.5390         0.319484   
    182. A(C  25,C  24,O  36)          112.1727         0.386512   
    183. A(C  23,C  24,C  25)          111.4632         0.361634   
    184. A(C  28,C  25,C  32)          119.1004         0.436429   
    185. A(C  24,C  25,C  32)          122.1276         0.400820   
    186. A(C  24,C  25,C  28)          118.7678         0.399829   
    187. A(O  27,C  26,H  61)          110.9557         0.340385   
    188. A(H  60,C  26,H  61)          109.0855         0.289091   
    189. A(C  23,C  26,H  61)          108.5462         0.322312   
    190. A(O  27,C  26,H  60)          106.9213         0.341832   
    191. A(C  23,C  26,H  60)          110.2113         0.323656   
    192. A(C  23,C  26,O  27)          111.1014         0.383811   
    193. A(C  26,O  27,H  62)          106.9541         0.359577   
    194. A(C  29,C  28,H  63)          120.9396         0.357928   
    195. A(C  25,C  28,H  63)          118.1685         0.356157   
    196. A(C  25,C  28,C  29)          120.8919         0.437620   
    197. A(C  30,C  29,O  39)          115.3243         0.424729   
    198. A(C  28,C  29,O  39)          125.1579         0.430170   
    199. A(C  28,C  29,C  30)          119.5173         0.434334   
    200. A(C  31,C  30,O  40)          120.4487         0.431270   
    201. A(C  29,C  30,O  40)          120.0323         0.426191   
    202. A(C  29,C  30,C  31)          119.5103         0.433947   
    203. A(C  32,C  31,H  64)          120.5699         0.357119   
    204. A(C  30,C  31,H  64)          119.0469         0.357439   
    205. A(C  30,C  31,C  32)          120.3755         0.438726   
    206. A(C  31,C  32,H  65)          118.9812         0.357018   
    207. A(C  25,C  32,H  65)          120.5945         0.356721   
    208. A(C  25,C  32,C  31)          120.4226         0.437923   
    209. A(H  67,C  33,H  68)          109.7522         0.290251   
    210. A(H  66,C  33,H  68)          109.1998         0.290232   
    211. A(O  19,C  33,H  68)          105.6920         0.341129   
    212. A(H  66,C  33,H  67)          109.1228         0.289420   
    213. A(O  19,C  33,H  67)          111.7358         0.340112   
    214. A(O  19,C  33,H  66)          111.2650         0.340087   
    215. A(H  69,C  34,H  71)          109.4230         0.290262   
    216. A(O  18,C  34,H  71)          105.3727         0.341446   
    217. A(H  69,C  34,H  70)          109.5037         0.289357   
    218. A(O  18,C  34,H  70)          111.4905         0.340310   
    219. A(O  18,C  34,H  69)          111.5534         0.340219   
    220. A(H  70,C  34,H  71)          109.3962         0.290335   
    221. A(H  73,C  35,H  74)          109.5483         0.289440   
    222. A(H  72,C  35,H  74)          109.3658         0.290303   
    223. A(O  22,C  35,H  74)          111.4753         0.340240   
    224. A(H  72,C  35,H  73)          109.3247         0.290369   
    225. A(O  22,C  35,H  73)          111.3742         0.340323   
    226. A(O  22,C  35,H  72)          105.6561         0.341406   
    227. A(C  24,O  36,H  75)          106.0682         0.358209   
    228. A(C  16,O  37,H  76)          107.7134         0.357597   
    229. A(C  17,O  38,H  77)          108.6263         0.358148   
    230. A(C  29,O  39,C  41)          117.4907         0.411337   
    231. A(C  30,O  40,H  78)          107.1212         0.366157   
    232. A(H  80,C  41,H  81)          109.3672         0.289756   
    233. A(H  79,C  41,H  81)          108.8743         0.290760   
    234. A(O  39,C  41,H  81)          111.7028         0.339911   
    235. A(H  79,C  41,H  80)          110.1584         0.290541   
    236. A(O  39,C  41,H  80)          110.9603         0.339639   
    237. A(O  39,C  41,H  79)          105.7052         0.340892   
    238. D(O  20,C   1,C   0,O  19)     -1.5008         0.025108   
    239. D(C   2,C   1,C   0,O  19)   -177.8946         0.025108   
    240. D(C   2,C   1,C   0,C   5)      2.4325         0.025108   
    241. D(O  20,C   1,C   0,C   5)    178.8263         0.025108   
    242. D(O  18,C   2,C   1,C   0)    177.8349         0.024968   
    243. D(C   3,C   2,C   1,C   0)     -2.1624         0.024968   
    244. D(C   3,C   2,C   1,O  20)   -178.4690         0.024968   
    245. D(O  18,C   2,C   1,O  20)      1.5283         0.024968   
    246. D(C   4,C   3,C   2,C   1)      0.2335         0.027380   
    247. D(H  42,C   3,C   2,O  18)      0.0917         0.027380   
    248. D(C   4,C   3,C   2,O  18)   -179.7636         0.027380   
    249. D(H  42,C   3,C   2,C   1)   -179.9113         0.027380   
    250. D(C   6,C   4,C   3,H  42)      3.9526         0.027878   
    251. D(C   5,C   4,C   3,H  42)   -178.4291         0.027878   
    252. D(C   5,C   4,C   3,C   2)      1.4279         0.027878   
    253. D(C   6,C   4,C   3,C   2)   -176.1904         0.027878   
    254. D(H  43,C   5,C   4,C   6)     -2.5308         0.027748   
    255. D(H  43,C   5,C   4,C   3)    179.8160         0.027748   
    256. D(C   0,C   5,C   4,C   3)     -1.1542         0.027748   
    257. D(C   4,C   5,C   0,O  19)    179.5815         0.027639   
    258. D(H  43,C   5,C   0,C   1)    178.2343         0.027639   
    259. D(H  43,C   5,C   0,O  19)     -1.4074         0.027639   
    260. D(C   0,C   5,C   4,C   6)    176.4989         0.027748   
    261. D(C   4,C   5,C   0,C   1)     -0.7768         0.027639   
    262. D(H  45,C   6,C   4,C   3)   -140.7798         0.012650   
    263. D(H  44,C   6,C   4,C   5)    160.3826         0.012650   
    264. D(H  44,C   6,C   4,C   3)    -21.9861         0.012650   
    265. D(C   7,C   6,C   4,C   5)    -78.2635         0.012650   
    266. D(C   7,C   6,C   4,C   3)     99.3678         0.012650   
    267. D(C   8,C   7,C   6,H  44)    -73.3961         0.010554   
    268. D(C   8,C   7,C   6,C   4)    165.3854         0.010554   
    269. D(C  16,C   7,C   6,H  45)    170.7146         0.010554   
    270. D(C  16,C   7,C   6,H  44)     51.7209         0.010554   
    271. D(C   8,C   7,C   6,H  45)     45.5975         0.010554   
    272. D(C  16,C   7,C   6,C   4)    -69.4976         0.010554   
    273. D(C  17,C   8,C   7,H  46)   -177.0526         0.010311   
    274. D(C  17,C   8,C   7,C  16)    -60.6051         0.010311   
    275. D(C  17,C   8,C   7,C   6)     63.9771         0.010311   
    276. D(C   9,C   8,C   7,C  16)    171.0149         0.010311   
    277. D(C   9,C   8,C   7,H  46)     54.5674         0.010311   
    278. D(C   9,C   8,C   7,C   6)    -64.4029         0.010311   
    279. D(H  48,C   9,C   8,C  17)    -63.7803         0.010641   
    280. D(H  48,C   9,C   8,C   7)     65.3895         0.010641   
    281. D(C  10,C   9,C   8,H  47)     57.7667         0.010641   
    282. D(C  10,C   9,C   8,C  17)    173.0696         0.010641   
    283. D(H  48,C   9,C   8,H  47)   -179.0832         0.010641   
    284. D(C  10,C   9,C   8,C   7)    -57.7606         0.010641   
    285. D(C  15,C  10,C   9,H  48)     -3.9509         0.012499   
    286. D(C  15,C  10,C   9,C   8)    119.3988         0.012499   
    287. D(C  11,C  10,C   9,H  49)     58.0402         0.012499   
    288. D(C  11,C  10,C   9,H  48)    175.4535         0.012499   
    289. D(C  11,C  10,C   9,C   8)    -61.1968         0.012499   
    290. D(H  50,C  11,C  10,C  15)    179.5516         0.026185   
    291. D(H  50,C  11,C  10,C   9)      0.1284         0.026185   
    292. D(C  12,C  11,C  10,C  15)      0.3620         0.026185   
    293. D(C  12,C  11,C  10,C   9)   -179.0612         0.026185   
    294. D(O  22,C  12,C  11,H  50)      1.5706         0.029130   
    295. D(C  13,C  12,C  11,H  50)   -177.8940         0.029130   
    296. D(O  22,C  12,C  11,C  10)   -179.2497         0.029130   
    297. D(C  13,C  12,C  11,C  10)      1.2858         0.029130   
    298. D(O  21,C  13,C  12,C  11)    177.3080         0.024043   
    299. D(C  14,C  13,C  12,O  22)    178.4371         0.024043   
    300. D(C  14,C  13,C  12,C  11)     -2.0416         0.024043   
    301. D(O  21,C  13,C  12,O  22)     -2.2132         0.024043   
    302. D(H  51,C  14,C  13,O  21)      0.7041         0.028772   
    303. D(H  51,C  14,C  13,C  12)   -179.9511         0.028772   
    304. D(C  15,C  14,C  13,O  21)   -178.1887         0.028772   
    305. D(C  15,C  14,C  13,C  12)      1.1561         0.028772   
    306. D(H  52,C  15,C  14,H  51)      0.0623         0.027665   
    307. D(H  52,C  15,C  14,C  13)    178.9259         0.027665   
    308. D(C  10,C  15,C  14,H  51)   -178.3601         0.027665   
    309. D(C  10,C  15,C  14,C  13)      0.5036         0.027665   
    310. D(H  52,C  15,C  10,C  11)   -179.6798         0.028260   
    311. D(H  52,C  15,C  10,C   9)     -0.2734         0.028260   
    312. D(C  14,C  15,C  10,C  11)     -1.2671         0.028260   
    313. D(C  14,C  15,C  10,C   9)    178.1394         0.028260   
    314. D(H  53,C  16,C   7,H  46)    -59.1642         0.010657   
    315. D(H  53,C  16,C   7,C   8)   -175.0665         0.010657   
    316. D(H  53,C  16,C   7,C   6)     57.1649         0.010657   
    317. D(O  37,C  16,C   7,H  46)     63.8572         0.010657   
    318. D(O  37,C  16,C   7,C   8)    -52.0451         0.010657   
    319. D(O  37,C  16,C   7,C   6)   -179.8137         0.010657   
    320. D(H  55,C  17,C   8,H  47)     97.2669         0.010548   
    321. D(H  55,C  17,C   8,C   9)    -18.8076         0.010548   
    322. D(H  55,C  17,C   8,C   7)   -147.1401         0.010548   
    323. D(O  38,C  17,C   8,H  47)    -20.0236         0.010548   
    324. D(O  38,C  17,C   8,C   9)   -136.0982         0.010548   
    325. D(O  38,C  17,C   8,C   7)     95.5694         0.010548   
    326. D(C  34,O  18,C   2,C   3)      0.6329         0.027688   
    327. D(C  34,O  18,C   2,C   1)   -179.3643         0.027688   
    328. D(C  33,O  19,C   0,C   5)     -6.7945         0.030566   
    329. D(C  33,O  19,C   0,C   1)    173.5511         0.030566   
    330. D(C  23,O  20,C   1,C   2)    -67.3952         0.029774   
    331. D(C  23,O  20,C   1,C   0)    116.2643         0.029774   
    332. D(H  57,O  21,C  13,C  14)    176.9301         0.031357   
    333. D(H  57,O  21,C  13,C  12)     -2.4108         0.031357   
    334. D(C  35,O  22,C  12,C  13)    179.2811         0.027293   
    335. D(C  35,O  22,C  12,C  11)     -0.2083         0.027293   
    336. D(H  58,C  23,O  20,C   1)     39.5155         0.021714   
    337. D(C  26,C  23,O  20,C   1)    157.0498         0.021714   
    338. D(C  24,C  23,O  20,C   1)    -82.7137         0.021714   
    339. D(O  36,C  24,C  23,H  58)   -174.7571         0.010000   
    340. D(O  36,C  24,C  23,C  26)     63.5402         0.010000   
    341. D(O  36,C  24,C  23,O  20)    -52.7750         0.010000   
    342. D(C  25,C  24,C  23,H  58)    -50.4294         0.010000   
    343. D(C  25,C  24,C  23,C  26)   -172.1320         0.010000   
    344. D(C  25,C  24,C  23,O  20)     71.5528         0.010000   
    345. D(C  32,C  25,C  24,O  36)    172.6718         0.011185   
    346. D(C  32,C  25,C  24,C  23)     50.1678         0.011185   
    347. D(C  28,C  25,C  24,H  59)    109.5112         0.011185   
    348. D(C  28,C  25,C  24,O  36)     -8.0881         0.011185   
    349. D(C  28,C  25,C  24,C  23)   -130.5921         0.011185   
    350. D(H  60,C  26,C  23,H  58)    -65.7333         0.011020   
    351. D(H  60,C  26,C  23,C  24)     57.0374         0.011020   
    352. D(H  60,C  26,C  23,O  20)    175.7582         0.011020   
    353. D(O  27,C  26,C  23,H  58)     52.5947         0.011020   
    354. D(O  27,C  26,C  23,C  24)    175.3653         0.011020   
    355. D(O  27,C  26,C  23,O  20)    -65.9138         0.011020   
    356. D(H  62,O  27,C  26,H  61)    -76.5010         0.022800   
    357. D(H  62,O  27,C  26,H  60)    164.6504         0.022800   
    358. D(H  62,O  27,C  26,C  23)     44.3540         0.022800   
    359. D(H  63,C  28,C  25,C  32)    176.1548         0.027057   
    360. D(H  63,C  28,C  25,C  24)     -3.1087         0.027057   
    361. D(C  29,C  28,C  25,C  32)     -3.7844         0.027057   
    362. D(C  29,C  28,C  25,C  24)    176.9521         0.027057   
    363. D(C  30,C  29,C  28,H  63)   -179.4710         0.028794   
    364. D(C  30,C  29,C  28,C  25)      0.4665         0.028794   
    365. D(O  39,C  29,C  28,H  63)      0.2630         0.028794   
    366. D(O  39,C  29,C  28,C  25)   -179.7994         0.028794   
    367. D(O  40,C  30,C  29,O  39)      2.2744         0.024765   
    368. D(O  40,C  30,C  29,C  28)   -177.9662         0.024765   
    369. D(C  31,C  30,C  29,O  39)   -176.6549         0.024765   
    370. D(C  31,C  30,C  29,C  28)      3.1046         0.024765   
    371. D(H  64,C  31,C  30,O  40)     -3.2699         0.028490   
    372. D(H  64,C  31,C  30,C  29)    175.6548         0.028490   
    373. D(C  32,C  31,C  30,O  40)    177.7325         0.028490   
    374. D(C  32,C  31,C  30,C  29)     -3.3428         0.028490   
    375. D(H  65,C  32,C  31,H  64)      0.5418         0.028172   
    376. D(H  65,C  32,C  31,C  30)    179.5240         0.028172   
    377. D(C  25,C  32,C  31,H  64)   -178.9858         0.028172   
    378. D(C  25,C  32,C  31,C  30)     -0.0036         0.028172   
    379. D(H  65,C  32,C  25,C  28)   -175.9661         0.027880   
    380. D(H  65,C  32,C  25,C  24)      3.2716         0.027880   
    381. D(C  31,C  32,C  25,C  28)      3.5538         0.027880   
    382. D(C  31,C  32,C  25,C  24)   -177.2085         0.027880   
    383. D(H  68,C  33,O  19,C   0)   -177.8441         0.023670   
    384. D(H  67,C  33,O  19,C   0)     62.8214         0.023670   
    385. D(H  66,C  33,O  19,C   0)    -59.4269         0.023670   
    386. D(H  71,C  34,O  18,C   2)    179.6299         0.021970   
    387. D(H  70,C  34,O  18,C   2)     61.0488         0.021970   
    388. D(H  69,C  34,O  18,C   2)    -61.7236         0.021970   
    389. D(H  74,C  35,O  22,C  12)     60.9314         0.023819   
    390. D(H  73,C  35,O  22,C  12)    -61.7587         0.023819   
    391. D(H  72,C  35,O  22,C  12)    179.6380         0.023819   
    392. D(H  75,O  36,C  24,H  59)    166.9402         0.022680   
    393. D(H  75,O  36,C  24,C  25)    -73.7810         0.022680   
    394. D(H  75,O  36,C  24,C  23)     50.1275         0.022680   
    395. D(H  76,O  37,C  16,H  54)    177.0334         0.023707   
    396. D(H  76,O  37,C  16,H  53)     60.2255         0.023707   
    397. D(H  76,O  37,C  16,C   7)    -61.6781         0.023707   
    398. D(H  77,O  38,C  17,H  56)     82.7545         0.021736   
    399. D(H  77,O  38,C  17,H  55)   -161.5807         0.021736   
    400. D(H  77,O  38,C  17,C   8)    -41.3137         0.021736   
    401. D(C  41,O  39,C  29,C  30)    166.3505         0.027906   
    402. D(C  41,O  39,C  29,C  28)    -13.3935         0.027906   
    403. D(H  78,O  40,C  30,C  31)    177.1398         0.029076   
    404. D(H  78,O  40,C  30,C  29)     -1.7793         0.029076   
    405. D(H  81,C  41,O  39,C  29)     64.1366         0.023208   
    406. D(H  80,C  41,O  39,C  29)    -58.1854         0.023208   
    407. D(H  79,C  41,O  39,C  29)   -177.5958         0.023208   
    -----------------------------------------------------------------

Number of atoms                         .... 82
Number of degrees of freedom            .... 407


         *************************************************************
         *                GEOMETRY OPTIMIZATION CYCLE   1            *
         *************************************************************
---------------------------------
CARTESIAN COORDINATES (ANGSTROEM)
---------------------------------
  C     11.887147  -12.014163   -1.868565
  C     12.295331  -13.313375   -1.545919
  C     11.369771  -14.363395   -1.584264
  C     10.043965  -14.097104   -1.898833
  C      9.632881  -12.803371   -2.179018
  C     10.556551  -11.769108   -2.174744
  C      8.185055  -12.495570   -2.436568
  C      7.539945  -11.922519   -1.163553
  C      6.173695  -11.240334   -1.372332
  C      6.283244   -9.988913   -2.257410
  C      7.239721   -8.975796   -1.690717
  C      6.978849   -8.419970   -0.439097
  C      7.824216   -7.473217    0.103811
  C      8.947930   -7.041224   -0.620775
  C      9.215813   -7.603611   -1.854489
  C      8.368428   -8.567569   -2.380491
  C      7.431764  -13.028553   -0.102545
  C      5.073570  -12.199086   -1.858027
  O     11.867372  -15.601496   -1.299339
  O     12.866031  -11.063946   -1.847288
  O     13.625665  -13.543230   -1.268245
  O      9.752227   -6.068363   -0.111443
  O      7.670038   -6.871450    1.334728
  C     13.930578  -13.982648    0.056122
  C     14.010235  -12.757816    0.998718
  C     12.635025  -12.163940    1.256359
  C     15.278788  -14.701050   -0.053737
  O     15.168362  -15.866366   -0.825296
  C     12.458876  -10.793696    1.103880
  C     11.213927  -10.216014    1.265765
  C     10.116709  -11.021992    1.597648
  C     10.307166  -12.373682    1.821746
  C     11.558489  -12.942044    1.652388
  C     12.537262   -9.771338   -2.297675
  C     10.996390  -16.705719   -1.332511
  C      6.559753   -7.237692    2.117429
  O     14.898277  -11.819376    0.452732
  O      6.844590  -12.579878    1.095427
  O      4.289639  -12.697224   -0.799602
  O     10.939598   -8.874328    1.132094
  O      8.869520  -10.466578    1.719829
  C     12.034814   -7.986649    1.093021
  H      9.320454  -14.895479   -1.930610
  H     10.218415  -10.770523   -2.397926
  H      7.662247  -13.400360   -2.748355
  H      8.111643  -11.762541   -3.239135
  H      8.216402  -11.154505   -0.770370
  H      5.853318  -10.901763   -0.380078
  H      6.584702  -10.263350   -3.268864
  H      5.290919   -9.534594   -2.322800
  H      6.096681   -8.730655    0.097081
  H     10.081982   -7.263570   -2.399925
  H      8.583232   -8.983941   -3.353772
  H      8.434836  -13.432745    0.086190
  H      6.802194  -13.847034   -0.463066
  H      4.373397  -11.674647   -2.514441
  H      5.506668  -13.029937   -2.432792
  H      9.362558   -5.783373    0.726927
  H     13.176496  -14.693515    0.405234
  H     14.448466  -13.079155    1.952094
  H     15.625100  -15.006583    0.935557
  H     16.009647  -14.007500   -0.491848
  H     14.640099  -15.640896   -1.602126
  H     13.319727  -10.194557    0.857053
  H      9.471622  -12.973541    2.145474
  H     11.683300  -13.996873    1.840814
  H     12.195221   -9.788234   -3.337011
  H     11.766260   -9.308846   -1.674057
  H     13.458516   -9.193637   -2.233063
  H     10.193073  -16.606549   -0.595550
  H     10.563839  -16.845333   -2.327858
  H     11.613080  -17.567389   -1.082142
  H      6.640610   -6.654377    3.033251
  H      5.619415   -6.993487    1.614502
  H      6.577247   -8.303899    2.363540
  H     14.624043  -11.695386   -0.470989
  H      7.412513  -11.883882    1.459638
  H      4.871489  -12.909516   -0.057969
  H      8.965073   -9.514950    1.567743
  H     11.603808   -6.989830    1.029073
  H     12.643937   -8.076687    1.997155
  H     12.662191   -8.157445    0.214977

----------------------------
CARTESIAN COORDINATES (A.U.)
----------------------------
  NO LB      ZA    FRAG     MASS         X           Y           Z
   0 C     6.0000    0    12.011   22.463453  -22.703477   -3.531076
   1 C     6.0000    0    12.011   23.234809  -25.158633   -2.921363
   2 C     6.0000    0    12.011   21.485753  -27.142883   -2.993826
   3 C     6.0000    0    12.011   18.980343  -26.639666   -3.588274
   4 C     6.0000    0    12.011   18.203507  -24.194865   -4.117747
   5 C     6.0000    0    12.011   19.948991  -22.240390   -4.109671
   6 C     6.0000    0    12.011   15.467513  -23.613206   -4.604447
   7 C     6.0000    0    12.011   14.248432  -22.530296   -2.198796
   8 C     6.0000    0    12.011   11.666594  -21.241152   -2.593331
   9 C     6.0000    0    12.011   11.873611  -18.876309   -4.265886
  10 C     6.0000    0    12.011   13.681090  -16.961797   -3.194993
  11 C     6.0000    0    12.011   13.188114  -15.911437   -0.829773
  12 C     6.0000    0    12.011   14.785625  -14.122333    0.196174
  13 C     6.0000    0    12.011   16.909137  -13.305985   -1.173094
  14 C     6.0000    0    12.011   17.415363  -14.368742   -3.504477
  15 C     6.0000    0    12.011   15.814037  -16.190359   -4.498476
  16 C     6.0000    0    12.011   14.043999  -24.620396   -0.193782
  17 C     6.0000    0    12.011    9.587658  -23.052932   -3.511162
  18 O     8.0000    0    15.999   22.426083  -29.482554   -2.455395
  19 O     8.0000    0    15.999   24.313275  -20.907828   -3.490868
  20 O     8.0000    0    15.999   25.748774  -25.592995   -2.396636
  21 O     8.0000    0    15.999   18.429039  -11.467544   -0.210597
  22 O     8.0000    0    15.999   14.494271  -12.985158    2.522270
  23 C     6.0000    0    12.011   26.324977  -26.423375    0.106054
  24 C     6.0000    0    12.011   26.475508  -24.108778    1.887303
  25 C     6.0000    0    12.011   23.876737  -22.986515    2.374174
  26 C     6.0000    0    12.011   28.872725  -27.780959   -0.101548
  27 O     8.0000    0    15.999   28.664051  -29.983087   -1.559584
  28 C     6.0000    0    12.011   23.543863  -20.397129    2.086030
  29 C     6.0000    0    12.011   21.191250  -19.305468    2.391949
  30 C     6.0000    0    12.011   19.117809  -20.828546    3.019117
  31 C     6.0000    0    12.011   19.477722  -23.382870    3.442601
  32 C     6.0000    0    12.011   21.842379  -24.456920    3.122561
  33 C     6.0000    0    12.011   23.691991  -18.465152   -4.341977
  34 C     6.0000    0    12.011   20.780166  -31.569235   -2.518080
  35 C     6.0000    0    12.011   12.396136  -13.677255    4.001360
  36 O     8.0000    0    15.999   28.153664  -22.335383    0.855540
  37 O     8.0000    0    15.999   12.934401  -23.772525    2.070056
  38 O     8.0000    0    15.999    8.106242  -23.994277   -1.511030
  39 O     8.0000    0    15.999   20.672844  -16.770050    2.139348
  40 O     8.0000    0    15.999   16.760963  -19.778966    3.250006
  41 C     6.0000    0    12.011   22.742502  -15.092580    2.065511
  42 H     1.0000    0     1.008   17.613105  -28.148376   -3.648324
  43 H     1.0000    0     1.008   19.310006  -20.353338   -4.531424
  44 H     1.0000    0     1.008   14.479548  -25.323010   -5.193638
  45 H     1.0000    0     1.008   15.328784  -22.227981   -6.121079
  46 H     1.0000    0     1.008   15.526750  -21.078959   -1.455788
  47 H     1.0000    0     1.008   11.061168  -20.601347   -0.718243
  48 H     1.0000    0     1.008   12.443284  -19.394920   -6.177257
  49 H     1.0000    0     1.008    9.998388  -18.017772   -4.389456
  50 H     1.0000    0     1.008   11.521057  -16.498546    0.183457
  51 H     1.0000    0     1.008   19.052185  -13.726158   -4.535201
  52 H     1.0000    0     1.008   16.219959  -16.977188   -6.337710
  53 H     1.0000    0     1.008   15.939530  -25.384209    0.162876
  54 H     1.0000    0     1.008   12.854284  -26.167102   -0.875068
  55 H     1.0000    0     1.008    8.264523  -22.061885   -4.751605
  56 H     1.0000    0     1.008   10.406095  -24.623012   -4.597310
  57 H     1.0000    0     1.008   17.692670  -10.928992    1.373693
  58 H     1.0000    0     1.008   24.899969  -27.766719    0.765782
  59 H     1.0000    0     1.008   27.303643  -24.716021    3.688923
  60 H     1.0000    0     1.008   29.527160  -28.358332    1.767947
  61 H     1.0000    0     1.008   30.253848  -26.470339   -0.929458
  62 H     1.0000    0     1.008   27.665778  -29.557010   -3.027579
  63 H     1.0000    0     1.008   25.170636  -19.264921    1.619595
  64 H     1.0000    0     1.008   17.898771  -24.516440    4.054359
  65 H     1.0000    0     1.008   22.078237  -26.450256    3.478633
  66 H     1.0000    0     1.008   23.045629  -18.497082   -6.306037
  67 H     1.0000    0     1.008   22.235008  -17.591169   -3.163509
  68 H     1.0000    0     1.008   25.432910  -17.373455   -4.219877
  69 H     1.0000    0     1.008   19.262117  -31.381830   -1.125426
  70 H     1.0000    0     1.008   19.962763  -31.833065   -4.399014
  71 H     1.0000    0     1.008   21.945540  -33.197553   -2.044952
  72 H     1.0000    0     1.008   12.548935  -12.574950    5.732013
  73 H     1.0000    0     1.008   10.619154  -13.215776    3.050968
  74 H     1.0000    0     1.008   12.429196  -15.692094    4.466443
  75 H     1.0000    0     1.008   27.635436  -22.101076   -0.890039
  76 H     1.0000    0     1.008   14.007620  -22.457282    2.758316
  77 H     1.0000    0     1.008    9.205779  -24.395450   -0.109545
  78 H     1.0000    0     1.008   16.941532  -17.980649    2.962605
  79 H     1.0000    0     1.008   21.928020  -13.208865    1.944666
  80 H     1.0000    0     1.008   23.893578  -15.262727    3.774076
  81 H     1.0000    0     1.008   23.928073  -15.415337    0.406247

--------------------------------
INTERNAL COORDINATES (ANGSTROEM)
--------------------------------
 C      0   0   0     0.000000000000     0.00000000     0.00000000
 C      1   0   0     1.399523959122     0.00000000     0.00000000
 C      2   1   0     1.400240884747   119.80412634     0.00000000
 C      3   2   1     1.388389749219   119.57636439   357.83760928
 C      4   3   2     1.386087230693   120.53256385     0.23352232
 C      5   4   3     1.386681457593   119.86676920     1.42791559
 C      5   4   3     1.502422510364   120.77526437   183.80960344
 C      7   5   4     1.537895662063   109.79603540    99.36779892
 C      8   7   5     1.541299758999   115.12736260   165.38535294
 C      9   8   7     1.536690601930   112.04071166   295.59714163
 C     10   9   8     1.504125154846   112.13890203   302.23938714
 C     11  10   9     1.394113029997   119.19624368   298.80317319
 C     12  11  10     1.380483178154   120.79170466   180.93882595
 C     13  12  11     1.405124767171   119.85283185     1.28579704
 C     14  13  12     1.382060840395   119.35563379   357.95838528
 C     11  10   9     1.384346703424   121.96301676   119.39876928
 C      8   7   5     1.536473108686   109.44574181   290.50241905
 C      9   8   7     1.537979855090   113.63637900    63.97710151
 O      3   2   1     1.364434882087   115.70077581   177.83494478
 O      1   2   3     1.364396307777   115.70095444   182.10539235
 O      2   1   3     1.378304036633   118.86622090   176.39380329
 O     14  13  12     1.361165811415   119.95544309   177.30803633
 O     13  12  11     1.378786306664   125.58722690   180.75034638
 C     21   2   1     1.428288499920   116.36962175   116.26433117
 C     24  21   2     1.547593772593   109.40563819   277.28633315
 C     25  24  21     1.519957752951   111.46315122    71.55275285
 C     24  21   2     1.531613943694   105.40941349   157.04978273
 O     27  24  21     1.401948253024   111.10142190   294.08615442
 C     26  25  24     1.389909183858   118.76775505   229.40788567
 C     29  26  25     1.381963136240   120.89187568   176.95207811
 C     30  29  26     1.401297286579   119.51731949     0.46650450
 C     31  30  29     1.383314552879   119.51028530     3.10460138
 C     32  31  30     1.384748077944   120.37545099   356.65719927
 C     20   1   2     1.407755421691   117.83514415   173.55106816
 C     19   3   2     1.406776369395   118.78580391   180.63567427
 C     23  13  12     1.406942343739   118.11758153   359.79165051
 O     25  24  21     1.402636256044   108.96685978   307.22498766
 O     17   8   7     1.407557253286   112.80746478   180.18629189
 O     18   9   8     1.408173257116   112.41839211    95.56935960
 O     30  29  26     1.375951804294   125.15794328   180.20057565
 O     31  30  29     1.370727506594   120.03229714   182.03382202
 C     40  30  29     1.410318943641   117.49074799   346.60646700
 H      4   3   2     1.077905794595   120.37005042   180.08874521
 H      6   5   4     1.077644702965   118.78299597   179.81604331
 H      7   5   4     1.090496751241   109.93972950   338.01388663
 H      7   5   4     1.089419693293   109.21253248   219.22022969
 H      8   7   5     1.096372643857   107.40125935    46.86938284
 H      9   8   7     1.096284584051   105.85106956   179.43580739
 H     10   9   8     1.090519128255   110.42443866    65.38945078
 H     10   9   8     1.093339306116   107.94707025   182.59008808
 H     12  11  10     1.078069387569   118.99532827     0.12841669
 H     15  14  13     1.078599230888   118.60563805   180.04888583
 H     16  11  10     1.080177076707   119.82981935   359.72662531
 H     17   8   7     1.097791469465   108.62827508    57.16490891
 H     17   8   7     1.093729786819   110.58522399   298.95016827
 H     18   9   8     1.093690448126   110.39867340   212.85991763
 H     18   9   8     1.099200234692   110.76203029   331.82400512
 H     22  14  13     0.967432770386   107.26624329   357.58922773
 H     24  21   2     1.093549564719   110.41390136    39.51554295
 H     25  24  21     1.097374750439   108.53897775   191.82475403
 H     27  24  21     1.091780768860   110.21134884   175.75824797
 H     27  24  21     1.098684277962   108.54617815    56.34980941
 H     28  27  24     0.966107024023   106.95410979    44.35395197
 H     29  26  25     1.077476254948   118.16851231   356.89129732
 H     32  31  30     1.078316384765   119.04694775   175.65476407
 H     33  32  31     1.078769960855   118.98119836   179.52400903
 H     34  20   1     1.094301752085   111.26502562   300.57311289
 H     34  20   1     1.094185909352   111.73582491    62.82142791
 H     34  20   1     1.089322476952   105.69202863   182.15591989
 H     35  19   3     1.094652179258   111.55339533   298.27636006
 H     35  19   3     1.094216113696   111.49054638    61.04881263
 H     35  19   3     1.088790421945   105.37270912   179.62991756
 H     36  23  13     1.088817778165   105.65614359   179.63798085
 H     36  23  13     1.093986312923   111.37424241   298.24130715
 H     36  23  13     1.094382974189   111.47532717    60.93139512
 H     37  25  24     0.971513274332   106.06815581    50.12748416
 H     38  17   8     0.969328245466   107.71336306   298.32185725
 H     39  18   9     0.966249286422   108.62632844   318.68630578
 H     41  31  30     0.968429826798   107.12115227   358.22073621
 H     42  40  30     1.087889310321   105.70524240   182.40416267
 H     42  40  30     1.093889870091   110.96033171   301.81456890
 H     42  40  30     1.092581553969   111.70282999    64.13662960

---------------------------
INTERNAL COORDINATES (A.U.)
---------------------------
 C      0   0   0     0.000000000000     0.00000000     0.00000000
 C      1   0   0     2.644717000603     0.00000000     0.00000000
 C      2   1   0     2.646071793692   119.80412634     0.00000000
 C      3   2   1     2.623676393167   119.57636439   357.83760928
 C      4   3   2     2.619325263735   120.53256385     0.23352232
 C      5   4   3     2.620448189837   119.86676920     1.42791559
 C      5   4   3     2.839167082026   120.77526437   183.80960344
 C      7   5   4     2.906201623845   109.79603540    99.36779892
 C      8   7   5     2.912634434787   115.12736260   165.38535294
 C      9   8   7     2.903924390219   112.04071166   295.59714163
 C     10   9   8     2.842384613801   112.13890203   302.23938714
 C     11  10   9     2.634491826426   119.19624368   298.80317319
 C     12  11  10     2.608735139196   120.79170466   180.93882595
 C     13  12  11     2.655300993943   119.85283185     1.28579704
 C     14  13  12     2.611716488764   119.35563379   357.95838528
 C     11  10   9     2.616036143868   121.96301676   119.39876928
 C      8   7   5     2.903513387552   109.44574181   290.50241905
 C      9   8   7     2.906360725607   113.63637900    63.97710151
 O      3   2   1     2.578408254713   115.70077581   177.83494478
 O      1   2   3     2.578335359832   115.70095444   182.10539235
 O      2   1   3     2.604617158515   118.86622090   176.39380329
 O     14  13  12     2.572230606431   119.95544309   177.30803633
 O     13  12  11     2.605528516796   125.58722690   180.75034638
 C     21   2   1     2.699074105078   116.36962175   116.26433117
 C     24  21   2     2.924528396764   109.40563819   277.28633315
 C     25  24  21     2.872303888208   111.46315122    71.55275285
 C     24  21   2     2.894330896477   105.40941349   157.04978273
 O     27  24  21     2.649298252144   111.10142190   294.08615442
 C     26  25  24     2.626547708514   118.76775505   229.40788567
 C     29  26  25     2.611531854668   120.89187568   176.95207811
 C     30  29  26     2.648068103842   119.51731949     0.46650450
 C     31  30  29     2.614085662009   119.51028530     3.10460138
 C     32  31  30     2.616794631789   120.37545099   356.65719927
 C     20   1   2     2.660272210539   117.83514415   173.55106816
 C     19   3   2     2.658422069828   118.78580391   180.63567427
 C     23  13  12     2.658735715884   118.11758153   359.79165051
 O     25  24  21     2.650598389432   108.96685978   307.22498766
 O     17   8   7     2.659897726525   112.80746478   180.18629189
 O     18   9   8     2.661061805061   112.41839211    95.56935960
 O     30  29  26     2.600172083591   125.15794328   180.20057565
 O     31  30  29     2.590299591696   120.03229714   182.03382202
 C     40  30  29     2.665116564962   117.49074799   346.60646700
 H      4   3   2     2.036946749952   120.37005042   180.08874521
 H      6   5   4     2.036453358276   118.78299597   179.81604331
 H      7   5   4     2.060740209776   109.93972950   338.01388663
 H      7   5   4     2.058704865224   109.21253248   219.22022969
 H      8   7   5     2.071844037612   107.40125935    46.86938284
 H      9   8   7     2.071677628696   105.85106956   179.43580739
 H     10   9   8     2.060782496205   110.42443866    65.38945078
 H     10   9   8     2.066111860011   107.94707025   182.59008808
 H     12  11  10     2.037255895870   118.99532827     0.12841669
 H     15  14  13     2.038257154635   118.60563805   180.04888583
 H     16  11  10     2.041238851116   119.82981935   359.72662531
 H     17   8   7     2.074525229444   108.62827508    57.16490891
 H     17   8   7     2.066849761600   110.58522399   298.95016827
 H     18   9   8     2.066775422244   110.39867340   212.85991763
 H     18   9   8     2.077187409909   110.76203029   331.82400512
 H     22  14  13     1.828182989011   107.26624329   357.58922773
 H     24  21   2     2.066509191187   110.41390136    39.51554295
 H     25  24  21     2.073737744610   108.53897775   191.82475403
 H     27  24  21     2.063166651427   110.21134884   175.75824797
 H     27  24  21     2.076212392993   108.54617815    56.34980941
 H     28  27  24     1.825677691462   106.95410979    44.35395197
 H     29  26  25     2.036135037654   118.16851231   356.89129732
 H     32  31  30     2.037722652926   119.04694775   175.65476407
 H     33  32  31     2.038579787517   118.98119836   179.52400903
 H     34  20   1     2.067930619310   111.26502562   300.57311289
 H     34  20   1     2.067711708270   111.73582491    62.82142791
 H     34  20   1     2.058521152964   105.69202863   182.15591989
 H     35  19   3     2.068592830697   111.55339533   298.27636006
 H     35  19   3     2.067768786209   111.49054638    61.04881263
 H     35  19   3     2.057515714713   105.37270912   179.62991756
 H     36  23  13     2.057567410477   105.65614359   179.63798085
 H     36  23  13     2.067334525683   111.37424241   298.24130715
 H     36  23  13     2.068084106844   111.47532717    60.93139512
 H     37  25  24     1.835894023956   106.06815581    50.12748416
 H     38  17   8     1.831764917805   107.71336306   298.32185725
 H     39  18   9     1.825946528435   108.62632844   318.68630578
 H     41  31  30     1.830067152570   107.12115227   358.22073621
 H     42  40  30     2.055812860527   105.70524240   182.40416267
 H     42  40  30     2.067152275142   110.96033171   301.81456890
 H     42  40  30     2.064679915975   111.70282999    64.13662960

---------------------
BASIS SET INFORMATION
---------------------
There are 3 groups of distinct atoms

 Group   1 Type C   : 11s6p2d1f contracted to 5s3p2d1f pattern {62111/411/11/1}
 Group   2 Type O   : 11s6p2d1f contracted to 5s3p2d1f pattern {62111/411/11/1}
 Group   3 Type H   : 5s1p contracted to 3s1p pattern {311/1}

Atom   0C    basis set group =>   1
Atom   1C    basis set group =>   1
Atom   2C    basis set group =>   1
Atom   3C    basis set group =>   1
Atom   4C    basis set group =>   1
Atom   5C    basis set group =>   1
Atom   6C    basis set group =>   1
Atom   7C    basis set group =>   1
Atom   8C    basis set group =>   1
Atom   9C    basis set group =>   1
Atom  10C    basis set group =>   1
Atom  11C    basis set group =>   1
Atom  12C    basis set group =>   1
Atom  13C    basis set group =>   1
Atom  14C    basis set group =>   1
Atom  15C    basis set group =>   1
Atom  16C    basis set group =>   1
Atom  17C    basis set group =>   1
Atom  18O    basis set group =>   2
Atom  19O    basis set group =>   2
Atom  20O    basis set group =>   2
Atom  21O    basis set group =>   2
Atom  22O    basis set group =>   2
Atom  23C    basis set group =>   1
Atom  24C    basis set group =>   1
Atom  25C    basis set group =>   1
Atom  26C    basis set group =>   1
Atom  27O    basis set group =>   2
Atom  28C    basis set group =>   1
Atom  29C    basis set group =>   1
Atom  30C    basis set group =>   1
Atom  31C    basis set group =>   1
Atom  32C    basis set group =>   1
Atom  33C    basis set group =>   1
Atom  34C    basis set group =>   1
Atom  35C    basis set group =>   1
Atom  36O    basis set group =>   2
Atom  37O    basis set group =>   2
Atom  38O    basis set group =>   2
Atom  39O    basis set group =>   2
Atom  40O    basis set group =>   2
Atom  41C    basis set group =>   1
Atom  42H    basis set group =>   3
Atom  43H    basis set group =>   3
Atom  44H    basis set group =>   3
Atom  45H    basis set group =>   3
Atom  46H    basis set group =>   3
Atom  47H    basis set group =>   3
Atom  48H    basis set group =>   3
Atom  49H    basis set group =>   3
Atom  50H    basis set group =>   3
Atom  51H    basis set group =>   3
Atom  52H    basis set group =>   3
Atom  53H    basis set group =>   3
Atom  54H    basis set group =>   3
Atom  55H    basis set group =>   3
Atom  56H    basis set group =>   3
Atom  57H    basis set group =>   3
Atom  58H    basis set group =>   3
Atom  59H    basis set group =>   3
Atom  60H    basis set group =>   3
Atom  61H    basis set group =>   3
Atom  62H    basis set group =>   3
Atom  63H    basis set group =>   3
Atom  64H    basis set group =>   3
Atom  65H    basis set group =>   3
Atom  66H    basis set group =>   3
Atom  67H    basis set group =>   3
Atom  68H    basis set group =>   3
Atom  69H    basis set group =>   3
Atom  70H    basis set group =>   3
Atom  71H    basis set group =>   3
Atom  72H    basis set group =>   3
Atom  73H    basis set group =>   3
Atom  74H    basis set group =>   3
Atom  75H    basis set group =>   3
Atom  76H    basis set group =>   3
Atom  77H    basis set group =>   3
Atom  78H    basis set group =>   3
Atom  79H    basis set group =>   3
Atom  80H    basis set group =>   3
Atom  81H    basis set group =>   3
---------------------------------
AUXILIARY/J BASIS SET INFORMATION
---------------------------------
There are 3 groups of distinct atoms

 Group   1 Type C   : 12s5p4d2f1g contracted to 6s4p3d1f1g pattern {711111/2111/211/2/1}
 Group   2 Type O   : 12s5p4d2f1g contracted to 6s4p3d1f1g pattern {711111/2111/211/2/1}
 Group   3 Type H   : 5s2p1d contracted to 3s1p1d pattern {311/2/1}

Atom   0C    basis set group =>   1
Atom   1C    basis set group =>   1
Atom   2C    basis set group =>   1
Atom   3C    basis set group =>   1
Atom   4C    basis set group =>   1
Atom   5C    basis set group =>   1
Atom   6C    basis set group =>   1
Atom   7C    basis set group =>   1
Atom   8C    basis set group =>   1
Atom   9C    basis set group =>   1
Atom  10C    basis set group =>   1
Atom  11C    basis set group =>   1
Atom  12C    basis set group =>   1
Atom  13C    basis set group =>   1
Atom  14C    basis set group =>   1
Atom  15C    basis set group =>   1
Atom  16C    basis set group =>   1
Atom  17C    basis set group =>   1
Atom  18O    basis set group =>   2
Atom  19O    basis set group =>   2
Atom  20O    basis set group =>   2
Atom  21O    basis set group =>   2
Atom  22O    basis set group =>   2
Atom  23C    basis set group =>   1
Atom  24C    basis set group =>   1
Atom  25C    basis set group =>   1
Atom  26C    basis set group =>   1
Atom  27O    basis set group =>   2
Atom  28C    basis set group =>   1
Atom  29C    basis set group =>   1
Atom  30C    basis set group =>   1
Atom  31C    basis set group =>   1
Atom  32C    basis set group =>   1
Atom  33C    basis set group =>   1
Atom  34C    basis set group =>   1
Atom  35C    basis set group =>   1
Atom  36O    basis set group =>   2
Atom  37O    basis set group =>   2
Atom  38O    basis set group =>   2
Atom  39O    basis set group =>   2
Atom  40O    basis set group =>   2
Atom  41C    basis set group =>   1
Atom  42H    basis set group =>   3
Atom  43H    basis set group =>   3
Atom  44H    basis set group =>   3
Atom  45H    basis set group =>   3
Atom  46H    basis set group =>   3
Atom  47H    basis set group =>   3
Atom  48H    basis set group =>   3
Atom  49H    basis set group =>   3
Atom  50H    basis set group =>   3
Atom  51H    basis set group =>   3
Atom  52H    basis set group =>   3
Atom  53H    basis set group =>   3
Atom  54H    basis set group =>   3
Atom  55H    basis set group =>   3
Atom  56H    basis set group =>   3
Atom  57H    basis set group =>   3
Atom  58H    basis set group =>   3
Atom  59H    basis set group =>   3
Atom  60H    basis set group =>   3
Atom  61H    basis set group =>   3
Atom  62H    basis set group =>   3
Atom  63H    basis set group =>   3
Atom  64H    basis set group =>   3
Atom  65H    basis set group =>   3
Atom  66H    basis set group =>   3
Atom  67H    basis set group =>   3
Atom  68H    basis set group =>   3
Atom  69H    basis set group =>   3
Atom  70H    basis set group =>   3
Atom  71H    basis set group =>   3
Atom  72H    basis set group =>   3
Atom  73H    basis set group =>   3
Atom  74H    basis set group =>   3
Atom  75H    basis set group =>   3
Atom  76H    basis set group =>   3
Atom  77H    basis set group =>   3
Atom  78H    basis set group =>   3
Atom  79H    basis set group =>   3
Atom  80H    basis set group =>   3
Atom  81H    basis set group =>   3
--------------------------------------------------------------------------
WARNING: There is at least one non-excluded one OpenFabrics device found,
but there are no active ports detected (or Open MPI was unable to use
them).  This is most certainly not what you wanted.  Check your
cables, subnet manager configuration, etc.  The openib BTL will be
ignored for this job.

  Local host: c08b01n06
--------------------------------------------------------------------------
--------------------------------------------------------------------------
WARNING: There was an error initializing an OpenFabrics device.

  Local host:   c08b01n06
  Local device: mlx5_0
--------------------------------------------------------------------------
[c08b01n06:2630216] 2 more processes have sent help message help-mpi-btl-openib.txt / no active ports found
[c08b01n06:2630216] Set MCA parameter "orte_base_help_aggregate" to 0 to see all help / error messages
[c08b01n06:2630216] 60 more processes have sent help message help-mpi-btl-openib.txt / error in device init


           ************************************************************
           *        Program running with 64 parallel MPI-processes    *
           *              working on a common directory               *
           ************************************************************
------------------------------------------------------------------------------
                             ORCA STARTUP CALCULATIONS
                           -- RI-GTO INTEGRALS CHOSEN --
------------------------------------------------------------------------------
------------------------------------------------------------------------------
                   ___                                                        
                  /   \      - P O W E R E D   B Y -                         
                 /     \                                                     
                 |  |  |   _    _      __       _____    __    __             
                 |  |  |  | |  | |    /  \     |  _  \  |  |  /  |          
                  \  \/   | |  | |   /    \    | | | |  |  | /  /          
                 / \  \   | |__| |  /  /\  \   | |_| |  |  |/  /          
                |  |  |   |  __  | /  /__\  \  |    /   |      \           
                |  |  |   | |  | | |   __   |  |    \   |  |\   \          
                \     /   | |  | | |  |  |  |  | |\  \  |  | \   \       
                 \___/    |_|  |_| |__|  |__|  |_| \__\ |__|  \__/        
                                                                              
                      - O R C A' S   B I G   F R I E N D -                    
                                      &                                       
                       - I N T E G R A L  F E E D E R -                       
                                                                              
 v1 FN, 2020, v2 2021, v3 2022-2024                                           
------------------------------------------------------------------------------


----------------------
SHARK INTEGRAL PACKAGE
----------------------

Number of atoms                             ...     82
Number of basis functions                   ...   1542
Number of shells                            ...    622
Maximum angular momentum                    ...      3
Integral batch strategy                     ... SHARK/LIBINT Hybrid
RI-J (if used) integral strategy            ... SPLIT-RIJ (Revised 2003 algorithm where possible)
Printlevel                                  ...      1
Contraction scheme used                     ... SEGMENTED contraction
Prescreening option                         ... SCHWARTZ
   Thresh                                   ... 2.500e-11
   Tcut                                     ... 2.500e-12
   Tpresel                                  ... 2.500e-12 
Coulomb Range Separation                    ... NOT USED
Exchange Range Separation                   ... NOT USED
Multipole approximations                    ... NOT USED
Finite Nucleus Model                        ... NOT USED
CABS basis                                  ... NOT available
Auxiliary Coulomb fitting basis             ... AVAILABLE
   # of basis functions in Aux-J            ...   2498
   # of shells in Aux-J                     ...    830
   Maximum angular momentum in Aux-J        ...      4
Auxiliary J/K fitting basis                 ... NOT available
Auxiliary Correlation fitting basis         ... NOT available
Auxiliary 'external' fitting basis          ... NOT available

Checking pre-screening integrals            ... done (  0.3 sec) Dimension = 622
   => SHARK Basis and OBASIS are compatible. Storing Pre-screening
Shell pair information
Shell pair cut-off parameter TPreSel        ...   2.5e-12
Total number of shell pairs                 ...    193753
Shell pairs after pre-screening             ...    116416
Total number of primitive shell pairs       ...    584784
Primitive shell pairs kept                  ...    219671
          la=0 lb=0:  32391 shell pairs
          la=1 lb=0:  34732 shell pairs
          la=1 lb=1:   9418 shell pairs
          la=2 lb=0:  15797 shell pairs
          la=2 lb=1:   8660 shell pairs
          la=2 lb=2:   1985 shell pairs
          la=3 lb=0:   7205 shell pairs
          la=3 lb=1:   4040 shell pairs
          la=3 lb=2:   1763 shell pairs
          la=3 lb=3:    425 shell pairs

Checking whether 4 symmetric matrices of dimension 1542 fit in memory
:Max Core in MB      =   6000.00
 MB in use           =    139.49
 MB left             =   5860.51
 MB needed           =     36.31
 Data fit in memory  = YES
Calculating RI/J V-Matrix + Cholesky decomp.... done (  3.4 sec)
Calculating Nuclear repulsion               ... done (  0.1 sec) ENN=   5764.068272793643 Eh

Diagonalization of the overlap matrix:
Smallest eigenvalue                        ... 3.175e-06
Time for diagonalization                   ...   23.047 sec
Threshold for overlap eigenvalues          ... 1.000e-07
Number of eigenvalues below threshold      ... 0
Time for construction of square roots      ...    2.172 sec
Total time needed                          ...   25.523 sec

-------------------
DFT GRID GENERATION
-------------------

General Integration Accuracy     IntAcc      ... 4.388
Radial Grid Type                 RadialGrid  ... OptM3 with GC (2021)
Angular Grid (max. ang.)         AngularGrid ... 4 (Lebedev-302)
Angular grid pruning method      GridPruning ... 4 (adaptive)
Weight generation scheme         WeightScheme... mBecke (2022)
Basis function cutoff            BFCut       ... 1.0000e-11
Integration weight cutoff        WCut        ... 1.0000e-14
Partially contracted basis set               ... off
Rotationally invariant grid construction     ... off
Angular grids for H and He will be reduced by one unit

Total number of grid points                  ...   373427
Total number of batches                      ...     5872
Average number of points per batch           ...       63
Average number of grid points per atom       ...     4554

--------------------
COSX GRID GENERATION
--------------------

GRIDX 1
-------
General Integration Accuracy     IntAcc      ... 3.816
Radial Grid Type                 RadialGrid  ... OptM3 with GC (2021)
Angular Grid (max. ang.)         AngularGrid ... 1 (Lebedev-50)
Angular grid pruning method      GridPruning ... 4 (adaptive)
Weight generation scheme         WeightScheme... mBecke (2022)
Basis function cutoff            BFCut       ... 1.0000e-11
Integration weight cutoff        WCut        ... 1.0000e-14
Partially contracted basis set               ... on
Rotationally invariant grid construction     ... off
Angular grids for H and He will be reduced by one unit

Total number of grid points                  ...    47217
Total number of batches                      ...      414
Average number of points per batch           ...      114
Average number of grid points per atom       ...      576
UseSFitting                                  ... on

GRIDX 2
-------
General Integration Accuracy     IntAcc      ... 4.020
Radial Grid Type                 RadialGrid  ... OptM3 with GC (2021)
Angular Grid (max. ang.)         AngularGrid ... 2 (Lebedev-110)
Angular grid pruning method      GridPruning ... 4 (adaptive)
Weight generation scheme         WeightScheme... mBecke (2022)
Basis function cutoff            BFCut       ... 1.0000e-11
[...]
freq.     629.32  E(vib)   ...       0.09 
freq.     653.06  E(vib)   ...       0.08 
freq.     659.54  E(vib)   ...       0.08 
freq.     685.48  E(vib)   ...       0.07 
freq.     726.84  E(vib)   ...       0.06 
freq.     737.97  E(vib)   ...       0.06 
freq.     745.60  E(vib)   ...       0.06 
freq.     751.04  E(vib)   ...       0.06 
freq.     756.38  E(vib)   ...       0.06 
freq.     770.15  E(vib)   ...       0.05 
freq.     779.09  E(vib)   ...       0.05 
freq.     804.49  E(vib)   ...       0.05 
freq.     811.71  E(vib)   ...       0.05 
freq.     817.80  E(vib)   ...       0.05 
freq.     836.82  E(vib)   ...       0.04 
freq.     840.49  E(vib)   ...       0.04 
freq.     857.85  E(vib)   ...       0.04 
freq.     863.78  E(vib)   ...       0.04 
freq.     874.88  E(vib)   ...       0.04 
freq.     879.59  E(vib)   ...       0.04 
freq.     886.33  E(vib)   ...       0.04 
freq.     907.07  E(vib)   ...       0.03 
freq.     918.00  E(vib)   ...       0.03 
freq.     923.16  E(vib)   ...       0.03 
freq.     929.83  E(vib)   ...       0.03 
freq.     946.46  E(vib)   ...       0.03 
freq.     955.17  E(vib)   ...       0.03 
freq.     960.06  E(vib)   ...       0.03 
freq.     964.32  E(vib)   ...       0.03 
freq.     972.50  E(vib)   ...       0.03 
freq.     985.41  E(vib)   ...       0.02 
freq.     996.01  E(vib)   ...       0.02 
freq.    1021.09  E(vib)   ...       0.02 
freq.    1024.83  E(vib)   ...       0.02 
freq.    1038.07  E(vib)   ...       0.02 
freq.    1046.08  E(vib)   ...       0.02 
freq.    1050.21  E(vib)   ...       0.02 
freq.    1056.34  E(vib)   ...       0.02 
freq.    1057.73  E(vib)   ...       0.02 
freq.    1061.49  E(vib)   ...       0.02 
freq.    1080.80  E(vib)   ...       0.02 
freq.    1093.08  E(vib)   ...       0.02 
freq.    1114.18  E(vib)   ...       0.01 
freq.    1115.52  E(vib)   ...       0.01 
freq.    1136.89  E(vib)   ...       0.01 
freq.    1142.13  E(vib)   ...       0.01 
freq.    1145.96  E(vib)   ...       0.01 
freq.    1150.22  E(vib)   ...       0.01 
freq.    1166.24  E(vib)   ...       0.01 
freq.    1170.06  E(vib)   ...       0.01 
freq.    1170.24  E(vib)   ...       0.01 
freq.    1171.31  E(vib)   ...       0.01 
freq.    1172.86  E(vib)   ...       0.01 
freq.    1173.60  E(vib)   ...       0.01 
freq.    1179.42  E(vib)   ...       0.01 
freq.    1182.44  E(vib)   ...       0.01 
freq.    1199.51  E(vib)   ...       0.01 
freq.    1201.14  E(vib)   ...       0.01 
freq.    1207.26  E(vib)   ...       0.01 
freq.    1211.66  E(vib)   ...       0.01 
freq.    1214.75  E(vib)   ...       0.01 
freq.    1221.64  E(vib)   ...       0.01 
freq.    1223.31  E(vib)   ...       0.01 
freq.    1226.78  E(vib)   ...       0.01 
freq.    1243.37  E(vib)   ...       0.01 
freq.    1245.53  E(vib)   ...       0.01 
freq.    1247.76  E(vib)   ...       0.01 
freq.    1251.15  E(vib)   ...       0.01 
freq.    1265.26  E(vib)   ...       0.01 
freq.    1271.02  E(vib)   ...       0.01 
freq.    1277.97  E(vib)   ...       0.01 
freq.    1289.57  E(vib)   ...       0.01 
freq.    1292.20  E(vib)   ...       0.01 
freq.    1294.46  E(vib)   ...       0.01 
freq.    1296.86  E(vib)   ...       0.01 
freq.    1316.88  E(vib)   ...       0.01 
freq.    1320.49  E(vib)   ...       0.01 
freq.    1320.72  E(vib)   ...       0.01 
freq.    1340.70  E(vib)   ...       0.01 
freq.    1341.45  E(vib)   ...       0.01 
freq.    1347.43  E(vib)   ...       0.01 
freq.    1356.12  E(vib)   ...       0.01 
freq.    1361.67  E(vib)   ...       0.01 
freq.    1362.76  E(vib)   ...       0.01 
freq.    1374.98  E(vib)   ...       0.01 
freq.    1381.57  E(vib)   ...       0.01 
freq.    1384.26  E(vib)   ...       0.00 
freq.    1395.49  E(vib)   ...       0.00 
freq.    1399.34  E(vib)   ...       0.00 
freq.    1403.30  E(vib)   ...       0.00 
freq.    1406.16  E(vib)   ...       0.00 
freq.    1426.43  E(vib)   ...       0.00 
freq.    1432.53  E(vib)   ...       0.00 
freq.    1437.23  E(vib)   ...       0.00 
freq.    1453.29  E(vib)   ...       0.00 
freq.    1455.49  E(vib)   ...       0.00 
freq.    1456.14  E(vib)   ...       0.00 
freq.    1460.33  E(vib)   ...       0.00 
freq.    1477.10  E(vib)   ...       0.00 
freq.    1478.42  E(vib)   ...       0.00 
freq.    1479.30  E(vib)   ...       0.00 
freq.    1479.42  E(vib)   ...       0.00 
freq.    1480.69  E(vib)   ...       0.00 
freq.    1484.32  E(vib)   ...       0.00 
freq.    1485.07  E(vib)   ...       0.00 
freq.    1488.58  E(vib)   ...       0.00 
freq.    1490.22  E(vib)   ...       0.00 
freq.    1490.92  E(vib)   ...       0.00 
freq.    1491.05  E(vib)   ...       0.00 
freq.    1492.25  E(vib)   ...       0.00 
freq.    1493.61  E(vib)   ...       0.00 
freq.    1495.74  E(vib)   ...       0.00 
freq.    1500.31  E(vib)   ...       0.00 
freq.    1509.68  E(vib)   ...       0.00 
freq.    1515.92  E(vib)   ...       0.00 
freq.    1537.32  E(vib)   ...       0.00 
freq.    1542.45  E(vib)   ...       0.00 
freq.    1544.14  E(vib)   ...       0.00 
freq.    1628.69  E(vib)   ...       0.00 
freq.    1637.14  E(vib)   ...       0.00 
freq.    1643.01  E(vib)   ...       0.00 
freq.    1644.62  E(vib)   ...       0.00 
freq.    1649.00  E(vib)   ...       0.00 
freq.    1650.11  E(vib)   ...       0.00 
freq.    2987.88  E(vib)   ...       0.00 
freq.    3018.88  E(vib)   ...       0.00 
freq.    3019.99  E(vib)   ...       0.00 
freq.    3021.49  E(vib)   ...       0.00 
freq.    3022.30  E(vib)   ...       0.00 
freq.    3025.63  E(vib)   ...       0.00 
freq.    3026.64  E(vib)   ...       0.00 
freq.    3028.79  E(vib)   ...       0.00 
freq.    3030.51  E(vib)   ...       0.00 
freq.    3035.22  E(vib)   ...       0.00 
freq.    3042.11  E(vib)   ...       0.00 
freq.    3045.37  E(vib)   ...       0.00 
freq.    3049.31  E(vib)   ...       0.00 
freq.    3064.20  E(vib)   ...       0.00 
freq.    3082.07  E(vib)   ...       0.00 
freq.    3084.88  E(vib)   ...       0.00 
freq.    3086.27  E(vib)   ...       0.00 
freq.    3089.42  E(vib)   ...       0.00 
freq.    3093.76  E(vib)   ...       0.00 
freq.    3098.15  E(vib)   ...       0.00 
freq.    3104.61  E(vib)   ...       0.00 
freq.    3106.06  E(vib)   ...       0.00 
freq.    3138.28  E(vib)   ...       0.00 
freq.    3143.32  E(vib)   ...       0.00 
freq.    3144.73  E(vib)   ...       0.00 
freq.    3159.42  E(vib)   ...       0.00 
freq.    3172.18  E(vib)   ...       0.00 
freq.    3183.07  E(vib)   ...       0.00 
freq.    3188.38  E(vib)   ...       0.00 
freq.    3197.30  E(vib)   ...       0.00 
freq.    3199.50  E(vib)   ...       0.00 
freq.    3211.73  E(vib)   ...       0.00 
freq.    3215.26  E(vib)   ...       0.00 
freq.    3231.07  E(vib)   ...       0.00 
freq.    3580.62  E(vib)   ...       0.00 
freq.    3619.52  E(vib)   ...       0.00 
freq.    3627.98  E(vib)   ...       0.00 
freq.    3720.30  E(vib)   ...       0.00 
freq.    3728.03  E(vib)   ...       0.00 
freq.    3754.86  E(vib)   ...       0.00 

------------
INNER ENERGY
------------

The inner energy is: U= E(el) + E(ZPE) + E(vib) + E(rot) + E(trans)
    E(el)   - is the total energy from the electronic structure calculation
              = E(kin-el) + E(nuc-el) + E(el-el) + E(nuc-nuc)
    E(ZPE)  - the the zero temperature vibrational energy from the frequency calculation
    E(vib)  - the the finite temperature correction to E(ZPE) due to population
              of excited vibrational states
    E(rot)  - is the rotational thermal energy
    E(trans)- is the translational thermal energy

Summary of contributions to the inner energy U:
Electronic energy                ...  -2032.64042397 Eh
Zero point energy                ...      0.68064890 Eh     427.11 kcal/mol
Thermal vibrational correction   ...      0.03949392 Eh      24.78 kcal/mol
Thermal rotational correction    ...      0.00141627 Eh       0.89 kcal/mol
Thermal translational correction ...      0.00141627 Eh       0.89 kcal/mol
-----------------------------------------------------------------------
Total thermal energy                  -2031.91744861 Eh


Summary of corrections to the electronic energy:
(perhaps to be used in another calculation)
Total thermal correction                  0.04232646 Eh      26.56 kcal/mol
Non-thermal (ZPE) correction              0.68064890 Eh     427.11 kcal/mol
-----------------------------------------------------------------------
Total correction                          0.72297536 Eh     453.67 kcal/mol


--------
ENTHALPY
--------

The enthalpy is H = U + kB*T
                kB is Boltzmann's constant
Total thermal energy              ...  -2031.91744861 Eh 
Thermal Enthalpy correction       ...      0.00094421 Eh       0.59 kcal/mol
-----------------------------------------------------------------------
Total Enthalpy                    ...  -2031.91650440 Eh


Note: Only C1 symmetry has been detected, increase convergence thresholds 
      if your molecule has a higher symmetry. Symmetry factor of 1.0 is   
      used for the rotational entropy correction. 
 

Note: Rotational entropy computed according to Herzberg 
Infrared and Raman Spectra, Chapter V,1, Van Nostrand Reinhold, 1945 
Point Group:  C1, Symmetry Number:   1  
Rotational constants in cm-1:     0.003909     0.002319     0.001919 

Vibrational entropy computed according to the QRRHO of S. Grimme
Chem.Eur.J. 2012 18 9955 using a reference frequency of 100.0 cm-1


-------
ENTROPY
-------

The entropy contributions are T*S = T*(S(el)+S(vib)+S(rot)+S(trans))
     S(el)   - electronic entropy
     S(vib)  - vibrational entropy
     S(rot)  - rotational entropy
     S(trans)- translational entropy
The entropies will be listed as multiplied by the temperature to get
units of energy

Electronic entropy                ...      0.00000000 Eh      0.00 kcal/mol
Vibrational entropy               ...      0.07004951 Eh     43.96 kcal/mol
Rotational entropy                ...      0.01794564 Eh     11.26 kcal/mol
Translational entropy             ...      0.02138181 Eh     13.42 kcal/mol
-----------------------------------------------------------------------
Final entropy term                ...      0.10937696 Eh     68.63 kcal/mol

In case the symmetry of your molecule has not been determined correctly
or in case you have a reason to use a different symmetry number we print 
out the resulting rotational entropy values for sn=1,12:

 non-linear molecules -----------------------------------
|  sn= 1 | S(rot)=       0.01794564 Eh     11.26 kcal/mol|
|  sn= 2 | S(rot)=       0.01729118 Eh     10.85 kcal/mol|
|  sn= 3 | S(rot)=       0.01690835 Eh     10.61 kcal/mol|
|  sn= 4 | S(rot)=       0.01663673 Eh     10.44 kcal/mol|
|  sn= 5 | S(rot)=       0.01642604 Eh     10.31 kcal/mol|
|  sn= 6 | S(rot)=       0.01625389 Eh     10.20 kcal/mol|
|  sn= 7 | S(rot)=       0.01610835 Eh     10.11 kcal/mol|
|  sn= 8 | S(rot)=       0.01598227 Eh     10.03 kcal/mol|
|  sn= 9 | S(rot)=       0.01587106 Eh      9.96 kcal/mol|
|  sn=10 | S(rot)=       0.01577158 Eh      9.90 kcal/mol|
|  sn=11 | S(rot)=       0.01568159 Eh      9.84 kcal/mol|
|  sn=12 | S(rot)=       0.01559944 Eh      9.79 kcal/mol|
 linear molecules ---------------------------------------
|  Dinfh | S(rot)=       0.01123235 Eh      7.05 kcal/mol|
|  Cinfv | S(rot)=       0.01188680 Eh      7.46 kcal/mol|
 --------------------------------------------------------


-------------------
GIBBS FREE ENERGY
-------------------

The Gibbs free energy is G = H - T*S

Total enthalpy                    ...  -2031.91650440 Eh 
Total entropy correction          ...     -0.10937696 Eh    -68.63 kcal/mol
-----------------------------------------------------------------------
Final Gibbs free energy         ...  -2032.02588136 Eh

For completeness - the Gibbs free energy minus the electronic energy
G-E(el)                           ...      0.61454261 Eh    385.63 kcal/mol


Maximum memory used throughout the entire PROP-calculation: 1825.3 MB
--------------------------------------------------------------------------
WARNING: There was an error initializing an OpenFabrics device.

  Local host:   c08b01n06
  Local device: mlx5_0
--------------------------------------------------------------------------
--------------------------------------------------------------------------
WARNING: There is at least one non-excluded one OpenFabrics device found,
but there are no active ports detected (or Open MPI was unable to use
them).  This is most certainly not what you wanted.  Check your
cables, subnet manager configuration, etc.  The openib BTL will be
ignored for this job.

  Local host: c08b01n06
--------------------------------------------------------------------------
[c08b01n06:2722127] 60 more processes have sent help message help-mpi-btl-openib.txt / error in device init
[c08b01n06:2722127] Set MCA parameter "orte_base_help_aggregate" to 0 to see all help / error messages
[c08b01n06:2722127] 2 more processes have sent help message help-mpi-btl-openib.txt / no active ports found

--------------------------------
SUGGESTED CITATIONS FOR THIS RUN
--------------------------------

Below you find a list of papers that are relevant to this ORCA run
We neither can nor want to force you to cite these papers, but we appreciate if you do
You receive ORCA, which is the product of decades of hard work by many enthusiastic individuals, for free
The only thing we kindly ask in return is that you cite our papers,
We deeply appreciate it, if you show your appreciation for ORCA by not just citing the generic ORCA reference.

Please note that relegating all ORCA citations to the supporting information does *not* help us.
SI sections are not indexed - citations you put there will not count into any citation statistics
But we need these citations in order to attract the funding resources that allow us to do what we are doing

Therefore, if you are a happy ORCA user, please consider citing a few of the papers listed below in the main body of your paper

In addition to the list printed below, the program has created the file opt-conf-8.bibtex that contains the list in bibtex format
You can import this file easily into all common literature databanks and citation aid programs


List of essential papers. We consider these as the minimum necessary citations

  1. Neese, F.
     Software update: the ORCA program system, version 6.0
     WIRES Comput. Molec. Sci. 2025 15(1), e70019
     doi.org/10.1002/wcms.7019

List of papers to cite with high priority. The work reported in these papers was absolutely
necessary for this run to complete.
Our perspective: the developers of density functionals and basis sets usually get cited in chemistry papers
Good! But without the algorithms to do something with them, the functionals or basis sets would not do anything.
Hence, in our opinion, the algorithm design and method developments papers are equally worthy of getting cited

  1. Neese, F.
     An improvement of the resolution of the identity approximation for the formation of the Coulomb matrix
     J. Comp. Chem. 2003 24(14), 1740-1747
     doi.org/10.1002/jcc.10318
  2. Neese, F.; Wennmohs, F.; Hansen, A.; Becker, U.
     Efficient, approximate and parallel Hartree-Fock and hybrid DFT calculations. A 'chain-of-spheres' algorithm for the Hartree-Fock exchange
     Chem. Phys. 2009 356(1-3), 98-109
     doi.org/10.1016/j.chemphys.2008.10.036
  3. Bykov, D.; Petrenko, T.; Izsak, R.; Kossmann, S.; Becker, U.; Valeev, E.; Neese, F.
     Efficient implementation of the analytic second derivatives of Hartree-Fock and hybrid DFT energies: a detailed analysis of different approximations
     Molec. Phys. 2015 113 , 1961-1977
     doi.org/10.1080/00268976.2015.1025114
  4. Caldeweyher, E.; Bannwarth, C.; Grimme, S.
     Extension of the D3 dispersion coefficient model
     J. Chem. Phys. 2017 147 , 034112
     doi.org/10.1063/1.4993215
  5. Caldeweyher, E.; Ehlert, S.; Hansen, A.; Neugebauer, H.; Spicher, S.; Bannwarth, C.; Grimme, S.
     A generally applicable atomic-charge dependent London dispersion correction
     J. Chem. Phys. 2019 150 , 154122
     doi.org/10.1063/1.5090222
  6. Garcia-Rates, M.; Neese, F.
     Efficient implementation of the analytical second derivatives of hartree-fock and hybrid DFT energies within the framework of the conductor-like polarizable continuum model
     J. Comput. Chem. 2019 40 , 1816-1828
     doi.org/10.1002/jcc.25833
  7. Caldeweyher, E.; Mewes, J.; Ehlert, S.; Grimme, S.
     Extension and evaluation of the D4 London-dispersion model for periodic systems
     Phys. Chem. Chem. Phys. 2020 22(16), 8499-8512
     doi.org/10.1039/D0CP00502A
  8. Garcia-Rates, M.; Neese, F.
     Effect of the Solute Cavity on the Solvation Energy and its Derivatives within the Framework of the Gaussian Charge Scheme
     J. Comput. Chem. 2020 41 , 922-939
     doi.org/10.1002/jcc.26139
  9. Helmich-Paris, B.; de Souza, B.; Neese, F.; Izsák, R.
     An improved chain of spheres for exchange algorithm
     J. Chem. Phys. 2021 155(10), 104109
     doi.org/10.1063/5.0058766
 10. Neese, F.
     The SHARK Integral Generation and Digestion System
     J. Comp. Chem. 2022 44(3), 381
     doi.org/10.1002/jcc.26942
 11. Wittmann, L.; Gordiy, I.; Friede, M.; Helmich-Paris, B.; Grimme, S.; Hansen, A.; Bursch, M.
     Extension of the D3 and D4 London Dispersion Corrections to the full Actinides Series
     Phys. Chem. Chem. Phys. 2024 26(32), 21379-21394
     doi.org/10.1039/D4CP01514B

List of suggested additional citations. These are papers that are important in the 'surrounding' of 
of this run, or papers that preceded the highly important papers. If you like your results we are grateful for a citation.

  1. Izsak, R.; Neese, F.
     An overlap fitted chain of spheres exchange method
     J. Chem. Phys. 2011 135 , 144105
     doi.org/10.1063/1.3646921
  2. Izsak, R.; Hansen, A.; Neese, F.
     The resolution of identity and chain of spheres approximations for the LPNO-CCSD singles Fock term
     Molec. Phys. 2012 110 , 2413-2417
     doi.org/10.1080/00268976.2012.687466
  3. Neese, F.
     The ORCA program system
     WIRES Comput. Molec. Sci. 2012 2(1), 73-78
     doi.org/10.1002/wcms.81
  4. Izsak, R.; Neese, F.; Klopper, W.
     Robust fitting techniques in the chain of spheres approximation to the Fock exchange: The role of the complementary space
     J. Chem. Phys. 2013 139 , 
     doi.org/10.1063/1.4819264
  5. Neese, F.
     Software update: the ORCA program system, version 4.0
     WIRES Comput. Molec. Sci. 2018 8(1), 1-6
     doi.org/10.1002/wcms.1327
  6. Neese, F.; Wennmohs, F.; Becker, U.; Riplinger, C.
     The ORCA quantum chemistry program package
     J. Chem. Phys. 2020 152(22), 224108
     doi.org/10.1063/5.0004608
  7. Neese, F.
     Software update: The ORCA program system—Version 5.0
     WIRES Comput. Molec. Sci. 2022 12(1), e1606
     doi.org/10.1002/wcms.1606

List of optional additional citations

  1. Neese, F.
     Approximate second-order SCF convergence for spin unrestricted wavefunctions
     Chem. Phys. Lett. 2000 325(1-3), 93-98
     doi.org/10.1016/s0009-2614(00)00662-x

Timings for individual modules:

Sum of individual times          ...    21472.435 sec (= 357.874 min)
Startup calculation              ...     1939.397 sec (=  32.323 min)   9.0 %
SCF iterations                   ...    12371.577 sec (= 206.193 min)  57.6 %
Property integrals               ...     1642.966 sec (=  27.383 min)   7.7 %
SCF Response                     ...     3411.238 sec (=  56.854 min)  15.9 %
Property calculations            ...      796.470 sec (=  13.275 min)   3.7 %
SCF Gradient evaluation          ...     1299.078 sec (=  21.651 min)   6.0 %
Geometry relaxation              ...       11.709 sec (=   0.195 min)   0.1 %
                             ****ORCA TERMINATED NORMALLY****
TOTAL RUN TIME: 0 days 6 hours 5 minutes 27 seconds 461 msec
