
                                 *****************
                                 * O   R   C   A *
                                 *****************

                                            #,                                       
                                            ###                                      
                                            ####                                     
                                            #####                                    
                                            ######                                   
                                           ########,                                 
                                     ,,################,,,,,                         
                               ,,#################################,,                 
                          ,,##########################################,,             
                       ,#########################################, ''#####,          
                    ,#############################################,,   '####,        
                  ,##################################################,,,,####,       
                ,###########''''           ''''###############################       
              ,#####''   ,,,,##########,,,,          '''####'''          '####       
            ,##' ,,,,###########################,,,                        '##       
           ' ,,###''''                  '''############,,,                           
         ,,##''                                '''############,,,,        ,,,,,,###''
      ,#''                                            '''#######################'''  
     '                                                          ''''####''''         
             ,#######,   #######,   ,#######,      ##                                
            ,#'     '#,  ##    ##  ,#'     '#,    #''#        ,####,    ,#,          
            ##       ##  ##   ,#'  ##            #'  '#       #'       ,# #          
            ##       ##  #######   ##           ,######,      #####,      #          
            '#,     ,#'  ##    ##  '#,     ,#' ,#      #,     #,   #      #          
             '#######'   ##     ##  '#######'  #'      '#     '####' #    #          



                #########################################################
                #                        -***-                          #
                #          Department of theory and spectroscopy        #
                #                                                       #
                #                      Frank Neese                      #
                #                                                       #
                #     Directorship, Architecture, Infrastructure        #
                #                    SHARK, DRIVERS                     #
                #        Core code/Algorithms in most modules           #
                #                                                       #
                #        Max Planck Institute fuer Kohlenforschung      #
                #                Kaiser Wilhelm Platz 1                 #
                #                 D-45470 Muelheim/Ruhr                 #
                #                      Germany                          #
                #                                                       #
                #                  All rights reserved                  #
                #                        -***-                          #
                #########################################################


                         Program Version 6.1.0-f.0  -   RELEASE   -


 With contributions from (in alphabetic order):
[Max-Planck-Institut fuer Kohlenforschung]                               
  Daniel Aravena         : Magnetic Suceptibility                        
  Michael Atanasov       : Ab Initio Ligand Field Theory (pilot matlab implementation)
  Alexander A. Auer      : GIAO ZORA, VPT2 properties, NMR spectrum      
  Ute Becker             : All parallelization in ORCA, NUMFREQ, NUMCALC 
  Giovanni Bistoni       : ED, misc. LED, open-shell LED, HFLD           
  Dmytro Bykov           : pre 5.0 version of the SCF Hessian            
  Marcos Casanova-Páez   : Triplet and SCS-CIS(D). UHF-(DLPNO)-IP/EA/STEOM-CCSD. UHF-CVS-IP/STEOM-CCSD   
  Vijay G. Chilkuri      : MRCI spin determinant printing, contributions to CSF-ICE 
  Pauline Colinet        : FMM embedding                                 
  Dipayan Datta          : RHF DLPNO-CCSD density                        
  Achintya Kumar Dutta   : EOM-CC, STEOM-CC                              
  Nicolas Foglia         : Exact transition moments, OPA infrastructure, MCD improvements    
  Dmitry Ganyushin       : Spin-Orbit,Spin-Spin,Magnetic field MRCI      
  Miquel Garcia-Rates    : C-PCM and meta-GGA Hessian, CCSD/C-PCM, Gaussian charge scheme 
  Tiago L. C. Gouveia    : GS-ROHF, GS-ROCIS                             
  Yang Guo               : DLPNO-NEVPT2, F12-NEVPT2, CIM, IAO-localization        
  Andreas Hansen         : Spin unrestricted coupled pair/coupled cluster methods 
  Ingolf Harden          : AUTO-CI MPn and infrastructure                
  Benjamin Helmich-Paris : MC-RPA, TRAH-(SCF,CASSCF), AVAS, COSX integrals, SCF dyn. polar., MC-PDFT, srDFT 
  Lee Huntington         : MR-EOM, pCC                                   
  Robert Izsak           : Overlap fitted RIJCOSX, COSX-SCS-MP3, EOM     
  Riya Kayal             : Wick's Theorem for AUTO-CI, AUTO-CI UHF-CCSDT 
  Emily Kempfer          : AUTO-CI RHF CISDT and CCSDT, approximate NEVPT4
  Christian Kollmar      : KDIIS, OOCD, Brueckner-CCSD(T), CCSD density, CASPT2, CASPT2-K, improved NEVPT2 
  Axel Koslowski         : Symmetry handling                             
  Simone Kossmann        : meta-GGA functionals, TD-DFT gradient, OOMP2, (MP2 Hessian; deprecated post 5.0) 
  Lucas Lang             : DCDCAS, Hyperfine gauge corrections, ICE-SOC+SSC
  Marvin Lechner         : AUTO-CI (C++ implementation), FIC-MRCC        
  Spencer Leger          : CASSCF response                               
  Dagmar Lenk            : GEPOL surface, SMD, ORCA-2-JSON               
  Dimitrios Liakos       : Extrapolation schemes; Compound Job, Property file
  Dimitrios Manganas     : Further ROCIS development; embedding schemes. LFT, Crystal Embedding 
  Dimitrios Pantazis     : SARC Basis sets                               
  Anastasios Papadopoulos: AUTO-CI, single reference methods and gradients 
  Taras Petrenko         : pre 6.0 DFT Hessian and TD-DFT gradient,  ECA, NRVS 
  Petra Pikulova         : Analytic Raman intensities                    
  Peter Pinski           : DLPNO-MP2, DLPNO-MP2 Gradient                 
  Shashank Vittal Rao    : ES-AILFT, MagRelax                            
  Christoph Reimann      : Effective Core Potentials                     
  Marius Retegan         : Local ZFS, SOC                                
  Christoph Riplinger    : Optimizer, TS searches, QM/MM, DLPNO-CCSD(T), (RO)-DLPNO pert. Triples 
  Michael Roemelt        : Original ROCIS implementation, recursive CI coupling coefficients
  Masaaki Saitow         : Open-shell DLPNO-CCSD energy and density      
  Barbara Sandhoefer     : DKH picture change effects                    
  Yorick L. A. Schmerwitz: GMF and freeze-and-release deltaSCF, NEB S-IDPP initial path                    
  Kantharuban Sivalingam : CASSCF convergence/infrastructure, NEVPT2, NEVPT3, NEVPT4(SD), FIC-MRCI and CEPA variants
  Bernardo de Souza      : ESD, SOC TD-DFT                               
  Georgi L. Stoychev     : AutoAux, RI-MP2 NMR, DLPNO-MP2 response, X2C  
  Van Anh Tran           : RI-MP2 g-tensors                              
  Willem Van den Heuvel  : Paramagnetic NMR                              
  Zikuan Wang            : NOTCH, Electric field optimization            
  Frank Wennmohs         : Technical directorship and infrastructure     
  Hang Xu                : AUTO-CI-Response properties                   
                                                                         
[FACCTs GmbH]                                                            
  Markus Bursch, Nicolas Foglia, Miquel Garcia-Rates, Ingolf Harden, Hagen Neugebauer, Anastasios Papadopoulos, 
  Christoph Riplinger, Bernardo de Souza, Georgi L. Stoychev                                                    
                                                                 
  APM, various basis sets, CI-OPT, improved COSX, DLPNO-Multilevel,           
  DOCKER, DRACO, updates on ESD, Fragmentator, GOAT, IRC, LR-CPCM, L-BFGS, MBIS, meta-GGA TD-DFT gradient, ML-optimized integration grids, 
  MM, NACMEs, nearIR, NEB, NEB-TS, NL-DFT gradient (VV10), 2- and 3-layer-ONIOM, interface openCOSMO-RS, QMMM,   
  Crystal-QMMM, RESP, rigid body optimization, SF, symmetry and pop. for TD-DFT, various functionals, SOLVATOR                                   
                                                                         
[Other institutions]                                                     
  V. Asgeirsson          : NEB                                           
  Christoph Bannwarth    : sTDA-DFT, sTD-DFT, PBEh-3c, B97-3c, D3        
  Giovanni Bistoni       : ETS/NOCV, ADLD/ADEX, COVALED                  
  Martin Brehm           : Molecular dynamics                            
  Ronald Cardenas        : ETS/NOCV                                      
  Martina Colucci        : COVALED                                       
  Sebastian Ehlert       : rSCAN, r2SCAN, r2SCAN-3c, D4, dhf basis sets  
  Marvin Friede          : D4 for Fr, Ra, Ac-Lr                          
  Lars Goerigk           : TD-DFT with DH, B97 family of functionals     
  Stefan Grimme          : VdW corrections, initial TS optimization, DFT functionals, gCP, sTDA/sTD-DF 
  Waldemar Hujo          : DFT-NL                                        
  H. Jonsson             : NEB                                           
  Holger Kruse           : gCP                                           
  Marcel Mueller         : wB97X-3c, vDZP basis set                      
  Hagen Neugebauer       : wr2SCAN, Native XTB                           
  Gianluca Regni         : ADLD/ADEX                                     
  Tobias Risthaus        : pre 6.0 range-separated hybrid DFT and stability analysis
  Lukas Wittmann         : regularized MP2, r2SCAN double-hybrids, wr2SCAN        
                                                                         
We gratefully acknowledge several colleagues who have allowed us to      
interface, adapt or use parts of their codes:                            
  Ed Valeev, F. Pavosevic, A. Kumar             : LibInt (2-el integral package), F12 methods 
  Garnet Chan, S. Sharma, J. Yang, R. Olivares  : DMRG                   
  Ulf Ekstrom                                   : XCFun DFT Library      
  Mihaly Kallay                                 : mrcc  (arbitrary order and MRCC methods)
  Frank Weinhold                                : gennbo (NPA and NBO analysis)           
  Simon Mueller                                 : openCOSMO-RS                            
  Christopher J. Cramer and Donald G. Truhlar   : smd solvation model                     
  S Lehtola, MJT Oliveira, MAL Marques          : LibXC Library                           
  Liviu Ungur et al                             : ANISO software                          


 Your calculation uses the libint2 library for the computation of 2-el integrals
 For citations please refer to: http://libint.valeyev.net

 Your ORCA version has been built with support for libXC version: 7.0.0
 For citations please refer to: https://libxc.gitlab.io

 This ORCA versions uses:
   CBLAS   interface :  Fast vector & matrix operations
   LAPACKE interface :  Fast linear algebra routines
   SCALAPACK package :  Parallel linear algebra routines
   Shared memory     :  Shared parallel matrices
   BLAS/LAPACK       :  OpenBLAS 0.3.29  USE64BITINT DYNAMIC_ARCH NO_AFFINITY Cooperlake SINGLE_THREADED
        Core in use  :  Cooperlake
   Copyright (c) 2011-2014, The OpenBLAS Project


  ***********************************
  * Starting time: Sat Feb 28 10:59:17 2026
  * Host name:     c01b01n07
  * Process ID:    1986747
  * Working dir.:  /lustre1/jiangy/jiangy_liuxy/NMR/B9D7C2-RSSS
  ***********************************

NOTE: MaxCore=6000 MB was set to SCF,MP2,MDCI,CIPSI,MRCI,RASCI and CIS
      => If you want to overwrite this, your respective input block should be placed after the MaxCore statement


***************************************
The coordinates will be read from file: conf-13.xyz
***************************************


Your calculation utilizes the atom-pairwise dispersion correction
based on EEQ partial charges (D4)


Warning: RI is on but no J-basis has been assigned. Assigning Def2/J (nothing to worry about!)
================================================================================

----- Orbital basis set information -----
Your calculation utilizes the basis: def2-TZVP
   F. Weigend and R. Ahlrichs, Phys. Chem. Chem. Phys. 7, 3297 (2005).

----- AuxJ basis set information -----
Your calculation utilizes the auxiliary basis: def2/J
   H-Rn: F. Weigend, Phys. Chem. Chem. Phys. 8, 1057 (2006).
   Fr-Lr: K. Eichkorn, F. Weigend, O. Treutler, R. Ahlrichs; Theor. Chem. Acc. 97, 119 (1997).

================================================================================
                                        WARNINGS
                       Please study these warnings very carefully!
================================================================================


WARNING: Geometry Optimization
  ===> : Switching off AutoStart
         For restart on a previous wavefunction, please use MOREAD

================================================================================
                                       INPUT FILE
================================================================================
NAME = opt-conf-13.inp
|  1> ! B3LYP OPT FREQ DEF2-TZVP D4 CPCM(Methanol) 
|  2> ! TightOpt
|  3> %pal nprocs 64 end
|  4> %maxcore 6000
|  5> 
|  6> %cpcm
|  7> end
|  8> 
|  9> %freq
| 10>    Temp 298.15
| 11> end
| 12> 
| 13> * xyzfile 0 1 conf-13.xyz
| 14> 
| 15> 
| 16>                          ****END OF INPUT****
================================================================================

                       *****************************
                       * Geometry Optimization Run *
                       *****************************

Geometry optimization settings:
Update method            Update   .... BFGS
Choice of coordinates    CoordSys .... (2022) Redundant Internals
Initial Hessian          InHess   .... Almloef's Model
Max. no of cycles        MaxIter  .... 246

Convergence Tolerances:
Energy Change            TolE     ....  1.0000e-06 Eh
Max. Gradient            TolMAXG  ....  1.0000e-04 Eh/bohr
RMS Gradient             TolRMSG  ....  3.0000e-05 Eh/bohr
Max. Displacement        TolMAXD  ....  1.0000e-03 bohr
RMS Displacement         TolRMSD  ....  6.0000e-04 bohr
Strict Convergence                .... False

------------------------------------------------------------------------------
                        ORCA OPTIMIZATION COORDINATE SETUP
------------------------------------------------------------------------------

The optimization will be done in redundant internal coordinates (2022)
Making redundant internal coordinates   ...  (2022 redundants) done
Evaluating the initial hessian          ...  (Almloef) done
Evaluating the coordinates              ...  done
Calculating the B-matrix                .... done
Calculating the G-matrix                .... done
The number of degrees of freedom        ....  407

    -----------------------------------------------------------------
                    Redundant Internal Coordinates


    -----------------------------------------------------------------
         Definition                    Initial Value    Approx d2E/dq
    -----------------------------------------------------------------
      1. B(C   1,C   0)                  1.4006         0.601008   
      2. B(C   2,C   1)                  1.3991         0.604266   
      3. B(C   3,C   2)                  1.3882         0.628901   
      4. B(C   4,C   3)                  1.3858         0.634580   
      5. B(C   5,C   4)                  1.3870         0.631805   
      6. B(C   5,C   0)                  1.3869         0.632054   
      7. B(C   6,C   4)                  1.5026         0.413101   
      8. B(C   7,C   6)                  1.5374         0.363526   
      9. B(C   8,C   7)                  1.5431         0.355990   
     10. B(C   9,C   8)                  1.5433         0.355821   
     11. B(C  10,C   9)                  1.5039         0.411125   
     12. B(C  11,C  10)                  1.3937         0.616326   
     13. B(C  12,C  11)                  1.3818         0.643965   
     14. B(C  13,C  12)                  1.4062         0.588713   
     15. B(C  14,C  13)                  1.3820         0.643327   
     16. B(C  15,C  10)                  1.3846         0.637277   
     17. B(C  15,C  14)                  1.3858         0.634608   
     18. B(C  16,C   7)                  1.5434         0.355694   
     19. B(C  17,C   8)                  1.5368         0.364394   
     20. B(O  18,C   2)                  1.3681         0.606582   
     21. B(O  19,C   0)                  1.3651         0.613245   
     22. B(O  20,C   1)                  1.3801         0.580316   
     23. B(O  21,C  13)                  1.3602         0.624255   
     24. B(O  22,C  12)                  1.3742         0.593139   
     25. B(C  23,O  20)                  1.4246         0.492764   
     26. B(C  24,C  23)                  1.5504         0.346602   
     27. B(C  25,C  24)                  1.5187         0.389378   
     28. B(C  26,C  23)                  1.5323         0.370469   
     29. B(O  27,C  26)                  1.4021         0.535308   
     30. B(C  28,C  25)                  1.3929         0.618273   
     31. B(C  29,C  28)                  1.3807         0.646561   
     32. B(C  30,C  29)                  1.4038         0.594000   
     33. B(C  31,C  30)                  1.3807         0.646532   
     34. B(C  32,C  31)                  1.3847         0.637008   
     35. B(C  32,C  25)                  1.3841         0.638485   
     36. B(C  33,O  19)                  1.4086         0.522707   
     37. B(C  34,O  18)                  1.4073         0.525091   
     38. B(C  35,O  22)                  1.4089         0.522122   
     39. B(O  36,C  24)                  1.4001         0.539204   
     40. B(O  37,C  16)                  1.4014         0.536608   
     41. B(O  38,C  17)                  1.4134         0.513570   
     42. B(O  39,C  29)                  1.3783         0.584160   
     43. B(O  40,C  30)                  1.3674         0.608134   
     44. B(C  41,O  39)                  1.4057         0.528246   
     45. B(H  42,C   3)                  1.0776         0.376940   
     46. B(H  43,C   5)                  1.0778         0.376592   
     47. B(H  44,C   6)                  1.0906         0.359323   
     48. B(H  45,C   6)                  1.0887         0.361831   
     49. B(H  46,C   7)                  1.0951         0.353392   
     50. B(H  47,C   8)                  1.0988         0.348582   
     51. B(H  48,C   9)                  1.0915         0.358114   
     52. B(H  49,C   9)                  1.0947         0.353877   
     53. B(H  50,C  11)                  1.0778         0.376641   
     54. B(H  51,C  14)                  1.0783         0.375922   
     55. B(H  52,C  15)                  1.0801         0.373383   
     56. B(H  53,C  16)                  1.1018         0.344816   
     57. B(H  54,C  16)                  1.0914         0.358301   
     58. B(H  55,C  17)                  1.0989         0.348486   
     59. B(H  56,C  17)                  1.0911         0.358677   
     60. B(H  57,O  21)                  0.9672         0.506308   
     61. B(H  57,O  22)                  2.1162         0.010000   
     62. B(H  58,C  23)                  1.0946         0.354119   
     63. B(H  59,C  24)                  1.0980         0.349647   
     64. B(H  60,C  26)                  1.0918         0.357734   
     65. B(H  61,C  26)                  1.0985         0.348981   
     66. B(H  62,O  20)                  2.3035         0.010000   
     67. B(H  62,O  27)                  0.9661         0.508473   
     68. B(H  63,C  28)                  1.0781         0.376209   
     69. B(H  64,C  31)                  1.0771         0.377635   
     70. B(H  65,C  32)                  1.0781         0.376252   
     71. B(H  66,C  33)                  1.0888         0.361625   
     72. B(H  67,C  33)                  1.0938         0.355159   
     73. B(H  68,H  51)                  2.7575         0.010000   
     74. B(H  68,C  33)                  1.0929         0.356259   
     75. B(H  69,C  34)                  1.0891         0.361309   
     76. B(H  70,C  34)                  1.0950         0.353534   
     77. B(H  71,C  34)                  1.0939         0.355011   
     78. B(H  72,O  40)                  2.3103         0.010000   
     79. B(H  72,C  35)                  1.0931         0.356054   
     80. B(H  73,C  35)                  1.0888         0.361658   
     81. B(H  74,C  35)                  1.0944         0.354300   
     82. B(H  75,O  20)                  2.2988         0.010000   
     83. B(H  75,O  19)                  2.0911         0.010000   
     84. B(H  75,O  36)                  0.9729         0.495832   
     85. B(H  76,O  38)                  1.8577         0.019223   
     86. B(H  76,O  37)                  0.9722         0.497236   
     87. B(H  77,O  38)                  0.9639         0.512627   
     88. B(H  78,H  53)                  2.5224         0.010000   
     89. B(H  78,O  39)                  2.0873         0.010000   
     90. B(H  78,O  40)                  0.9673         0.506261   
     91. B(H  79,H  70)                  2.5236         0.010000   
     92. B(H  79,C  41)                  1.0937         0.355228   
     93. B(H  80,C  41)                  1.0944         0.354346   
     94. B(H  81,C  41)                  1.0889         0.361595   
     95. A(C   1,C   0,O  19)          115.0012         0.427984   
     96. A(C   5,C   0,O  19)          125.0443         0.431870   
     97. A(C   1,C   0,C   5)          119.9545         0.433141   
     98. A(C   0,C   1,O  20)          117.9390         0.423776   
     99. A(C   0,C   1,C   2)          119.7944         0.429657   
    100. A(C   2,C   1,O  20)          122.1521         0.424185   
    101. A(C   3,C   2,O  18)          124.2582         0.430636   
    102. A(C   1,C   2,C   3)          119.4325         0.433173   
    103. A(C   1,C   2,O  18)          116.3091         0.427561   
    104. A(C   4,C   3,H  42)          118.5575         0.357060   
    105. A(C   2,C   3,H  42)          120.8139         0.356515   
    106. A(C   2,C   3,C   4)          120.6273         0.437007   
    107. A(C   5,C   4,C   6)          120.0695         0.405115   
    108. A(C   3,C   4,C   6)          119.8238         0.405429   
    109. A(C   3,C   4,C   5)          120.0853         0.437370   
    110. A(C   4,C   5,H  43)          119.1401         0.356738   
    111. A(C   0,C   5,H  43)          120.7573         0.356762   
    112. A(C   0,C   5,C   4)          120.1011         0.437056   
    113. A(C   4,C   6,H  44)          109.3367         0.329619   
    114. A(C   7,C   6,H  45)          109.5018         0.323125   
    115. A(C   4,C   6,C   7)          110.1848         0.367941   
    116. A(H  44,C   6,H  45)          109.2235         0.290960   
    117. A(C   4,C   6,H  45)          109.3140         0.329998   
    118. A(C   7,C   6,H  44)          109.2626         0.322757   
    119. A(C   6,C   7,C  16)          109.8208         0.358653   
    120. A(C   8,C   7,C  16)          113.0138         0.357378   
    121. A(C  16,C   7,H  46)          105.8428         0.320732   
    122. A(C   8,C   7,H  46)          105.9975         0.320776   
    123. A(C   6,C   7,H  46)          107.6992         0.321878   
    124. A(C   6,C   7,C   8)          113.9303         0.358704   
    125. A(C   7,C   8,C  17)          115.0144         0.358850   
    126. A(C  17,C   8,H  47)          107.4638         0.321282   
    127. A(C   7,C   8,C   9)          112.4133         0.357400   
    128. A(C   9,C   8,H  47)          107.9766         0.320034   
    129. A(C   7,C   8,H  47)          106.3160         0.320058   
    130. A(C   9,C   8,C  17)          107.3541         0.358821   
    131. A(H  48,C   9,H  49)          106.9964         0.289793   
    132. A(C  10,C   9,H  48)          108.8226         0.329175   
    133. A(C  10,C   9,H  49)          108.6893         0.328529   
    134. A(C   8,C   9,C  10)          115.2433         0.366291   
    135. A(C   8,C   9,H  48)          108.9335         0.321449   
    136. A(C   8,C   9,H  49)          107.8501         0.320823   
    137. A(C   9,C  10,C  11)          120.6582         0.403004   
    138. A(C  11,C  10,C  15)          118.9894         0.435753   
    139. A(C   9,C  10,C  15)          120.3357         0.405389   
    140. A(C  10,C  11,C  12)          120.6510         0.436573   
    141. A(C  10,C  11,H  50)          119.2852         0.355247   
    142. A(C  12,C  11,H  50)          120.0625         0.357904   
    143. A(C  11,C  12,C  13)          119.8107         0.432986   
    144. A(C  13,C  12,O  22)          114.3441         0.423865   
    145. A(C  11,C  12,O  22)          125.8443         0.430734   
    146. A(C  12,C  13,O  21)          120.3773         0.427763   
    147. A(C  12,C  13,C  14)          119.4662         0.432908   
    148. A(C  14,C  13,O  21)          120.1560         0.434634   
    149. A(C  13,C  14,H  51)          118.5938         0.357727   
    150. A(C  13,C  14,C  15)          120.1206         0.438802   
    151. A(C  15,C  14,H  51)          121.2856         0.356898   
    152. A(C  14,C  15,H  52)          119.0900         0.356488   
    153. A(C  10,C  15,H  52)          119.9556         0.356742   
    154. A(C  10,C  15,C  14)          120.9522         0.438054   
    155. A(O  37,C  16,H  54)          105.3209         0.342031   
    156. A(C   7,C  16,H  54)          108.1089         0.321457   
    157. A(O  37,C  16,H  53)          110.5096         0.339844   
    158. A(C   7,C  16,H  53)          109.0573         0.319447   
    159. A(C   7,C  16,O  37)          115.3760         0.381076   
    160. A(H  53,C  16,H  54)          108.1718         0.288641   
    161. A(O  38,C  17,H  56)          105.5564         0.339590   
    162. A(C   8,C  17,O  38)          114.3060         0.379776   
    163. A(H  55,C  17,H  56)          108.0449         0.289168   
    164. A(C   8,C  17,H  56)          110.6596         0.322788   
    165. A(O  38,C  17,H  55)          109.1903         0.337961   
    166. A(C   8,C  17,H  55)          108.8836         0.321267   
    167. A(C   2,O  18,C  34)          118.2755         0.414269   
    168. A(C   0,O  19,C  33)          118.4154         0.414739   
    169. A(C   1,O  20,C  23)          117.0496         0.406428   
    170. A(C  13,O  21,H  57)          107.8334         0.368862   
    171. A(C  12,O  22,C  35)          118.2055         0.412208   
    172. A(C  26,C  23,H  58)          109.1946         0.322986   
    173. A(C  24,C  23,H  58)          111.0464         0.319486   
    174. A(O  20,C  23,H  58)          110.0643         0.336538   
    175. A(C  24,C  23,C  26)          111.1242         0.358228   
    176. A(O  20,C  23,C  26)          105.0235         0.378146   
    177. A(O  20,C  23,C  24)          110.2185         0.373821   
    178. A(C  23,C  24,O  36)          109.4576         0.379687   
    179. A(O  36,C  24,H  59)          106.1281         0.340910   
    180. A(C  25,C  24,H  59)          108.8604         0.324957   
    181. A(C  23,C  24,H  59)          108.0528         0.318824   
    182. A(C  25,C  24,O  36)          112.6321         0.387445   
    183. A(C  23,C  24,C  25)          111.4695         0.361279   
    184. A(C  28,C  25,C  32)          119.2389         0.436149   
    185. A(C  24,C  25,C  32)          120.7021         0.401655   
    186. A(C  24,C  25,C  28)          120.0533         0.399387   
    187. A(O  27,C  26,H  61)          110.9635         0.340388   
    188. A(H  60,C  26,H  61)          109.1131         0.289113   
    189. A(C  23,C  26,H  61)          108.4308         0.322213   
    190. A(O  27,C  26,H  60)          106.9055         0.341802   
    191. A(C  23,C  26,H  60)          110.1877         0.323524   
    192. A(C  23,C  26,O  27)          111.2222         0.383617   
    193. A(C  26,O  27,H  62)          106.6603         0.359553   
    194. A(C  29,C  28,H  63)          120.1528         0.358079   
    195. A(C  25,C  28,H  63)          119.4851         0.355368   
    196. A(C  25,C  28,C  29)          120.3596         0.437138   
    197. A(C  30,C  29,O  39)          114.5248         0.423387   
    198. A(C  28,C  29,O  39)          125.5133         0.429866   
    199. A(C  28,C  29,C  30)          119.9616         0.433996   
    200. A(C  31,C  30,O  40)          120.7683         0.432980   
    201. A(C  29,C  30,O  40)          119.7247         0.426445   
    202. A(C  29,C  30,C  31)          119.5000         0.433993   
    203. A(C  32,C  31,H  64)          120.8282         0.357403   
    204. A(C  30,C  31,H  64)          119.0420         0.358306   
    205. A(C  30,C  31,C  32)          120.1289         0.439495   
    206. A(C  31,C  32,H  65)          119.8543         0.357181   
    207. A(C  25,C  32,H  65)          119.3756         0.357321   
    208. A(C  25,C  32,C  31)          120.7651         0.438502   
    209. A(H  67,C  33,H  68)          109.4432         0.289721   
    210. A(H  66,C  33,H  68)          109.4629         0.290543   
    211. A(O  19,C  33,H  68)          111.6134         0.340207   
    212. A(H  66,C  33,H  67)          109.3370         0.290402   
    213. A(O  19,C  33,H  67)          111.2559         0.340032   
    214. A(O  19,C  33,H  66)          105.6389         0.341059   
    215. A(H  69,C  34,H  71)          109.4543         0.290343   
    216. A(O  18,C  34,H  71)          111.3824         0.340267   
    217. A(H  69,C  34,H  70)          109.4676         0.290153   
    218. A(O  18,C  34,H  70)          111.8780         0.340030   
    219. A(O  18,C  34,H  69)          105.4869         0.341269   
    220. A(H  70,C  34,H  71)          109.0927         0.289354   
    221. A(H  73,C  35,H  74)          109.3071         0.290296   
    222. A(H  72,C  35,H  74)          110.0427         0.289585   
    223. A(O  22,C  35,H  74)          111.1875         0.339831   
    224. A(H  72,C  35,H  73)          109.6301         0.290521   
    225. A(O  22,C  35,H  73)          105.5338         0.341000   
    226. A(O  22,C  35,H  72)          111.0297         0.340111   
    227. A(C  24,O  36,H  75)          106.5616         0.358458   
    228. A(C  16,O  37,H  76)          107.6620         0.358336   
    229. A(C  17,O  38,H  77)          108.8992         0.357521   
    230. A(C  29,O  39,C  41)          118.0910         0.411946   
    231. A(C  30,O  40,H  78)          106.7948         0.367203   
    232. A(H  80,C  41,H  81)          109.4744         0.290293   
    233. A(H  79,C  41,H  81)          109.3683         0.290407   
    234. A(O  39,C  41,H  81)          105.6964         0.341656   
    235. A(H  79,C  41,H  80)          109.4713         0.289486   
    236. A(O  39,C  41,H  80)          111.4426         0.340501   
    237. A(O  39,C  41,H  79)          111.3016         0.340642   
    238. D(O  20,C   1,C   0,O  19)     -3.3767         0.024906   
    239. D(C   2,C   1,C   0,O  19)   -179.5704         0.024906   
    240. D(C   2,C   1,C   0,C   5)      0.4179         0.024906   
    241. D(O  20,C   1,C   0,C   5)    176.6116         0.024906   
    242. D(O  18,C   2,C   1,C   0)   -179.6218         0.025191   
    243. D(C   3,C   2,C   1,C   0)      0.2257         0.025191   
    244. D(C   3,C   2,C   1,O  20)   -175.8023         0.025191   
    245. D(O  18,C   2,C   1,O  20)      4.3502         0.025191   
    246. D(C   4,C   3,C   2,C   1)     -0.5250         0.027417   
    247. D(H  42,C   3,C   2,O  18)     -0.2611         0.027417   
    248. D(C   4,C   3,C   2,O  18)    179.3096         0.027417   
    249. D(H  42,C   3,C   2,C   1)    179.9043         0.027417   
    250. D(C   6,C   4,C   3,H  42)      1.4425         0.027947   
    251. D(C   5,C   4,C   3,H  42)    179.7588         0.027947   
    252. D(C   5,C   4,C   3,C   2)      0.1786         0.027947   
    253. D(C   6,C   4,C   3,C   2)   -178.1378         0.027947   
    254. D(H  43,C   5,C   4,C   6)     -0.7792         0.027687   
    255. D(H  43,C   5,C   4,C   3)   -179.0914         0.027687   
    256. D(C   0,C   5,C   4,C   3)      0.4733         0.027687   
    257. D(C   4,C   5,C   0,O  19)    179.2185         0.027711   
    258. D(H  43,C   5,C   0,C   1)    178.7891         0.027711   
    259. D(H  43,C   5,C   0,O  19)     -1.2239         0.027711   
    260. D(C   0,C   5,C   4,C   6)    178.7855         0.027687   
    261. D(C   4,C   5,C   0,C   1)     -0.7685         0.027711   
    262. D(H  45,C   6,C   4,C   3)   -148.1326         0.012632   
    263. D(H  44,C   6,C   4,C   5)    153.0710         0.012632   
    264. D(H  44,C   6,C   4,C   3)    -28.6124         0.012632   
    265. D(C   7,C   6,C   4,C   5)    -86.8294         0.012632   
    266. D(C   7,C   6,C   4,C   3)     91.4872         0.012632   
    267. D(C   8,C   7,C   6,H  44)    -77.4100         0.010588   
    268. D(C   8,C   7,C   6,C   4)    162.4457         0.010588   
    269. D(C  16,C   7,C   6,H  45)    170.1019         0.010588   
    270. D(C  16,C   7,C   6,H  44)     50.5133         0.010588   
    271. D(C   8,C   7,C   6,H  45)     42.1787         0.010588   
    272. D(C  16,C   7,C   6,C   4)    -69.6311         0.010588   
    273. D(C  17,C   8,C   7,H  46)    178.6038         0.010184   
    274. D(C  17,C   8,C   7,C  16)    -65.9075         0.010184   
    275. D(C  17,C   8,C   7,C   6)     60.3591         0.010184   
    276. D(C   9,C   8,C   7,C  16)    170.8285         0.010184   
    277. D(C   9,C   8,C   7,H  46)     55.3398         0.010184   
    278. D(C   9,C   8,C   7,C   6)    -62.9049         0.010184   
    279. D(H  48,C   9,C   8,C  17)    -46.5071         0.010175   
    280. D(H  48,C   9,C   8,C   7)     80.9453         0.010175   
    281. D(C  10,C   9,C   8,H  47)     75.2970         0.010175   
    282. D(C  10,C   9,C   8,C  17)   -169.1117         0.010175   
    283. D(H  48,C   9,C   8,H  47)   -162.0983         0.010175   
    284. D(C  10,C   9,C   8,C   7)    -41.6593         0.010175   
    285. D(C  15,C  10,C   9,H  48)      2.5497         0.012516   
    286. D(C  15,C  10,C   9,C   8)    125.2136         0.012516   
    287. D(C  11,C  10,C   9,H  49)     64.8576         0.012516   
    288. D(C  11,C  10,C   9,H  48)   -178.9539         0.012516   
    289. D(C  11,C  10,C   9,C   8)    -56.2900         0.012516   
    290. D(H  50,C  11,C  10,C  15)    179.5021         0.026266   
    291. D(H  50,C  11,C  10,C   9)      0.9857         0.026266   
    292. D(C  12,C  11,C  10,C  15)     -0.8993         0.026266   
    293. D(C  12,C  11,C  10,C   9)   -179.4157         0.026266   
    294. D(O  22,C  12,C  11,H  50)     -0.3727         0.028836   
    295. D(C  13,C  12,C  11,H  50)    179.9818         0.028836   
    296. D(O  22,C  12,C  11,C  10)   -179.9682         0.028836   
    297. D(C  13,C  12,C  11,C  10)      0.3863         0.028836   
    298. D(O  21,C  13,C  12,C  11)   -179.2301         0.023846   
    299. D(C  14,C  13,C  12,O  22)   -179.1406         0.023846   
    300. D(C  14,C  13,C  12,C  11)      0.5440         0.023846   
    301. D(O  21,C  13,C  12,O  22)      1.0853         0.023846   
    302. D(H  51,C  14,C  13,O  21)     -1.1505         0.028775   
    303. D(H  51,C  14,C  13,C  12)    179.0748         0.028775   
    304. D(C  15,C  14,C  13,O  21)    178.8232         0.028775   
    305. D(C  15,C  14,C  13,C  12)     -0.9514         0.028775   
    306. D(H  52,C  15,C  14,H  51)     -0.1317         0.027950   
    307. D(H  52,C  15,C  14,C  13)    179.8952         0.027950   
    308. D(C  10,C  15,C  14,H  51)   -179.5905         0.027950   
    309. D(C  10,C  15,C  14,C  13)      0.4365         0.027950   
    310. D(H  52,C  15,C  10,C  11)   -178.9636         0.028201   
    311. D(H  52,C  15,C  10,C   9)     -0.4424         0.028201   
    312. D(C  14,C  15,C  10,C  11)      0.4905         0.028201   
    313. D(C  14,C  15,C  10,C   9)    179.0117         0.028201   
    314. D(H  53,C  16,C   7,H  46)     72.2387         0.010168   
    315. D(H  53,C  16,C   7,C   8)    -43.3423         0.010168   
    316. D(H  53,C  16,C   7,C   6)   -171.7717         0.010168   
    317. D(O  37,C  16,C   7,H  46)   -162.7235         0.010168   
    318. D(O  37,C  16,C   7,C   8)     81.6955         0.010168   
    319. D(O  37,C  16,C   7,C   6)    -46.7339         0.010168   
    320. D(H  55,C  17,C   8,H  47)     76.3706         0.010635   
    321. D(H  55,C  17,C   8,C   9)    -39.5602         0.010635   
    322. D(H  55,C  17,C   8,C   7)   -165.4787         0.010635   
    323. D(O  38,C  17,C   8,H  47)    -46.0196         0.010635   
    324. D(O  38,C  17,C   8,C   9)   -161.9504         0.010635   
    325. D(O  38,C  17,C   8,C   7)     72.1311         0.010635   
    326. D(C  34,O  18,C   2,C   3)      6.9192         0.026912   
    327. D(C  34,O  18,C   2,C   1)   -173.2415         0.026912   
    328. D(C  33,O  19,C   0,C   5)     -0.9461         0.030401   
    329. D(C  33,O  19,C   0,C   1)    179.0415         0.030401   
    330. D(C  23,O  20,C   1,C   2)    -67.7250         0.029356   
    331. D(C  23,O  20,C   1,C   0)    116.1766         0.029356   
    332. D(H  57,O  21,C  13,C  14)    178.7171         0.028619   
    333. D(H  57,O  21,C  13,C  12)     -1.5103         0.028619   
    334. D(C  35,O  22,C  12,C  13)   -176.5763         0.028303   
    335. D(C  35,O  22,C  12,C  11)      3.7613         0.028303   
    336. D(H  58,C  23,O  20,C   1)     47.6999         0.022330   
    337. D(C  26,C  23,O  20,C   1)    165.1150         0.022330   
    338. D(C  24,C  23,O  20,C   1)    -75.1166         0.022330   
    339. D(O  36,C  24,C  23,H  58)   -174.6199         0.010000   
    340. D(O  36,C  24,C  23,C  26)     63.6228         0.010000   
    341. D(O  36,C  24,C  23,O  20)    -52.3809         0.010000   
    342. D(C  25,C  24,C  23,H  58)    -49.3453         0.010000   
    343. D(C  25,C  24,C  23,C  26)   -171.1025         0.010000   
    344. D(C  25,C  24,C  23,O  20)     72.8938         0.010000   
    345. D(C  32,C  25,C  24,O  36)     -3.6000         0.011282   
    346. D(C  32,C  25,C  24,C  23)   -127.0893         0.011282   
    347. D(C  28,C  25,C  24,H  59)    -65.3080         0.011282   
    348. D(C  28,C  25,C  24,O  36)    177.2754         0.011282   
    349. D(C  28,C  25,C  24,C  23)     53.7860         0.011282   
    350. D(H  60,C  26,C  23,H  58)    -62.7394         0.010970   
    351. D(H  60,C  26,C  23,C  24)     60.0913         0.010970   
    352. D(H  60,C  26,C  23,O  20)    179.2548         0.010970   
    353. D(O  27,C  26,C  23,H  58)     55.6295         0.010970   
    354. D(O  27,C  26,C  23,C  24)    178.4602         0.010970   
    355. D(O  27,C  26,C  23,O  20)    -62.3763         0.010970   
    356. D(H  62,O  27,C  26,H  61)    -74.4624         0.022777   
    357. D(H  62,O  27,C  26,H  60)    166.6610         0.022777   
    358. D(H  62,O  27,C  26,C  23)     46.3333         0.022777   
    359. D(H  63,C  28,C  25,C  32)   -177.2180         0.026443   
    360. D(H  63,C  28,C  25,C  24)      1.9194         0.026443   
    361. D(C  29,C  28,C  25,C  32)      2.2149         0.026443   
    362. D(C  29,C  28,C  25,C  24)   -178.6477         0.026443   
    363. D(C  30,C  29,C  28,H  63)    178.8404         0.029085   
    364. D(C  30,C  29,C  28,C  25)     -0.5886         0.029085   
    365. D(O  39,C  29,C  28,H  63)     -0.9374         0.029085   
    366. D(O  39,C  29,C  28,C  25)    179.6336         0.029085   
    367. D(O  40,C  30,C  29,O  39)     -0.2950         0.024298   
    368. D(O  40,C  30,C  29,C  28)    179.9038         0.024298   
    369. D(C  31,C  30,C  29,O  39)    178.7538         0.024298   
    370. D(C  31,C  30,C  29,C  28)     -1.0474         0.024298   
    371. D(H  64,C  31,C  30,O  40)      0.4021         0.029083   
    372. D(H  64,C  31,C  30,C  29)   -178.6365         0.029083   
    373. D(C  32,C  31,C  30,O  40)   -179.9213         0.029083   
    374. D(C  32,C  31,C  30,C  29)      1.0400         0.029083   
    375. D(H  65,C  32,C  31,H  64)      1.0913         0.028175   
    376. D(H  65,C  32,C  31,C  30)   -178.5793         0.028175   
    377. D(C  25,C  32,C  31,H  64)   -179.7202         0.028175   
    378. D(C  25,C  32,C  31,C  30)      0.6091         0.028175   
    379. D(H  65,C  32,C  25,C  28)    176.9590         0.028315   
    380. D(H  65,C  32,C  25,C  24)     -2.1727         0.028315   
    381. D(C  31,C  32,C  25,C  28)     -2.2333         0.028315   
    382. D(C  31,C  32,C  25,C  24)    178.6350         0.028315   
    383. D(H  68,C  33,O  19,C   0)     61.3697         0.023524   
    384. D(H  67,C  33,O  19,C   0)    -61.1984         0.023524   
    385. D(H  66,C  33,O  19,C   0)   -179.7433         0.023524   
    386. D(H  71,C  34,O  18,C   2)     58.9583         0.021878   
    387. D(H  70,C  34,O  18,C   2)    -63.4374         0.021878   
    388. D(H  69,C  34,O  18,C   2)    177.6201         0.021878   
    389. D(H  74,C  35,O  22,C  12)    -63.8827         0.023468   
    390. D(H  73,C  35,O  22,C  12)    177.7066         0.023468   
    391. D(H  72,C  35,O  22,C  12)     58.9931         0.023468   
    392. D(H  75,O  36,C  24,H  59)    168.9276         0.023126   
    393. D(H  75,O  36,C  24,C  25)    -72.0507         0.023126   
    394. D(H  75,O  36,C  24,C  23)     52.5498         0.023126   
    395. D(H  76,O  37,C  16,H  54)    177.1840         0.022893   
    396. D(H  76,O  37,C  16,H  53)     60.5863         0.022893   
    397. D(H  76,O  37,C  16,C   7)    -63.6960         0.022893   
    398. D(H  77,O  38,C  17,H  56)   -179.1458         0.022671   
    399. D(H  77,O  38,C  17,H  55)    -63.2107         0.022671   
    400. D(H  77,O  38,C  17,C   8)     59.0120         0.022671   
    401. D(C  41,O  39,C  29,C  30)    175.2057         0.027395   
    402. D(C  41,O  39,C  29,C  28)     -5.0059         0.027395   
    403. D(H  78,O  40,C  30,C  31)   -178.9702         0.029859   
    404. D(H  78,O  40,C  30,C  29)      0.0663         0.029859   
    405. D(H  81,C  41,O  39,C  29)   -174.9519         0.024050   
    406. D(H  80,C  41,O  39,C  29)     66.2043         0.024050   
    407. D(H  79,C  41,O  39,C  29)    -56.3109         0.024050   
    -----------------------------------------------------------------

Number of atoms                         .... 82
Number of degrees of freedom            .... 407


         *************************************************************
         *                GEOMETRY OPTIMIZATION CYCLE   1            *
         *************************************************************
---------------------------------
CARTESIAN COORDINATES (ANGSTROEM)
---------------------------------
  C     11.809001  -11.582897   -2.026242
  C     12.282700  -12.805345   -1.533478
  C     11.384456  -13.847500   -1.279436
  C     10.031407  -13.656843   -1.524501
  C      9.565233  -12.444023   -2.006279
  C     10.452120  -11.406448   -2.252320
  C      8.092286  -12.243387   -2.225483
  C      7.443698  -11.652587   -0.962963
  C      6.058819  -11.017976   -1.209157
  C      6.126322   -9.812997   -2.170979
  C      7.288173   -8.883136   -1.953585
  C      7.498054   -8.286286   -0.711746
  C      8.558643   -7.422609   -0.515501
  C      9.431864   -7.134742   -1.579454
  C      9.211138   -7.712400   -2.815430
  C      8.148541   -8.583339   -2.996202
  C      7.432035  -12.708606    0.162480
  C      4.990823  -11.979653   -1.753431
  O     11.922950  -15.006844   -0.792080
  O     12.769803  -10.638793   -2.247537
  O     13.646678  -12.960293   -1.391206
  O     10.488648   -6.298432   -1.394966
  O      8.864961   -6.778222    0.658908
  C     14.142822  -13.149453   -0.069236
  C     14.124070  -11.807631    0.707231
  C     12.709392  -11.402446    1.082768
  C     15.575322  -13.661659   -0.252124
  O     15.592422  -14.892368   -0.923607
  C     11.891971  -12.288497    1.780470
  C     10.595666  -11.937376    2.100751
  C     10.099734  -10.676548    1.733460
  C     10.923896   -9.788179    1.071745
  C     12.222712  -10.148913    0.754845
  C     12.375071   -9.388704   -2.762818
  C     11.082471  -16.127675   -0.658301
  C      8.086782   -7.064310    1.797987
  O     14.784798  -10.826242   -0.041508
  O      6.988957  -13.983498   -0.214758
  O      4.517671  -12.918473   -0.808793
  O      9.695614  -12.730761    2.779114
  O      8.814561  -10.334604    2.051378
  C     10.078234  -14.046503    3.092802
  H      9.320325  -14.444760   -1.338271
  H     10.071271  -10.464843   -2.612885
  H      7.627104  -13.203074   -2.453494
  H      7.942103  -11.564249   -3.063024
  H      8.087877  -10.842166   -0.605839
  H      5.708236  -10.653869   -0.233459
  H      6.157189  -10.181004   -3.198112
  H      5.197023   -9.244575   -2.062500
  H      6.826448   -8.510003    0.100962
  H      9.880568   -7.470088   -3.625287
  H      7.990469   -9.024004   -3.969613
  H      6.836507  -12.327309    1.007427
  H      8.458332  -12.849874    0.505748
  H      4.143842  -11.391964   -2.134061
  H      5.390032  -12.570947   -2.578933
  H     10.461548   -5.984098   -0.480628
  H     13.551528  -13.911397    0.448329
  H     14.711666  -11.937704    1.625630
  H     16.044441  -13.824002    0.720289
  H     16.147061  -12.904125   -0.805335
  H     14.997667  -14.803632   -1.679717
  H     12.282023  -13.248697    2.077365
  H     10.542717   -8.814606    0.813072
  H     12.869655   -9.443660    0.258572
  H     13.291469   -8.808785   -2.860299
  H     11.907317   -9.494793   -3.745806
  H     11.688165   -8.873340   -2.086776
  H     11.724404  -16.931493   -0.300653
  H     10.280055  -15.951876    0.065763
  H     10.642129  -16.412802   -1.618177
  H      8.129913   -8.128138    2.045422
  H      8.527708   -6.482665    2.605956
  H      7.046984   -6.754402    1.654699
  H     14.378442  -10.831438   -0.925502
  H      6.058579  -13.904311   -0.485359
  H      4.139626  -12.444193   -0.059677
  H      8.431992  -11.089830    2.519221
  H     10.367586  -14.600781    2.195446
  H     10.902056  -14.062647    3.813034
  H      9.199050  -14.511129    3.536426

----------------------------
CARTESIAN COORDINATES (A.U.)
----------------------------
  NO LB      ZA    FRAG     MASS         X           Y           Z
   0 C     6.0000    0    12.011   22.315778  -21.888503   -3.829042
   1 C     6.0000    0    12.011   23.210940  -24.198595   -2.897854
   2 C     6.0000    0    12.011   21.513504  -26.167983   -2.417784
   3 C     6.0000    0    12.011   18.956612  -25.807692   -2.880889
   4 C     6.0000    0    12.011   18.075670  -23.515796   -3.791319
   5 C     6.0000    0    12.011   19.751645  -21.555064   -4.256269
   6 C     6.0000    0    12.011   15.292205  -23.136648   -4.205554
   7 C     6.0000    0    12.011   14.066550  -22.020199   -1.819736
   8 C     6.0000    0    12.011   11.449509  -20.820957   -2.284976
   9 C     6.0000    0    12.011   11.577071  -18.543876   -4.102555
  10 C     6.0000    0    12.011   13.772652  -16.786694   -3.691740
  11 C     6.0000    0    12.011   14.169269  -15.658811   -1.345005
  12 C     6.0000    0    12.011   16.173492  -14.026697   -0.974155
  13 C     6.0000    0    12.011   17.823640  -13.482708   -2.984735
  14 C     6.0000    0    12.011   17.406529  -14.574324   -5.320391
  15 C     6.0000    0    12.011   15.398510  -16.220160   -5.662002
  16 C     6.0000    0    12.011   14.044510  -24.015786    0.307043
  17 C     6.0000    0    12.011    9.431288  -22.638263   -3.313504
  18 O     8.0000    0    15.999   22.531110  -28.358826   -1.496815
  19 O     8.0000    0    15.999   24.131430  -20.104406   -4.247230
  20 O     8.0000    0    15.999   25.788484  -24.491404   -2.628999
  21 O     8.0000    0    15.999   19.820673  -11.902312   -2.636104
  22 O     8.0000    0    15.999   16.752349  -12.808983    1.245155
  23 C     6.0000    0    12.011   26.726061  -24.848866   -0.130837
  24 C     6.0000    0    12.011   26.690624  -22.313188    1.336472
  25 C     6.0000    0    12.011   24.017270  -21.547500    2.046135
  26 C     6.0000    0    12.011   29.433093  -25.816795   -0.476445
  27 O     8.0000    0    15.999   29.465406  -28.142497   -1.745365
  28 C     6.0000    0    12.011   22.472569  -23.221893    3.364601
  29 C     6.0000    0    12.011   20.022906  -22.558372    3.969844
  30 C     6.0000    0    12.011   19.085732  -20.175751    3.275765
  31 C     6.0000    0    12.011   20.643171  -18.496977    2.025305
  32 C     6.0000    0    12.011   23.097579  -19.178667    1.426451
  33 C     6.0000    0    12.011   23.385495  -17.742078   -5.220970
  34 C     6.0000    0    12.011   20.942836  -30.476890   -1.244008
  35 C     6.0000    0    12.011   15.281803  -13.349611    3.397704
  36 O     8.0000    0    15.999   27.939219  -20.458632   -0.078439
  37 O     8.0000    0    15.999   13.207215  -26.424982   -0.405834
  38 O     8.0000    0    15.999    8.537161  -24.412376   -1.528397
  39 O     8.0000    0    15.999   18.322054  -24.057652    5.251764
  40 O     8.0000    0    15.999   16.657106  -19.529570    3.876542
  41 C     6.0000    0    12.011   19.045101  -26.544045    5.844548
  42 H     1.0000    0     1.008   17.612861  -27.296640   -2.528965
  43 H     1.0000    0     1.008   19.031944  -19.775687   -4.937637
  44 H     1.0000    0     1.008   14.413138  -24.950194   -4.636431
  45 H     1.0000    0     1.008   15.008400  -21.853264   -5.788276
  46 H     1.0000    0     1.008   15.283872  -20.488725   -1.144870
  47 H     1.0000    0     1.008   10.787002  -20.132895   -0.441173
  48 H     1.0000    0     1.008   11.635401  -19.239310   -6.043556
  49 H     1.0000    0     1.008    9.820951  -17.469716   -3.897560
  50 H     1.0000    0     1.008   12.900117  -16.081576    0.190791
  51 H     1.0000    0     1.008   18.671567  -14.116420   -6.850799
  52 H     1.0000    0     1.008   15.099798  -17.052897   -7.501482
  53 H     1.0000    0     1.008   12.919126  -23.295238    1.903761
  54 H     1.0000    0     1.008   15.983931  -24.282743    0.955725
  55 H     1.0000    0     1.008    7.830727  -21.527692   -4.032791
  56 H     1.0000    0     1.008   10.185685  -23.755648   -4.873477
  57 H     1.0000    0     1.008   19.769461  -11.308307   -0.908255
  58 H     1.0000    0     1.008   25.608677  -26.288731    0.847219
  59 H     1.0000    0     1.008   27.801019  -22.558991    3.071995
  60 H     1.0000    0     1.008   30.319600  -26.123578    1.361150
  61 H     1.0000    0     1.008   30.513523  -24.385262   -1.521862
  62 H     1.0000    0     1.008   28.341484  -27.974809   -3.174205
  63 H     1.0000    0     1.008   23.209659  -25.036410    3.925652
  64 H     1.0000    0     1.008   19.922847  -16.657191    1.536484
  65 H     1.0000    0     1.008   24.320124  -17.845931    0.488630
  66 H     1.0000    0     1.008   25.117236  -16.646192   -5.405182
  67 H     1.0000    0     1.008   22.501569  -17.942558   -7.078547
  68 H     1.0000    0     1.008   22.087431  -16.768182   -3.943436
  69 H     1.0000    0     1.008   22.155913  -31.995885   -0.568153
  70 H     1.0000    0     1.008   19.426489  -30.144678    0.124273
  71 H     1.0000    0     1.008   20.110710  -31.015700   -3.057911
  72 H     1.0000    0     1.008   15.363308  -15.359955    3.865288
  73 H     1.0000    0     1.008   16.115033  -12.250462    4.924543
  74 H     1.0000    0     1.008   13.316869  -12.763970    3.126929
  75 H     1.0000    0     1.008   27.171318  -20.468451   -1.748946
  76 H     1.0000    0     1.008   11.449055  -26.275340   -0.917196
  77 H     1.0000    0     1.008    7.822760  -23.516116   -0.112773
  78 H     1.0000    0     1.008   15.934156  -20.956742    4.760637
  79 H     1.0000    0     1.008   19.591899  -27.591478    4.148791
  80 H     1.0000    0     1.008   20.601901  -26.574551    7.205590
  81 H     1.0000    0     1.008   17.383685  -27.422059    6.682877

--------------------------------
INTERNAL COORDINATES (ANGSTROEM)
--------------------------------
 C      0   0   0     0.000000000000     0.00000000     0.00000000
 C      1   0   0     1.400566497579     0.00000000     0.00000000
 C      2   1   0     1.399094915875   119.79436288     0.00000000
 C      3   2   1     1.388217798038   119.43250127     0.22565731
 C      4   3   2     1.385770443974   120.62727365   359.47503266
 C      1   2   3     1.386856400043   119.95447806     0.41785628
 C      5   4   3     1.502622958240   119.82378277   181.86224830
 C      7   5   4     1.537422744462   110.18484543    91.48721731
 C      8   7   5     1.543124365094   113.93030038   162.44568621
 C      9   8   7     1.543253764303   112.41332118   297.09513326
 C     10   9   8     1.503927742418   115.24331905   318.34065656
 C     11  10   9     1.393715616632   120.65817285   303.70995907
 C     12  11  10     1.381774192596   120.65104090   180.58433113
 C     13  12  11     1.406192911691   119.81073518     0.38634195
 C     14  13  12     1.382044101058   119.46624438     0.54403303
 C     11  10   9     1.384616246967   120.33567747   125.21361559
 C      8   7   5     1.543351516696   109.82083440   290.36892765
 C      9   8   7     1.536773233677   115.01441658    60.35911986
 O      3   2   1     1.368053565642   116.30908500   180.37821762
 O      1   2   3     1.365079734246   115.00117890   180.42958968
 O      2   1   3     1.380103390983   117.93900857   176.19371268
 O     14  13  12     1.360236102150   120.37733819   180.76987323
 O     13  12  11     1.374154111516   125.84432662   180.03184313
 C     21   2   1     1.424621568099   117.04962516   116.17663807
 C     24  21   2     1.550399845437   110.21851679   284.88336467
 C     25  24  21     1.518721792849   111.46948933    72.89376998
 C     24  21   2     1.532272653782   105.02350626   165.11500719
 O     27  24  21     1.402079248419   111.22216335   297.62370693
 C     26  25  24     1.392856909907   120.05333527    53.78604737
 C     29  26  25     1.380678943011   120.35960937   181.35229485
 C     30  29  26     1.403759116993   119.96158186   359.41136821
 C     31  30  29     1.380691217550   119.50003762   358.95264613
 C     26  25  24     1.384100560523   120.70210302   232.91067698
 C     20   1   2     1.408563822227   118.41535948   179.04152948
 C     19   3   2     1.407324811405   118.27549023   186.75846565
 C     23  13  12     1.408868625040   118.20549651     3.76130795
 O     25  24  21     1.400105375635   109.45763268   307.61913083
 O     17   8   7     1.401419129383   115.37601934   313.26609960
 O     18   9   8     1.413363851031   114.30600858    72.13108226
 O     30  29  26     1.378306477926   125.51328059   179.63356576
 O     31  30  29     1.367357924255   119.72469834   179.90382514
 C     40  30  29     1.405694210922   118.09099226   354.99411477
 H      4   3   2     1.077558852780   120.81385649   179.90432371
 H      6   1   2     1.077810109116   120.75730668   178.78905332
 H      7   5   4     1.090588341745   109.33674841   331.38764601
 H      7   5   4     1.088694954950   109.31395906   211.86735963
 H      8   7   5     1.095118743383   107.69915387    45.18032332
 H      9   8   7     1.098849221282   106.31599021   179.15240448
 H     10   9   8     1.091505769447   108.93348060    80.94531450
 H     10   9   8     1.094744962839   107.85005333   196.73863963
 H     12  11  10     1.077774923853   119.28521521     0.98573091
 H     15  14  13     1.078294686392   118.59380453   179.07479057
 H     16  11  10     1.080139629761   119.95561879   359.55762176
 H     17   8   7     1.101806331791   109.05728570   188.22825609
 H     17   8   7     1.091363689646   108.10892599    70.83378136
 H     18   9   8     1.098923882216   108.88357261   194.52125338
 H     18   9   8     1.091078178163   110.65959463   313.13219744
 H     22  14  13     0.967240800883   107.83335928   358.48968863
 H     24  21   2     1.094559278329   110.06433111    47.69985208
 H     25  24  21     1.098018668107   108.05279081   192.46743635
 H     27  24  21     1.091794549811   110.18774609   179.25481913
 H     27  24  21     1.098537854204   108.43079134    59.89717639
 H     28  27  24     0.966078930728   106.66030838    46.33326646
 H     29  26  25     1.078087560614   119.48514360     1.91944610
 H     32  31  30     1.077057661198   119.04203379   181.36347910
 H     33  26  25     1.078056162500   119.37564319   357.82731995
 H     34  20   1     1.088849606082   105.63888291   180.25665587
 H     34  20   1     1.093761091913   111.25587155   298.80155115
 H     34  20   1     1.092918886561   111.61340737    61.36967297
 H     35  19   3     1.089087814248   105.48690786   177.62014105
 H     35  19   3     1.095009199011   111.87800422   296.56257982
 H     35  19   3     1.093874045597   111.38242411    58.95832121
 H     36  23  13     1.093075787778   111.02974103    58.99311235
 H     36  23  13     1.088824993680   105.53384099   177.70656845
 H     36  23  13     1.094419845738   111.18746285   296.11726069
 H     37  25  24     0.972932213216   106.56157956    52.54982760
 H     38  17   8     0.972162455277   107.66198472   296.30399058
 H     39  18   9     0.963864270587   108.89918550    59.01203674
 H     41  31  30     0.967265776874   106.79475208     0.06632258
 H     42  40  30     1.093707868635   111.30158931   303.68909832
 H     42  40  30     1.094385045632   111.44256929    66.20434084
 H     42  40  30     1.088872396657   105.69637068   185.04811357

---------------------------
INTERNAL COORDINATES (A.U.)
---------------------------
 C      0   0   0     0.000000000000     0.00000000     0.00000000
 C      1   0   0     2.646687112770     0.00000000     0.00000000
 C      2   1   0     2.643906226365   119.79436288     0.00000000
 C      3   2   1     2.623351452528   119.43250127     0.22565731
 C      4   3   2     2.618726623593   120.62727365   359.47503266
 C      1   2   3     2.620778783157   119.95447806     0.41785628
 C      5   4   3     2.839545873616   119.82378277   181.86224830
 C      7   5   4     2.905307939094   110.18484543    91.48721731
 C      8   7   5     2.916082440608   113.93030038   162.44568621
 C      9   8   7     2.916326969676   112.41332118   297.09513326
 C     10   9   8     2.842011558377   115.24331905   318.34065656
 C     11  10   9     2.633740824003   120.65817285   303.70995907
 C     12  11  10     2.611174802927   120.65104090   180.58433113
 C     13  12  11     2.657319494557   119.81073518     0.38634195
 C     14  13  12     2.611684856001   119.46624438     0.54403303
 C     11  10   9     2.616545507346   120.33567747   125.21361559
 C      8   7   5     2.916511694928   109.82083440   290.36892765
 C      9   8   7     2.904080541590   115.01441658    60.35911986
 O      3   2   1     2.585246575598   116.30908500   180.37821762
 O      1   2   3     2.579626848690   115.00117890   180.42958968
 O      2   1   3     2.608017445455   117.93900857   176.19371268
 O     14  13  12     2.570473710536   120.37733819   180.76987323
 O     13  12  11     2.596774936566   125.84432662   180.03184313
 C     21   2   1     2.692144608184   117.04962516   116.17663807
 C     24  21   2     2.929831105950   110.21851679   284.88336467
 C     25  24  21     2.869968262102   111.46948933    72.89376998
 C     24  21   2     2.895575678146   105.02350626   165.11500719
 O     27  24  21     2.649545797566   111.22216335   297.62370693
 C     26  25  24     2.632118103464   120.05333527    53.78604737
 C     29  26  25     2.609105081162   120.35960937   181.35229485
 C     30  29  26     2.652720289112   119.96158186   359.41136821
 C     31  30  29     2.609128276679   119.50003762   358.95264613
 C     26  25  24     2.615571001195   120.70210302   232.91067698
 C     20   1   2     2.661799866158   118.41535948   179.04152948
 C     19   3   2     2.659458475028   118.27549023   186.75846565
 C     23  13  12     2.662375859999   118.20549651     3.76130795
 O     25  24  21     2.645815718582   109.45763268   307.61913083
 O     17   8   7     2.648298353373   115.37601934   313.26609960
 O     18   9   8     2.670870606033   114.30600858    72.13108226
 O     30  29  26     2.604621771889   125.51328059   179.63356576
 O     31  30  29     2.583932003888   119.72469834   179.90382514
 C     40  30  29     2.656377086680   118.09099226   354.99411477
 H      4   3   2     2.036291124936   120.81385649   179.90432371
 H      6   1   2     2.036765930602   120.75730668   178.78905332
 H      7   5   4     2.060913290746   109.33674841   331.38764601
 H      7   5   4     2.057335308237   109.31395906   211.86735963
 H      8   7   5     2.069474509118   107.69915387    45.18032332
 H      9   8   7     2.076524090696   106.31599021   179.15240448
 H     10   9   8     2.062646977850   108.93348060    80.94531450
 H     10   9   8     2.068768166256   107.85005333   196.73863963
 H     12  11  10     2.036699440089   119.28521521     0.98573091
 H     15  14  13     2.037681648943   118.59380453   179.07479057
 H     16  11  10     2.041168086643   119.95561879   359.55762176
 H     17   8   7     2.082112219705   109.05728570   188.22825609
 H     17   8   7     2.062378485936   108.10892599    70.83378136
 H     18   9   8     2.076665179414   108.88357261   194.52125338
 H     18   9   8     2.061838947425   110.65959463   313.13219744
 H     22  14  13     1.827820219223   107.83335928   358.48968863
 H     24  21   2     2.068417273385   110.06433111    47.69985208
 H     25  24  21     2.074954572655   108.05279081   192.46743635
 H     27  24  21     2.063192693651   110.18774609   179.25481913
 H     27  24  21     2.075935692191   108.43079134    59.89717639
 H     28  27  24     1.825624602827   106.66030838    46.33326646
 H     29  26  25     2.037290237948   119.48514360     1.91944610
 H     32  31  30     2.035344010106   119.04203379   181.36347910
 H     33  26  25     2.037230904111   119.37564319   357.82731995
 H     34  20   1     2.057627556524   105.63888291   180.25665587
 H     34  20   1     2.066908919653   111.25587155   298.80155115
 H     34  20   1     2.065317382191   111.61340737    61.36967297
 H     35  19   3     2.058077704720   105.48690786   177.62014105
 H     35  19   3     2.069267500255   111.87800422   296.56257982
 H     35  19   3     2.067122371183   111.38242411    58.95832121
 H     36  23  13     2.065613882520   111.02974103    58.99311235
 H     36  23  13     2.057581045823   105.53384099   177.70656845
 H     36  23  13     2.068153783972   111.18746285   296.11726069
 H     37  25  24     1.838575429847   106.56157956    52.54982760
 H     38  17   8     1.837120798155   107.66198472   296.30399058
 H     39  18   9     1.821439501681   108.89918550    59.01203674
 H     41  31  30     1.827867417006   106.79475208     0.06632258
 H     42  40  30     2.066808342235   111.30158931   303.68909832
 H     42  40  30     2.068088021303   111.44256929    66.20434084
 H     42  40  30     2.057670624468   105.69637068   185.04811357

---------------------
BASIS SET INFORMATION
---------------------
There are 3 groups of distinct atoms

 Group   1 Type C   : 11s6p2d1f contracted to 5s3p2d1f pattern {62111/411/11/1}
 Group   2 Type O   : 11s6p2d1f contracted to 5s3p2d1f pattern {62111/411/11/1}
 Group   3 Type H   : 5s1p contracted to 3s1p pattern {311/1}

Atom   0C    basis set group =>   1
Atom   1C    basis set group =>   1
Atom   2C    basis set group =>   1
Atom   3C    basis set group =>   1
Atom   4C    basis set group =>   1
Atom   5C    basis set group =>   1
Atom   6C    basis set group =>   1
Atom   7C    basis set group =>   1
Atom   8C    basis set group =>   1
Atom   9C    basis set group =>   1
Atom  10C    basis set group =>   1
Atom  11C    basis set group =>   1
Atom  12C    basis set group =>   1
Atom  13C    basis set group =>   1
Atom  14C    basis set group =>   1
Atom  15C    basis set group =>   1
Atom  16C    basis set group =>   1
Atom  17C    basis set group =>   1
Atom  18O    basis set group =>   2
Atom  19O    basis set group =>   2
Atom  20O    basis set group =>   2
Atom  21O    basis set group =>   2
Atom  22O    basis set group =>   2
Atom  23C    basis set group =>   1
Atom  24C    basis set group =>   1
Atom  25C    basis set group =>   1
Atom  26C    basis set group =>   1
Atom  27O    basis set group =>   2
Atom  28C    basis set group =>   1
Atom  29C    basis set group =>   1
Atom  30C    basis set group =>   1
Atom  31C    basis set group =>   1
Atom  32C    basis set group =>   1
Atom  33C    basis set group =>   1
Atom  34C    basis set group =>   1
Atom  35C    basis set group =>   1
Atom  36O    basis set group =>   2
Atom  37O    basis set group =>   2
Atom  38O    basis set group =>   2
Atom  39O    basis set group =>   2
Atom  40O    basis set group =>   2
Atom  41C    basis set group =>   1
Atom  42H    basis set group =>   3
Atom  43H    basis set group =>   3
Atom  44H    basis set group =>   3
Atom  45H    basis set group =>   3
Atom  46H    basis set group =>   3
Atom  47H    basis set group =>   3
Atom  48H    basis set group =>   3
Atom  49H    basis set group =>   3
Atom  50H    basis set group =>   3
Atom  51H    basis set group =>   3
Atom  52H    basis set group =>   3
Atom  53H    basis set group =>   3
Atom  54H    basis set group =>   3
Atom  55H    basis set group =>   3
Atom  56H    basis set group =>   3
Atom  57H    basis set group =>   3
Atom  58H    basis set group =>   3
Atom  59H    basis set group =>   3
Atom  60H    basis set group =>   3
Atom  61H    basis set group =>   3
Atom  62H    basis set group =>   3
Atom  63H    basis set group =>   3
Atom  64H    basis set group =>   3
Atom  65H    basis set group =>   3
Atom  66H    basis set group =>   3
Atom  67H    basis set group =>   3
Atom  68H    basis set group =>   3
Atom  69H    basis set group =>   3
Atom  70H    basis set group =>   3
Atom  71H    basis set group =>   3
Atom  72H    basis set group =>   3
Atom  73H    basis set group =>   3
Atom  74H    basis set group =>   3
Atom  75H    basis set group =>   3
Atom  76H    basis set group =>   3
Atom  77H    basis set group =>   3
Atom  78H    basis set group =>   3
Atom  79H    basis set group =>   3
Atom  80H    basis set group =>   3
Atom  81H    basis set group =>   3
---------------------------------
AUXILIARY/J BASIS SET INFORMATION
---------------------------------
There are 3 groups of distinct atoms

 Group   1 Type C   : 12s5p4d2f1g contracted to 6s4p3d1f1g pattern {711111/2111/211/2/1}
 Group   2 Type O   : 12s5p4d2f1g contracted to 6s4p3d1f1g pattern {711111/2111/211/2/1}
 Group   3 Type H   : 5s2p1d contracted to 3s1p1d pattern {311/2/1}

Atom   0C    basis set group =>   1
Atom   1C    basis set group =>   1
Atom   2C    basis set group =>   1
Atom   3C    basis set group =>   1
Atom   4C    basis set group =>   1
Atom   5C    basis set group =>   1
Atom   6C    basis set group =>   1
Atom   7C    basis set group =>   1
Atom   8C    basis set group =>   1
Atom   9C    basis set group =>   1
Atom  10C    basis set group =>   1
Atom  11C    basis set group =>   1
Atom  12C    basis set group =>   1
Atom  13C    basis set group =>   1
Atom  14C    basis set group =>   1
Atom  15C    basis set group =>   1
Atom  16C    basis set group =>   1
Atom  17C    basis set group =>   1
Atom  18O    basis set group =>   2
Atom  19O    basis set group =>   2
Atom  20O    basis set group =>   2
Atom  21O    basis set group =>   2
Atom  22O    basis set group =>   2
Atom  23C    basis set group =>   1
Atom  24C    basis set group =>   1
Atom  25C    basis set group =>   1
Atom  26C    basis set group =>   1
Atom  27O    basis set group =>   2
Atom  28C    basis set group =>   1
Atom  29C    basis set group =>   1
Atom  30C    basis set group =>   1
Atom  31C    basis set group =>   1
Atom  32C    basis set group =>   1
Atom  33C    basis set group =>   1
Atom  34C    basis set group =>   1
Atom  35C    basis set group =>   1
Atom  36O    basis set group =>   2
Atom  37O    basis set group =>   2
Atom  38O    basis set group =>   2
Atom  39O    basis set group =>   2
Atom  40O    basis set group =>   2
Atom  41C    basis set group =>   1
Atom  42H    basis set group =>   3
Atom  43H    basis set group =>   3
Atom  44H    basis set group =>   3
Atom  45H    basis set group =>   3
Atom  46H    basis set group =>   3
Atom  47H    basis set group =>   3
Atom  48H    basis set group =>   3
Atom  49H    basis set group =>   3
Atom  50H    basis set group =>   3
Atom  51H    basis set group =>   3
Atom  52H    basis set group =>   3
Atom  53H    basis set group =>   3
Atom  54H    basis set group =>   3
Atom  55H    basis set group =>   3
Atom  56H    basis set group =>   3
Atom  57H    basis set group =>   3
Atom  58H    basis set group =>   3
Atom  59H    basis set group =>   3
Atom  60H    basis set group =>   3
Atom  61H    basis set group =>   3
Atom  62H    basis set group =>   3
Atom  63H    basis set group =>   3
Atom  64H    basis set group =>   3
Atom  65H    basis set group =>   3
Atom  66H    basis set group =>   3
Atom  67H    basis set group =>   3
Atom  68H    basis set group =>   3
Atom  69H    basis set group =>   3
Atom  70H    basis set group =>   3
Atom  71H    basis set group =>   3
Atom  72H    basis set group =>   3
Atom  73H    basis set group =>   3
Atom  74H    basis set group =>   3
Atom  75H    basis set group =>   3
Atom  76H    basis set group =>   3
Atom  77H    basis set group =>   3
Atom  78H    basis set group =>   3
Atom  79H    basis set group =>   3
Atom  80H    basis set group =>   3
Atom  81H    basis set group =>   3
--------------------------------------------------------------------------
WARNING: There is at least one non-excluded one OpenFabrics device found,
but there are no active ports detected (or Open MPI was unable to use
them).  This is most certainly not what you wanted.  Check your
cables, subnet manager configuration, etc.  The openib BTL will be
ignored for this job.

  Local host: c01b01n07
--------------------------------------------------------------------------
--------------------------------------------------------------------------
WARNING: There was an error initializing an OpenFabrics device.

  Local host:   c01b01n07
  Local device: mlx5_0
--------------------------------------------------------------------------
[c01b01n07:1986749] 4 more processes have sent help message help-mpi-btl-openib.txt / no active ports found
[c01b01n07:1986749] Set MCA parameter "orte_base_help_aggregate" to 0 to see all help / error messages
[c01b01n07:1986749] 58 more processes have sent help message help-mpi-btl-openib.txt / error in device init


           ************************************************************
           *        Program running with 64 parallel MPI-processes    *
           *              working on a common directory               *
           ************************************************************
------------------------------------------------------------------------------
                             ORCA STARTUP CALCULATIONS
                           -- RI-GTO INTEGRALS CHOSEN --
------------------------------------------------------------------------------
------------------------------------------------------------------------------
                   ___                                                        
                  /   \      - P O W E R E D   B Y -                         
                 /     \                                                     
                 |  |  |   _    _      __       _____    __    __             
                 |  |  |  | |  | |    /  \     |  _  \  |  |  /  |          
                  \  \/   | |  | |   /    \    | | | |  |  | /  /          
                 / \  \   | |__| |  /  /\  \   | |_| |  |  |/  /          
                |  |  |   |  __  | /  /__\  \  |    /   |      \           
                |  |  |   | |  | | |   __   |  |    \   |  |\   \          
                \     /   | |  | | |  |  |  |  | |\  \  |  | \   \       
                 \___/    |_|  |_| |__|  |__|  |_| \__\ |__|  \__/        
                                                                              
                      - O R C A' S   B I G   F R I E N D -                    
                                      &                                       
                       - I N T E G R A L  F E E D E R -                       
                                                                              
 v1 FN, 2020, v2 2021, v3 2022-2024                                           
------------------------------------------------------------------------------


----------------------
SHARK INTEGRAL PACKAGE
----------------------

Number of atoms                             ...     82
Number of basis functions                   ...   1542
Number of shells                            ...    622
Maximum angular momentum                    ...      3
Integral batch strategy                     ... SHARK/LIBINT Hybrid
RI-J (if used) integral strategy            ... SPLIT-RIJ (Revised 2003 algorithm where possible)
Printlevel                                  ...      1
Contraction scheme used                     ... SEGMENTED contraction
Prescreening option                         ... SCHWARTZ
   Thresh                                   ... 2.500e-11
   Tcut                                     ... 2.500e-12
   Tpresel                                  ... 2.500e-12 
Coulomb Range Separation                    ... NOT USED
Exchange Range Separation                   ... NOT USED
Multipole approximations                    ... NOT USED
Finite Nucleus Model                        ... NOT USED
CABS basis                                  ... NOT available
Auxiliary Coulomb fitting basis             ... AVAILABLE
   # of basis functions in Aux-J            ...   2498
   # of shells in Aux-J                     ...    830
   Maximum angular momentum in Aux-J        ...      4
Auxiliary J/K fitting basis                 ... NOT available
Auxiliary Correlation fitting basis         ... NOT available
Auxiliary 'external' fitting basis          ... NOT available

Checking pre-screening integrals            ... done (  0.4 sec) Dimension = 622
   => SHARK Basis and OBASIS are compatible. Storing Pre-screening
Shell pair information
Shell pair cut-off parameter TPreSel        ...   2.5e-12
Total number of shell pairs                 ...    193753
Shell pairs after pre-screening             ...    118100
Total number of primitive shell pairs       ...    584784
Primitive shell pairs kept                  ...    222794
          la=0 lb=0:  32915 shell pairs
          la=1 lb=0:  35247 shell pairs
          la=1 lb=1:   9545 shell pairs
          la=2 lb=0:  16003 shell pairs
          la=2 lb=1:   8778 shell pairs
          la=2 lb=2:   2004 shell pairs
          la=3 lb=0:   7301 shell pairs
          la=3 lb=1:   4103 shell pairs
          la=3 lb=2:   1786 shell pairs
          la=3 lb=3:    418 shell pairs

Checking whether 4 symmetric matrices of dimension 1542 fit in memory
:Max Core in MB      =   6000.00
 MB in use           =    141.44
 MB left             =   5858.56
 MB needed           =     36.31
 Data fit in memory  = YES
Calculating RI/J V-Matrix + Cholesky decomp.... done (  4.8 sec)
Calculating Nuclear repulsion               ... done (  0.0 sec) ENN=   5798.396923182243 Eh

Diagonalization of the overlap matrix:
Smallest eigenvalue                        ... 2.593e-06
Time for diagonalization                   ...   53.910 sec
Threshold for overlap eigenvalues          ... 1.000e-07
Number of eigenvalues below threshold      ... 0
Time for construction of square roots      ...    2.815 sec
Total time needed                          ...   57.081 sec

-------------------
DFT GRID GENERATION
-------------------

General Integration Accuracy     IntAcc      ... 4.388
Radial Grid Type                 RadialGrid  ... OptM3 with GC (2021)
Angular Grid (max. ang.)         AngularGrid ... 4 (Lebedev-302)
Angular grid pruning method      GridPruning ... 4 (adaptive)
Weight generation scheme         WeightScheme... mBecke (2022)
Basis function cutoff            BFCut       ... 1.0000e-11
Integration weight cutoff        WCut        ... 1.0000e-14
Partially contracted basis set               ... off
Rotationally invariant grid construction     ... off
Angular grids for H and He will be reduced by one unit

Total number of grid points                  ...   373424
Total number of batches                      ...     5879
Average number of points per batch           ...       63
Average number of grid points per atom       ...     4554

--------------------
COSX GRID GENERATION
--------------------

GRIDX 1
-------
General Integration Accuracy     IntAcc      ... 3.816
Radial Grid Type                 RadialGrid  ... OptM3 with GC (2021)
Angular Grid (max. ang.)         AngularGrid ... 1 (Lebedev-50)
Angular grid pruning method      GridPruning ... 4 (adaptive)
Weight generation scheme         WeightScheme... mBecke (2022)
Basis function cutoff            BFCut       ... 1.0000e-11
Integration weight cutoff        WCut        ... 1.0000e-14
Partially contracted basis set               ... on
Rotationally invariant grid construction     ... off
Angular grids for H and He will be reduced by one unit

Total number of grid points                  ...    47199
Total number of batches                      ...      415
Average number of points per batch           ...      113
Average number of grid points per atom       ...      576
UseSFitting                                  ... on

GRIDX 2
-------
General Integration Accuracy     IntAcc      ... 4.020
Radial Grid Type                 RadialGrid  ... OptM3 with GC (2021)
Angular Grid (max. ang.)         AngularGrid ... 2 (Lebedev-110)
Angular grid pruning method      GridPruning ... 4 (adaptive)
Weight generation scheme         WeightScheme... mBecke (2022)
Basis function cutoff            BFCut       ... 1.0000e-11
[...]
freq.     654.81  E(vib)   ...       0.08 
freq.     670.96  E(vib)   ...       0.08 
freq.     684.10  E(vib)   ...       0.07 
freq.     718.66  E(vib)   ...       0.07 
freq.     729.54  E(vib)   ...       0.06 
freq.     739.75  E(vib)   ...       0.06 
freq.     746.87  E(vib)   ...       0.06 
freq.     749.73  E(vib)   ...       0.06 
freq.     762.46  E(vib)   ...       0.06 
freq.     772.47  E(vib)   ...       0.05 
freq.     777.12  E(vib)   ...       0.05 
freq.     804.12  E(vib)   ...       0.05 
freq.     810.75  E(vib)   ...       0.05 
freq.     812.65  E(vib)   ...       0.05 
freq.     834.74  E(vib)   ...       0.04 
freq.     852.79  E(vib)   ...       0.04 
freq.     858.68  E(vib)   ...       0.04 
freq.     864.22  E(vib)   ...       0.04 
freq.     874.42  E(vib)   ...       0.04 
freq.     879.34  E(vib)   ...       0.04 
freq.     892.79  E(vib)   ...       0.03 
freq.     897.36  E(vib)   ...       0.03 
freq.     910.15  E(vib)   ...       0.03 
freq.     915.07  E(vib)   ...       0.03 
freq.     923.41  E(vib)   ...       0.03 
freq.     939.81  E(vib)   ...       0.03 
freq.     952.41  E(vib)   ...       0.03 
freq.     954.80  E(vib)   ...       0.03 
freq.     959.07  E(vib)   ...       0.03 
freq.     973.31  E(vib)   ...       0.03 
freq.     978.85  E(vib)   ...       0.03 
freq.     985.86  E(vib)   ...       0.02 
freq.    1005.99  E(vib)   ...       0.02 
freq.    1008.42  E(vib)   ...       0.02 
freq.    1026.96  E(vib)   ...       0.02 
freq.    1046.88  E(vib)   ...       0.02 
freq.    1047.82  E(vib)   ...       0.02 
freq.    1057.97  E(vib)   ...       0.02 
freq.    1063.63  E(vib)   ...       0.02 
freq.    1067.74  E(vib)   ...       0.02 
freq.    1079.37  E(vib)   ...       0.02 
freq.    1097.96  E(vib)   ...       0.02 
freq.    1101.41  E(vib)   ...       0.02 
freq.    1115.31  E(vib)   ...       0.01 
freq.    1137.12  E(vib)   ...       0.01 
freq.    1139.79  E(vib)   ...       0.01 
freq.    1141.59  E(vib)   ...       0.01 
freq.    1145.34  E(vib)   ...       0.01 
freq.    1169.68  E(vib)   ...       0.01 
freq.    1170.38  E(vib)   ...       0.01 
freq.    1171.39  E(vib)   ...       0.01 
freq.    1171.61  E(vib)   ...       0.01 
freq.    1173.59  E(vib)   ...       0.01 
freq.    1173.73  E(vib)   ...       0.01 
freq.    1175.99  E(vib)   ...       0.01 
freq.    1180.98  E(vib)   ...       0.01 
freq.    1197.68  E(vib)   ...       0.01 
freq.    1201.61  E(vib)   ...       0.01 
freq.    1203.09  E(vib)   ...       0.01 
freq.    1207.72  E(vib)   ...       0.01 
freq.    1213.94  E(vib)   ...       0.01 
freq.    1221.37  E(vib)   ...       0.01 
freq.    1222.77  E(vib)   ...       0.01 
freq.    1226.48  E(vib)   ...       0.01 
freq.    1227.56  E(vib)   ...       0.01 
freq.    1244.59  E(vib)   ...       0.01 
freq.    1249.54  E(vib)   ...       0.01 
freq.    1250.74  E(vib)   ...       0.01 
freq.    1268.05  E(vib)   ...       0.01 
freq.    1269.66  E(vib)   ...       0.01 
freq.    1276.17  E(vib)   ...       0.01 
freq.    1283.09  E(vib)   ...       0.01 
freq.    1289.58  E(vib)   ...       0.01 
freq.    1296.68  E(vib)   ...       0.01 
freq.    1306.86  E(vib)   ...       0.01 
freq.    1313.90  E(vib)   ...       0.01 
freq.    1316.92  E(vib)   ...       0.01 
freq.    1327.71  E(vib)   ...       0.01 
freq.    1336.13  E(vib)   ...       0.01 
freq.    1341.21  E(vib)   ...       0.01 
freq.    1348.46  E(vib)   ...       0.01 
freq.    1353.65  E(vib)   ...       0.01 
freq.    1365.82  E(vib)   ...       0.01 
freq.    1368.43  E(vib)   ...       0.01 
freq.    1371.17  E(vib)   ...       0.01 
freq.    1384.89  E(vib)   ...       0.00 
freq.    1385.32  E(vib)   ...       0.00 
freq.    1391.57  E(vib)   ...       0.00 
freq.    1400.13  E(vib)   ...       0.00 
freq.    1400.94  E(vib)   ...       0.00 
freq.    1411.41  E(vib)   ...       0.00 
freq.    1421.38  E(vib)   ...       0.00 
freq.    1425.09  E(vib)   ...       0.00 
freq.    1441.88  E(vib)   ...       0.00 
freq.    1454.03  E(vib)   ...       0.00 
freq.    1454.57  E(vib)   ...       0.00 
freq.    1460.58  E(vib)   ...       0.00 
freq.    1461.44  E(vib)   ...       0.00 
freq.    1478.03  E(vib)   ...       0.00 
freq.    1478.48  E(vib)   ...       0.00 
freq.    1479.47  E(vib)   ...       0.00 
freq.    1479.66  E(vib)   ...       0.00 
freq.    1480.09  E(vib)   ...       0.00 
freq.    1480.49  E(vib)   ...       0.00 
freq.    1481.08  E(vib)   ...       0.00 
freq.    1484.32  E(vib)   ...       0.00 
freq.    1487.55  E(vib)   ...       0.00 
freq.    1490.45  E(vib)   ...       0.00 
freq.    1490.79  E(vib)   ...       0.00 
freq.    1491.60  E(vib)   ...       0.00 
freq.    1492.28  E(vib)   ...       0.00 
freq.    1494.08  E(vib)   ...       0.00 
freq.    1494.86  E(vib)   ...       0.00 
freq.    1498.37  E(vib)   ...       0.00 
freq.    1499.80  E(vib)   ...       0.00 
freq.    1536.70  E(vib)   ...       0.00 
freq.    1541.14  E(vib)   ...       0.00 
freq.    1544.05  E(vib)   ...       0.00 
freq.    1628.20  E(vib)   ...       0.00 
freq.    1637.56  E(vib)   ...       0.00 
freq.    1642.83  E(vib)   ...       0.00 
freq.    1643.34  E(vib)   ...       0.00 
freq.    1648.89  E(vib)   ...       0.00 
freq.    1651.43  E(vib)   ...       0.00 
freq.    2985.79  E(vib)   ...       0.00 
freq.    2996.32  E(vib)   ...       0.00 
freq.    3017.10  E(vib)   ...       0.00 
freq.    3019.69  E(vib)   ...       0.00 
freq.    3021.32  E(vib)   ...       0.00 
freq.    3022.95  E(vib)   ...       0.00 
freq.    3024.04  E(vib)   ...       0.00 
freq.    3028.04  E(vib)   ...       0.00 
freq.    3028.33  E(vib)   ...       0.00 
freq.    3033.49  E(vib)   ...       0.00 
freq.    3034.72  E(vib)   ...       0.00 
freq.    3054.52  E(vib)   ...       0.00 
freq.    3060.19  E(vib)   ...       0.00 
freq.    3083.08  E(vib)   ...       0.00 
freq.    3085.38  E(vib)   ...       0.00 
freq.    3087.31  E(vib)   ...       0.00 
freq.    3090.93  E(vib)   ...       0.00 
freq.    3095.44  E(vib)   ...       0.00 
freq.    3098.04  E(vib)   ...       0.00 
freq.    3100.42  E(vib)   ...       0.00 
freq.    3104.63  E(vib)   ...       0.00 
freq.    3109.16  E(vib)   ...       0.00 
freq.    3138.41  E(vib)   ...       0.00 
freq.    3142.83  E(vib)   ...       0.00 
freq.    3142.89  E(vib)   ...       0.00 
freq.    3143.18  E(vib)   ...       0.00 
freq.    3171.91  E(vib)   ...       0.00 
freq.    3189.25  E(vib)   ...       0.00 
freq.    3194.45  E(vib)   ...       0.00 
freq.    3200.42  E(vib)   ...       0.00 
freq.    3212.06  E(vib)   ...       0.00 
freq.    3214.62  E(vib)   ...       0.00 
freq.    3217.22  E(vib)   ...       0.00 
freq.    3218.77  E(vib)   ...       0.00 
freq.    3514.65  E(vib)   ...       0.00 
freq.    3608.78  E(vib)   ...       0.00 
freq.    3720.00  E(vib)   ...       0.00 
freq.    3723.69  E(vib)   ...       0.00 
freq.    3757.00  E(vib)   ...       0.00 
freq.    3767.30  E(vib)   ...       0.00 

------------
INNER ENERGY
------------

The inner energy is: U= E(el) + E(ZPE) + E(vib) + E(rot) + E(trans)
    E(el)   - is the total energy from the electronic structure calculation
              = E(kin-el) + E(nuc-el) + E(el-el) + E(nuc-nuc)
    E(ZPE)  - the the zero temperature vibrational energy from the frequency calculation
    E(vib)  - the the finite temperature correction to E(ZPE) due to population
              of excited vibrational states
    E(rot)  - is the rotational thermal energy
    E(trans)- is the translational thermal energy

Summary of contributions to the inner energy U:
Electronic energy                ...  -2032.64077497 Eh
Zero point energy                ...      0.68010731 Eh     426.77 kcal/mol
Thermal vibrational correction   ...      0.03983349 Eh      25.00 kcal/mol
Thermal rotational correction    ...      0.00141627 Eh       0.89 kcal/mol
Thermal translational correction ...      0.00141627 Eh       0.89 kcal/mol
-----------------------------------------------------------------------
Total thermal energy                  -2031.91800162 Eh


Summary of corrections to the electronic energy:
(perhaps to be used in another calculation)
Total thermal correction                  0.04266604 Eh      26.77 kcal/mol
Non-thermal (ZPE) correction              0.68010731 Eh     426.77 kcal/mol
-----------------------------------------------------------------------
Total correction                          0.72277335 Eh     453.55 kcal/mol


--------
ENTHALPY
--------

The enthalpy is H = U + kB*T
                kB is Boltzmann's constant
Total thermal energy              ...  -2031.91800162 Eh 
Thermal Enthalpy correction       ...      0.00094421 Eh       0.59 kcal/mol
-----------------------------------------------------------------------
Total Enthalpy                    ...  -2031.91705741 Eh


Note: Only C1 symmetry has been detected, increase convergence thresholds 
      if your molecule has a higher symmetry. Symmetry factor of 1.0 is   
      used for the rotational entropy correction. 
 

Note: Rotational entropy computed according to Herzberg 
Infrared and Raman Spectra, Chapter V,1, Van Nostrand Reinhold, 1945 
Point Group:  C1, Symmetry Number:   1  
Rotational constants in cm-1:     0.003764     0.002369     0.001987 

Vibrational entropy computed according to the QRRHO of S. Grimme
Chem.Eur.J. 2012 18 9955 using a reference frequency of 100.0 cm-1


-------
ENTROPY
-------

The entropy contributions are T*S = T*(S(el)+S(vib)+S(rot)+S(trans))
     S(el)   - electronic entropy
     S(vib)  - vibrational entropy
     S(rot)  - rotational entropy
     S(trans)- translational entropy
The entropies will be listed as multiplied by the temperature to get
units of energy

Electronic entropy                ...      0.00000000 Eh      0.00 kcal/mol
Vibrational entropy               ...      0.07112933 Eh     44.63 kcal/mol
Rotational entropy                ...      0.01793706 Eh     11.26 kcal/mol
Translational entropy             ...      0.02138181 Eh     13.42 kcal/mol
-----------------------------------------------------------------------
Final entropy term                ...      0.11044820 Eh     69.31 kcal/mol

In case the symmetry of your molecule has not been determined correctly
or in case you have a reason to use a different symmetry number we print 
out the resulting rotational entropy values for sn=1,12:

 non-linear molecules -----------------------------------
|  sn= 1 | S(rot)=       0.01793706 Eh     11.26 kcal/mol|
|  sn= 2 | S(rot)=       0.01728260 Eh     10.84 kcal/mol|
|  sn= 3 | S(rot)=       0.01689977 Eh     10.60 kcal/mol|
|  sn= 4 | S(rot)=       0.01662814 Eh     10.43 kcal/mol|
|  sn= 5 | S(rot)=       0.01641746 Eh     10.30 kcal/mol|
|  sn= 6 | S(rot)=       0.01624531 Eh     10.19 kcal/mol|
|  sn= 7 | S(rot)=       0.01609976 Eh     10.10 kcal/mol|
|  sn= 8 | S(rot)=       0.01597369 Eh     10.02 kcal/mol|
|  sn= 9 | S(rot)=       0.01586248 Eh      9.95 kcal/mol|
|  sn=10 | S(rot)=       0.01576300 Eh      9.89 kcal/mol|
|  sn=11 | S(rot)=       0.01567301 Eh      9.83 kcal/mol|
|  sn=12 | S(rot)=       0.01559085 Eh      9.78 kcal/mol|
 linear molecules ---------------------------------------
|  Dinfh | S(rot)=       0.01119991 Eh      7.03 kcal/mol|
|  Cinfv | S(rot)=       0.01185437 Eh      7.44 kcal/mol|
 --------------------------------------------------------


-------------------
GIBBS FREE ENERGY
-------------------

The Gibbs free energy is G = H - T*S

Total enthalpy                    ...  -2031.91705741 Eh 
Total entropy correction          ...     -0.11044820 Eh    -69.31 kcal/mol
-----------------------------------------------------------------------
Final Gibbs free energy         ...  -2032.02750561 Eh

For completeness - the Gibbs free energy minus the electronic energy
G-E(el)                           ...      0.61326936 Eh    384.83 kcal/mol


Maximum memory used throughout the entire PROP-calculation: 1827.0 MB
--------------------------------------------------------------------------
WARNING: There was an error initializing an OpenFabrics device.

  Local host:   c01b01n07
  Local device: mlx5_0
--------------------------------------------------------------------------
--------------------------------------------------------------------------
WARNING: There is at least one non-excluded one OpenFabrics device found,
but there are no active ports detected (or Open MPI was unable to use
them).  This is most certainly not what you wanted.  Check your
cables, subnet manager configuration, etc.  The openib BTL will be
ignored for this job.

  Local host: c01b01n07
--------------------------------------------------------------------------
[c01b01n07:2046768] 58 more processes have sent help message help-mpi-btl-openib.txt / error in device init
[c01b01n07:2046768] Set MCA parameter "orte_base_help_aggregate" to 0 to see all help / error messages
[c01b01n07:2046768] 4 more processes have sent help message help-mpi-btl-openib.txt / no active ports found

--------------------------------
SUGGESTED CITATIONS FOR THIS RUN
--------------------------------

Below you find a list of papers that are relevant to this ORCA run
We neither can nor want to force you to cite these papers, but we appreciate if you do
You receive ORCA, which is the product of decades of hard work by many enthusiastic individuals, for free
The only thing we kindly ask in return is that you cite our papers,
We deeply appreciate it, if you show your appreciation for ORCA by not just citing the generic ORCA reference.

Please note that relegating all ORCA citations to the supporting information does *not* help us.
SI sections are not indexed - citations you put there will not count into any citation statistics
But we need these citations in order to attract the funding resources that allow us to do what we are doing

Therefore, if you are a happy ORCA user, please consider citing a few of the papers listed below in the main body of your paper

In addition to the list printed below, the program has created the file opt-conf-13.bibtex that contains the list in bibtex format
You can import this file easily into all common literature databanks and citation aid programs


List of essential papers. We consider these as the minimum necessary citations

  1. Neese, F.
     Software update: the ORCA program system, version 6.0
     WIRES Comput. Molec. Sci. 2025 15(1), e70019
     doi.org/10.1002/wcms.7019

List of papers to cite with high priority. The work reported in these papers was absolutely
necessary for this run to complete.
Our perspective: the developers of density functionals and basis sets usually get cited in chemistry papers
Good! But without the algorithms to do something with them, the functionals or basis sets would not do anything.
Hence, in our opinion, the algorithm design and method developments papers are equally worthy of getting cited

  1. Neese, F.
     An improvement of the resolution of the identity approximation for the formation of the Coulomb matrix
     J. Comp. Chem. 2003 24(14), 1740-1747
     doi.org/10.1002/jcc.10318
  2. Neese, F.; Wennmohs, F.; Hansen, A.; Becker, U.
     Efficient, approximate and parallel Hartree-Fock and hybrid DFT calculations. A 'chain-of-spheres' algorithm for the Hartree-Fock exchange
     Chem. Phys. 2009 356(1-3), 98-109
     doi.org/10.1016/j.chemphys.2008.10.036
  3. Bykov, D.; Petrenko, T.; Izsak, R.; Kossmann, S.; Becker, U.; Valeev, E.; Neese, F.
     Efficient implementation of the analytic second derivatives of Hartree-Fock and hybrid DFT energies: a detailed analysis of different approximations
     Molec. Phys. 2015 113 , 1961-1977
     doi.org/10.1080/00268976.2015.1025114
  4. Caldeweyher, E.; Bannwarth, C.; Grimme, S.
     Extension of the D3 dispersion coefficient model
     J. Chem. Phys. 2017 147 , 034112
     doi.org/10.1063/1.4993215
  5. Caldeweyher, E.; Ehlert, S.; Hansen, A.; Neugebauer, H.; Spicher, S.; Bannwarth, C.; Grimme, S.
     A generally applicable atomic-charge dependent London dispersion correction
     J. Chem. Phys. 2019 150 , 154122
     doi.org/10.1063/1.5090222
  6. Garcia-Rates, M.; Neese, F.
     Efficient implementation of the analytical second derivatives of hartree-fock and hybrid DFT energies within the framework of the conductor-like polarizable continuum model
     J. Comput. Chem. 2019 40 , 1816-1828
     doi.org/10.1002/jcc.25833
  7. Caldeweyher, E.; Mewes, J.; Ehlert, S.; Grimme, S.
     Extension and evaluation of the D4 London-dispersion model for periodic systems
     Phys. Chem. Chem. Phys. 2020 22(16), 8499-8512
     doi.org/10.1039/D0CP00502A
  8. Garcia-Rates, M.; Neese, F.
     Effect of the Solute Cavity on the Solvation Energy and its Derivatives within the Framework of the Gaussian Charge Scheme
     J. Comput. Chem. 2020 41 , 922-939
     doi.org/10.1002/jcc.26139
  9. Helmich-Paris, B.; de Souza, B.; Neese, F.; Izsák, R.
     An improved chain of spheres for exchange algorithm
     J. Chem. Phys. 2021 155(10), 104109
     doi.org/10.1063/5.0058766
 10. Neese, F.
     The SHARK Integral Generation and Digestion System
     J. Comp. Chem. 2022 44(3), 381
     doi.org/10.1002/jcc.26942
 11. Wittmann, L.; Gordiy, I.; Friede, M.; Helmich-Paris, B.; Grimme, S.; Hansen, A.; Bursch, M.
     Extension of the D3 and D4 London Dispersion Corrections to the full Actinides Series
     Phys. Chem. Chem. Phys. 2024 26(32), 21379-21394
     doi.org/10.1039/D4CP01514B

List of suggested additional citations. These are papers that are important in the 'surrounding' of 
of this run, or papers that preceded the highly important papers. If you like your results we are grateful for a citation.

  1. Izsak, R.; Neese, F.
     An overlap fitted chain of spheres exchange method
     J. Chem. Phys. 2011 135 , 144105
     doi.org/10.1063/1.3646921
  2. Izsak, R.; Hansen, A.; Neese, F.
     The resolution of identity and chain of spheres approximations for the LPNO-CCSD singles Fock term
     Molec. Phys. 2012 110 , 2413-2417
     doi.org/10.1080/00268976.2012.687466
  3. Neese, F.
     The ORCA program system
     WIRES Comput. Molec. Sci. 2012 2(1), 73-78
     doi.org/10.1002/wcms.81
  4. Izsak, R.; Neese, F.; Klopper, W.
     Robust fitting techniques in the chain of spheres approximation to the Fock exchange: The role of the complementary space
     J. Chem. Phys. 2013 139 , 
     doi.org/10.1063/1.4819264
  5. Neese, F.
     Software update: the ORCA program system, version 4.0
     WIRES Comput. Molec. Sci. 2018 8(1), 1-6
     doi.org/10.1002/wcms.1327
  6. Neese, F.; Wennmohs, F.; Becker, U.; Riplinger, C.
     The ORCA quantum chemistry program package
     J. Chem. Phys. 2020 152(22), 224108
     doi.org/10.1063/5.0004608
  7. Neese, F.
     Software update: The ORCA program system—Version 5.0
     WIRES Comput. Molec. Sci. 2022 12(1), e1606
     doi.org/10.1002/wcms.1606

List of optional additional citations

  1. Neese, F.
     Approximate second-order SCF convergence for spin unrestricted wavefunctions
     Chem. Phys. Lett. 2000 325(1-3), 93-98
     doi.org/10.1016/s0009-2614(00)00662-x

Timings for individual modules:

Sum of individual times          ...    23916.418 sec (= 398.607 min)
Startup calculation              ...     2179.474 sec (=  36.325 min)   9.1 %
SCF iterations                   ...    12875.573 sec (= 214.593 min)  53.8 %
Property integrals               ...     2264.210 sec (=  37.737 min)   9.5 %
SCF Response                     ...     4419.889 sec (=  73.665 min)  18.5 %
Property calculations            ...     1129.270 sec (=  18.821 min)   4.7 %
SCF Gradient evaluation          ...     1035.534 sec (=  17.259 min)   4.3 %
Geometry relaxation              ...       12.468 sec (=   0.208 min)   0.1 %
                             ****ORCA TERMINATED NORMALLY****
TOTAL RUN TIME: 0 days 6 hours 44 minutes 50 seconds 168 msec
