
                                 *****************
                                 * O   R   C   A *
                                 *****************

                                            #,                                       
                                            ###                                      
                                            ####                                     
                                            #####                                    
                                            ######                                   
                                           ########,                                 
                                     ,,################,,,,,                         
                               ,,#################################,,                 
                          ,,##########################################,,             
                       ,#########################################, ''#####,          
                    ,#############################################,,   '####,        
                  ,##################################################,,,,####,       
                ,###########''''           ''''###############################       
              ,#####''   ,,,,##########,,,,          '''####'''          '####       
            ,##' ,,,,###########################,,,                        '##       
           ' ,,###''''                  '''############,,,                           
         ,,##''                                '''############,,,,        ,,,,,,###''
      ,#''                                            '''#######################'''  
     '                                                          ''''####''''         
             ,#######,   #######,   ,#######,      ##                                
            ,#'     '#,  ##    ##  ,#'     '#,    #''#        ,####,    ,#,          
            ##       ##  ##   ,#'  ##            #'  '#       #'       ,# #          
            ##       ##  #######   ##           ,######,      #####,      #          
            '#,     ,#'  ##    ##  '#,     ,#' ,#      #,     #,   #      #          
             '#######'   ##     ##  '#######'  #'      '#     '####' #    #          



                #########################################################
                #                        -***-                          #
                #          Department of theory and spectroscopy        #
                #                                                       #
                #                      Frank Neese                      #
                #                                                       #
                #     Directorship, Architecture, Infrastructure        #
                #                    SHARK, DRIVERS                     #
                #        Core code/Algorithms in most modules           #
                #                                                       #
                #        Max Planck Institute fuer Kohlenforschung      #
                #                Kaiser Wilhelm Platz 1                 #
                #                 D-45470 Muelheim/Ruhr                 #
                #                      Germany                          #
                #                                                       #
                #                  All rights reserved                  #
                #                        -***-                          #
                #########################################################


                         Program Version 6.1.0-f.0  -   RELEASE   -


 With contributions from (in alphabetic order):
[Max-Planck-Institut fuer Kohlenforschung]                               
  Daniel Aravena         : Magnetic Suceptibility                        
  Michael Atanasov       : Ab Initio Ligand Field Theory (pilot matlab implementation)
  Alexander A. Auer      : GIAO ZORA, VPT2 properties, NMR spectrum      
  Ute Becker             : All parallelization in ORCA, NUMFREQ, NUMCALC 
  Giovanni Bistoni       : ED, misc. LED, open-shell LED, HFLD           
  Dmytro Bykov           : pre 5.0 version of the SCF Hessian            
  Marcos Casanova-Páez   : Triplet and SCS-CIS(D). UHF-(DLPNO)-IP/EA/STEOM-CCSD. UHF-CVS-IP/STEOM-CCSD   
  Vijay G. Chilkuri      : MRCI spin determinant printing, contributions to CSF-ICE 
  Pauline Colinet        : FMM embedding                                 
  Dipayan Datta          : RHF DLPNO-CCSD density                        
  Achintya Kumar Dutta   : EOM-CC, STEOM-CC                              
  Nicolas Foglia         : Exact transition moments, OPA infrastructure, MCD improvements    
  Dmitry Ganyushin       : Spin-Orbit,Spin-Spin,Magnetic field MRCI      
  Miquel Garcia-Rates    : C-PCM and meta-GGA Hessian, CCSD/C-PCM, Gaussian charge scheme 
  Tiago L. C. Gouveia    : GS-ROHF, GS-ROCIS                             
  Yang Guo               : DLPNO-NEVPT2, F12-NEVPT2, CIM, IAO-localization        
  Andreas Hansen         : Spin unrestricted coupled pair/coupled cluster methods 
  Ingolf Harden          : AUTO-CI MPn and infrastructure                
  Benjamin Helmich-Paris : MC-RPA, TRAH-(SCF,CASSCF), AVAS, COSX integrals, SCF dyn. polar., MC-PDFT, srDFT 
  Lee Huntington         : MR-EOM, pCC                                   
  Robert Izsak           : Overlap fitted RIJCOSX, COSX-SCS-MP3, EOM     
  Riya Kayal             : Wick's Theorem for AUTO-CI, AUTO-CI UHF-CCSDT 
  Emily Kempfer          : AUTO-CI RHF CISDT and CCSDT, approximate NEVPT4
  Christian Kollmar      : KDIIS, OOCD, Brueckner-CCSD(T), CCSD density, CASPT2, CASPT2-K, improved NEVPT2 
  Axel Koslowski         : Symmetry handling                             
  Simone Kossmann        : meta-GGA functionals, TD-DFT gradient, OOMP2, (MP2 Hessian; deprecated post 5.0) 
  Lucas Lang             : DCDCAS, Hyperfine gauge corrections, ICE-SOC+SSC
  Marvin Lechner         : AUTO-CI (C++ implementation), FIC-MRCC        
  Spencer Leger          : CASSCF response                               
  Dagmar Lenk            : GEPOL surface, SMD, ORCA-2-JSON               
  Dimitrios Liakos       : Extrapolation schemes; Compound Job, Property file
  Dimitrios Manganas     : Further ROCIS development; embedding schemes. LFT, Crystal Embedding 
  Dimitrios Pantazis     : SARC Basis sets                               
  Anastasios Papadopoulos: AUTO-CI, single reference methods and gradients 
  Taras Petrenko         : pre 6.0 DFT Hessian and TD-DFT gradient,  ECA, NRVS 
  Petra Pikulova         : Analytic Raman intensities                    
  Peter Pinski           : DLPNO-MP2, DLPNO-MP2 Gradient                 
  Shashank Vittal Rao    : ES-AILFT, MagRelax                            
  Christoph Reimann      : Effective Core Potentials                     
  Marius Retegan         : Local ZFS, SOC                                
  Christoph Riplinger    : Optimizer, TS searches, QM/MM, DLPNO-CCSD(T), (RO)-DLPNO pert. Triples 
  Michael Roemelt        : Original ROCIS implementation, recursive CI coupling coefficients
  Masaaki Saitow         : Open-shell DLPNO-CCSD energy and density      
  Barbara Sandhoefer     : DKH picture change effects                    
  Yorick L. A. Schmerwitz: GMF and freeze-and-release deltaSCF, NEB S-IDPP initial path                    
  Kantharuban Sivalingam : CASSCF convergence/infrastructure, NEVPT2, NEVPT3, NEVPT4(SD), FIC-MRCI and CEPA variants
  Bernardo de Souza      : ESD, SOC TD-DFT                               
  Georgi L. Stoychev     : AutoAux, RI-MP2 NMR, DLPNO-MP2 response, X2C  
  Van Anh Tran           : RI-MP2 g-tensors                              
  Willem Van den Heuvel  : Paramagnetic NMR                              
  Zikuan Wang            : NOTCH, Electric field optimization            
  Frank Wennmohs         : Technical directorship and infrastructure     
  Hang Xu                : AUTO-CI-Response properties                   
                                                                         
[FACCTs GmbH]                                                            
  Markus Bursch, Nicolas Foglia, Miquel Garcia-Rates, Ingolf Harden, Hagen Neugebauer, Anastasios Papadopoulos, 
  Christoph Riplinger, Bernardo de Souza, Georgi L. Stoychev                                                    
                                                                 
  APM, various basis sets, CI-OPT, improved COSX, DLPNO-Multilevel,           
  DOCKER, DRACO, updates on ESD, Fragmentator, GOAT, IRC, LR-CPCM, L-BFGS, MBIS, meta-GGA TD-DFT gradient, ML-optimized integration grids, 
  MM, NACMEs, nearIR, NEB, NEB-TS, NL-DFT gradient (VV10), 2- and 3-layer-ONIOM, interface openCOSMO-RS, QMMM,   
  Crystal-QMMM, RESP, rigid body optimization, SF, symmetry and pop. for TD-DFT, various functionals, SOLVATOR                                   
                                                                         
[Other institutions]                                                     
  V. Asgeirsson          : NEB                                           
  Christoph Bannwarth    : sTDA-DFT, sTD-DFT, PBEh-3c, B97-3c, D3        
  Giovanni Bistoni       : ETS/NOCV, ADLD/ADEX, COVALED                  
  Martin Brehm           : Molecular dynamics                            
  Ronald Cardenas        : ETS/NOCV                                      
  Martina Colucci        : COVALED                                       
  Sebastian Ehlert       : rSCAN, r2SCAN, r2SCAN-3c, D4, dhf basis sets  
  Marvin Friede          : D4 for Fr, Ra, Ac-Lr                          
  Lars Goerigk           : TD-DFT with DH, B97 family of functionals     
  Stefan Grimme          : VdW corrections, initial TS optimization, DFT functionals, gCP, sTDA/sTD-DF 
  Waldemar Hujo          : DFT-NL                                        
  H. Jonsson             : NEB                                           
  Holger Kruse           : gCP                                           
  Marcel Mueller         : wB97X-3c, vDZP basis set                      
  Hagen Neugebauer       : wr2SCAN, Native XTB                           
  Gianluca Regni         : ADLD/ADEX                                     
  Tobias Risthaus        : pre 6.0 range-separated hybrid DFT and stability analysis
  Lukas Wittmann         : regularized MP2, r2SCAN double-hybrids, wr2SCAN        
                                                                         
We gratefully acknowledge several colleagues who have allowed us to      
interface, adapt or use parts of their codes:                            
  Ed Valeev, F. Pavosevic, A. Kumar             : LibInt (2-el integral package), F12 methods 
  Garnet Chan, S. Sharma, J. Yang, R. Olivares  : DMRG                   
  Ulf Ekstrom                                   : XCFun DFT Library      
  Mihaly Kallay                                 : mrcc  (arbitrary order and MRCC methods)
  Frank Weinhold                                : gennbo (NPA and NBO analysis)           
  Simon Mueller                                 : openCOSMO-RS                            
  Christopher J. Cramer and Donald G. Truhlar   : smd solvation model                     
  S Lehtola, MJT Oliveira, MAL Marques          : LibXC Library                           
  Liviu Ungur et al                             : ANISO software                          


 Your calculation uses the libint2 library for the computation of 2-el integrals
 For citations please refer to: http://libint.valeyev.net

 Your ORCA version has been built with support for libXC version: 7.0.0
 For citations please refer to: https://libxc.gitlab.io

 This ORCA versions uses:
   CBLAS   interface :  Fast vector & matrix operations
   LAPACKE interface :  Fast linear algebra routines
   SCALAPACK package :  Parallel linear algebra routines
   Shared memory     :  Shared parallel matrices
   BLAS/LAPACK       :  OpenBLAS 0.3.29  USE64BITINT DYNAMIC_ARCH NO_AFFINITY Cooperlake SINGLE_THREADED
        Core in use  :  Cooperlake
   Copyright (c) 2011-2014, The OpenBLAS Project


  ***********************************
  * Starting time: Sat Feb 28 09:25:56 2026
  * Host name:     c04b01n02
  * Process ID:    2979809
  * Working dir.:  /lustre1/jiangy/jiangy_liuxy/NMR/B9D7C2-RSSS
  ***********************************

NOTE: MaxCore=6000 MB was set to SCF,MP2,MDCI,CIPSI,MRCI,RASCI and CIS
      => If you want to overwrite this, your respective input block should be placed after the MaxCore statement


***************************************
The coordinates will be read from file: conf-12.xyz
***************************************


Your calculation utilizes the atom-pairwise dispersion correction
based on EEQ partial charges (D4)


Warning: RI is on but no J-basis has been assigned. Assigning Def2/J (nothing to worry about!)
================================================================================

----- Orbital basis set information -----
Your calculation utilizes the basis: def2-TZVP
   F. Weigend and R. Ahlrichs, Phys. Chem. Chem. Phys. 7, 3297 (2005).

----- AuxJ basis set information -----
Your calculation utilizes the auxiliary basis: def2/J
   H-Rn: F. Weigend, Phys. Chem. Chem. Phys. 8, 1057 (2006).
   Fr-Lr: K. Eichkorn, F. Weigend, O. Treutler, R. Ahlrichs; Theor. Chem. Acc. 97, 119 (1997).

================================================================================
                                        WARNINGS
                       Please study these warnings very carefully!
================================================================================


WARNING: Geometry Optimization
  ===> : Switching off AutoStart
         For restart on a previous wavefunction, please use MOREAD

================================================================================
                                       INPUT FILE
================================================================================
NAME = opt-conf-12.inp
|  1> ! B3LYP OPT FREQ DEF2-TZVP D4 CPCM(Methanol) 
|  2> ! TightOpt
|  3> %pal nprocs 64 end
|  4> %maxcore 6000
|  5> 
|  6> %cpcm
|  7> end
|  8> 
|  9> %freq
| 10>    Temp 298.15
| 11> end
| 12> 
| 13> * xyzfile 0 1 conf-12.xyz
| 14> 
| 15> 
| 16>                          ****END OF INPUT****
================================================================================

                       *****************************
                       * Geometry Optimization Run *
                       *****************************

Geometry optimization settings:
Update method            Update   .... BFGS
Choice of coordinates    CoordSys .... (2022) Redundant Internals
Initial Hessian          InHess   .... Almloef's Model
Max. no of cycles        MaxIter  .... 246

Convergence Tolerances:
Energy Change            TolE     ....  1.0000e-06 Eh
Max. Gradient            TolMAXG  ....  1.0000e-04 Eh/bohr
RMS Gradient             TolRMSG  ....  3.0000e-05 Eh/bohr
Max. Displacement        TolMAXD  ....  1.0000e-03 bohr
RMS Displacement         TolRMSD  ....  6.0000e-04 bohr
Strict Convergence                .... False

------------------------------------------------------------------------------
                        ORCA OPTIMIZATION COORDINATE SETUP
------------------------------------------------------------------------------

The optimization will be done in redundant internal coordinates (2022)
Making redundant internal coordinates   ...  (2022 redundants) done
Evaluating the initial hessian          ...  (Almloef) done
Evaluating the coordinates              ...  done
Calculating the B-matrix                .... done
Calculating the G-matrix                .... done
The number of degrees of freedom        ....  405

    -----------------------------------------------------------------
                    Redundant Internal Coordinates


    -----------------------------------------------------------------
         Definition                    Initial Value    Approx d2E/dq
    -----------------------------------------------------------------
      1. B(C   1,C   0)                  1.4015         0.598926   
      2. B(C   2,C   1)                  1.4004         0.601311   
      3. B(C   3,C   2)                  1.3895         0.625843   
      4. B(C   4,C   3)                  1.3849         0.636548   
      5. B(C   5,C   4)                  1.3870         0.631656   
      6. B(C   5,C   0)                  1.3860         0.634093   
      7. B(C   6,C   4)                  1.5024         0.413394   
      8. B(C   7,C   6)                  1.5362         0.365128   
      9. B(C   8,C   7)                  1.5376         0.363234   
     10. B(C   9,C   8)                  1.5362         0.365189   
     11. B(C  10,C   9)                  1.5027         0.412941   
     12. B(C  11,C  10)                  1.3933         0.617194   
     13. B(C  12,C  11)                  1.3817         0.644048   
     14. B(C  13,C  12)                  1.4051         0.591043   
     15. B(C  14,C  13)                  1.3823         0.642630   
     16. B(C  15,C  10)                  1.3858         0.634555   
     17. B(C  15,C  14)                  1.3859         0.634182   
     18. B(C  16,C   7)                  1.5362         0.365127   
     19. B(C  17,C   8)                  1.5345         0.367424   
     20. B(O  18,C   2)                  1.3660         0.611279   
     21. B(O  19,C   0)                  1.3660         0.611232   
     22. B(O  20,C   1)                  1.3762         0.588683   
     23. B(O  21,C  13)                  1.3620         0.620137   
     24. B(O  22,C  12)                  1.3791         0.582428   
     25. B(C  23,O  20)                  1.4216         0.498229   
     26. B(C  24,C  23)                  1.5498         0.347419   
     27. B(C  25,C  24)                  1.5154         0.394091   
     28. B(C  26,C  23)                  1.5483         0.349308   
     29. B(O  27,C  26)                  1.3996         0.540184   
     30. B(C  28,C  25)                  1.3902         0.624416   
     31. B(C  29,C  28)                  1.3819         0.643684   
     32. B(C  30,C  29)                  1.4011         0.599883   
     33. B(C  31,C  30)                  1.3827         0.641835   
     34. B(C  32,C  31)                  1.3841         0.638400   
     35. B(C  32,C  25)                  1.3863         0.633261   
     36. B(C  33,O  19)                  1.4073         0.525198   
     37. B(C  34,O  18)                  1.4070         0.525766   
     38. B(C  35,O  22)                  1.4072         0.525338   
     39. B(O  36,C  24)                  1.4097         0.520484   
     40. B(O  37,C  16)                  1.4047         0.530116   
     41. B(O  38,C  17)                  1.4087         0.522463   
     42. B(O  39,C  29)                  1.3743         0.592768   
     43. B(O  40,C  30)                  1.3694         0.603487   
     44. B(C  41,O  39)                  1.4092         0.521426   
     45. B(H  42,C   3)                  1.0779         0.376443   
     46. B(H  43,C   5)                  1.0776         0.376845   
     47. B(H  44,C   6)                  1.0904         0.359565   
     48. B(H  45,C   6)                  1.0906         0.359362   
     49. B(H  46,C   7)                  1.0965         0.351618   
     50. B(H  47,C   8)                  1.0969         0.351087   
     51. B(H  48,C   9)                  1.0916         0.358045   
     52. B(H  49,C   9)                  1.0939         0.355039   
     53. B(H  50,C  11)                  1.0774         0.377215   
     54. B(H  51,C  14)                  1.0784         0.375739   
     55. B(H  52,C  15)                  1.0803         0.373184   
     56. B(H  53,C  16)                  1.0984         0.349181   
     57. B(H  54,C  16)                  1.0934         0.355614   
     58. B(H  55,C  17)                  1.0919         0.357601   
     59. B(H  56,C  17)                  1.0985         0.348966   
     60. B(H  57,O  21)                  0.9671         0.506615   
     61. B(H  57,O  22)                  2.1110         0.010000   
     62. B(H  58,C  23)                  1.0918         0.357720   
     63. B(H  59,C  24)                  1.0975         0.350305   
     64. B(H  60,C  26)                  1.0982         0.349388   
     65. B(H  61,C  26)                  1.0911         0.358599   
     66. B(H  62,O  36)                  2.2620         0.010000   
     67. B(H  62,O  27)                  0.9669         0.506855   
     68. B(H  63,C  28)                  1.0776         0.376823   
     69. B(H  64,C  31)                  1.0782         0.376120   
     70. B(H  65,C  32)                  1.0786         0.375538   
     71. B(H  66,C  33)                  1.0944         0.354364   
     72. B(H  67,C  33)                  1.0947         0.353943   
     73. B(H  68,C  33)                  1.0895         0.360716   
     74. B(H  69,H  64)                  4.3281         0.010000   
     75. B(H  69,C  34)                  1.0949         0.353694   
     76. B(H  70,C  34)                  1.0942         0.354640   
     77. B(H  71,C  34)                  1.0890         0.361491   
     78. B(H  72,C  35)                  1.0941         0.354674   
     79. B(H  73,C  35)                  1.0941         0.354674   
     80. B(H  74,C  35)                  1.0888         0.361682   
     81. B(H  75,O  20)                  2.3383         0.010000   
     82. B(H  75,O  36)                  0.9701         0.500956   
     83. B(H  76,O  40)                  1.9403         0.014187   
     84. B(H  76,O  37)                  0.9706         0.500146   
     85. B(H  77,O  38)                  0.9640         0.512331   
     86. B(H  78,O  39)                  2.1058         0.010000   
     87. B(H  78,O  40)                  0.9690         0.503069   
     88. B(H  79,H  67)                  2.4546         0.010000   
     89. B(H  79,C  41)                  1.0932         0.355956   
     90. B(H  80,O  21)                  2.3546         0.010000   
     91. B(H  80,C  41)                  1.0886         0.361960   
     92. B(H  81,C  41)                  1.0940         0.354890   
     93. A(C   1,C   0,O  19)          115.4579         0.427466   
     94. A(C   5,C   0,O  19)          124.5741         0.431865   
     95. A(C   1,C   0,C   5)          119.9674         0.433122   
     96. A(C   0,C   1,O  20)          117.6742         0.424598   
     97. A(C   0,C   1,C   2)          119.5432         0.429012   
     98. A(C   2,C   1,O  20)          122.6279         0.424900   
     99. A(C   3,C   2,O  18)          124.1741         0.430856   
    100. A(C   1,C   2,C   3)          119.5095         0.432412   
    101. A(C   1,C   2,O  18)          116.3163         0.427776   
    102. A(C   4,C   3,H  42)          118.8308         0.357168   
    103. A(C   2,C   3,H  42)          120.3531         0.356140   
    104. A(C   2,C   3,C   4)          120.8103         0.436867   
    105. A(C   5,C   4,C   6)          119.2190         0.405149   
    106. A(C   3,C   4,C   6)          121.0396         0.405701   
    107. A(C   3,C   4,C   5)          119.7250         0.437596   
    108. A(C   4,C   5,H  43)          118.7606         0.356764   
    109. A(C   0,C   5,H  43)          120.7953         0.356998   
    110. A(C   0,C   5,C   4)          120.4424         0.437291   
    111. A(C   4,C   6,H  44)          110.2818         0.329695   
    112. A(C   7,C   6,H  45)          108.9121         0.322995   
    113. A(C   4,C   6,C   7)          110.6182         0.368264   
    114. A(H  44,C   6,H  45)          108.3050         0.290678   
    115. A(C   4,C   6,H  45)          108.8812         0.329664   
    116. A(C   7,C   6,H  44)          109.7913         0.323025   
    117. A(C   6,C   7,C  16)          110.7654         0.360526   
    118. A(C   8,C   7,C  16)          110.3360         0.360206   
    119. A(C  16,C   7,H  46)          106.7013         0.321844   
    120. A(C   8,C   7,H  46)          106.8323         0.321570   
    121. A(C   6,C   7,H  46)          107.8020         0.321844   
    122. A(C   6,C   7,C   8)          114.0306         0.360206   
    123. A(C   7,C   8,C  17)          113.6264         0.360592   
    124. A(C  17,C   8,H  47)          107.1093         0.322095   
    125. A(C   7,C   8,C   9)          111.9350         0.360217   
    126. A(C   9,C   8,H  47)          108.5295         0.321773   
    127. A(C   7,C   8,H  47)          105.9389         0.321491   
    128. A(C   9,C   8,C  17)          109.4184         0.360922   
    129. A(H  48,C   9,H  49)          107.1781         0.289933   
    130. A(C  10,C   9,H  48)          109.2062         0.329404   
    131. A(C  10,C   9,H  49)          109.3542         0.328946   
    132. A(C   8,C   9,C  10)          113.8635         0.368205   
    133. A(C   8,C   9,H  48)          109.2746         0.322810   
    134. A(C   8,C   9,H  49)          107.7472         0.322364   
    135. A(C   9,C  10,C  11)          120.3501         0.403418   
    136. A(C  11,C  10,C  15)          118.7022         0.435527   
    137. A(C   9,C  10,C  15)          120.9416         0.405398   
    138. A(C  10,C  11,C  12)          120.7615         0.436694   
    139. A(C  10,C  11,H  50)          119.2523         0.355423   
    140. A(C  12,C  11,H  50)          119.9860         0.358004   
    141. A(C  11,C  12,C  13)          119.9513         0.433303   
    142. A(C  13,C  12,O  22)          114.5546         0.422785   
    143. A(C  11,C  12,O  22)          125.4939         0.429337   
    144. A(C  12,C  13,O  21)          120.1475         0.427559   
    145. A(C  12,C  13,C  14)          119.2845         0.433132   
    146. A(C  14,C  13,O  21)          120.5679         0.434032   
    147. A(C  13,C  14,H  51)          118.6682         0.357631   
    148. A(C  13,C  14,C  15)          120.1381         0.438663   
    149. A(C  15,C  14,H  51)          121.1906         0.356828   
    150. A(C  14,C  15,H  52)          119.1299         0.356415   
    151. A(C  10,C  15,H  52)          119.7396         0.356450   
    152. A(C  10,C  15,C  14)          121.1156         0.437663   
    153. A(O  37,C  16,H  54)          105.8366         0.340905   
    154. A(C   7,C  16,H  54)          110.7108         0.322440   
    155. A(O  37,C  16,H  53)          110.7907         0.339867   
    156. A(C   7,C  16,H  53)          108.7488         0.321478   
    157. A(C   7,C  16,O  37)          112.3583         0.382003   
    158. A(H  53,C  16,H  54)          108.3097         0.288870   
    159. A(O  38,C  17,H  56)          110.0514         0.339008   
    160. A(C   8,C  17,O  38)          112.2031         0.381455   
    161. A(H  55,C  17,H  56)          108.4513         0.289094   
    162. A(C   8,C  17,H  56)          110.0192         0.321776   
    163. A(O  38,C  17,H  55)          105.1194         0.340395   
    164. A(C   8,C  17,H  55)          110.8388         0.323067   
    165. A(C   2,O  18,C  34)          118.5825         0.414932   
    166. A(C   0,O  19,C  33)          117.7598         0.414847   
    167. A(C   1,O  20,C  23)          117.8147         0.408254   
    168. A(C  13,O  21,H  57)          107.5214         0.368481   
    169. A(C  12,O  22,C  35)          117.9972         0.411326   
    170. A(C  26,C  23,H  58)          110.5727         0.320421   
    171. A(C  24,C  23,H  58)          109.8658         0.320137   
    172. A(O  20,C  23,H  58)          111.1501         0.337725   
    173. A(C  24,C  23,C  26)          110.8700         0.354809   
    174. A(O  20,C  23,C  26)          104.9006         0.375036   
    175. A(O  20,C  23,C  24)          109.3901         0.374685   
    176. A(C  23,C  24,O  36)          108.4279         0.377525   
    177. A(O  36,C  24,H  59)          106.6305         0.339010   
    178. A(C  25,C  24,H  59)          108.8407         0.325702   
    179. A(C  23,C  24,H  59)          108.3497         0.319044   
    180. A(C  25,C  24,O  36)          112.4816         0.385875   
    181. A(C  23,C  24,C  25)          111.9001         0.362167   
    182. A(C  28,C  25,C  32)          119.2916         0.436280   
    183. A(C  24,C  25,C  32)          121.5994         0.401925   
    184. A(C  24,C  25,C  28)          119.1039         0.400930   
    185. A(O  27,C  26,H  61)          106.4989         0.342460   
    186. A(H  60,C  26,H  61)          108.3493         0.289275   
    187. A(C  23,C  26,H  61)          109.3878         0.320550   
    188. A(O  27,C  26,H  60)          111.0697         0.340971   
    189. A(C  23,C  26,H  60)          106.9376         0.319190   
    190. A(C  23,C  26,O  27)          114.4678         0.380319   
    191. A(C  26,O  27,H  62)          107.6099         0.359914   
    192. A(C  29,C  28,H  63)          120.6689         0.357906   
    193. A(C  25,C  28,H  63)          118.6597         0.356063   
    194. A(C  25,C  28,C  29)          120.6703         0.437566   
    195. A(C  30,C  29,O  39)          114.9119         0.425245   
    196. A(C  28,C  29,O  39)          125.5108         0.430652   
    197. A(C  28,C  29,C  30)          119.5770         0.434418   
    198. A(C  31,C  30,O  40)          120.5193         0.431817   
    199. A(C  29,C  30,O  40)          119.7903         0.426612   
    200. A(C  29,C  30,C  31)          119.6794         0.434193   
    201. A(C  32,C  31,H  64)          120.7721         0.357292   
    202. A(C  30,C  31,H  64)          118.9764         0.357618   
    203. A(C  30,C  31,C  32)          120.2450         0.439090   
    204. A(C  31,C  32,H  65)          119.1667         0.357198   
    205. A(C  25,C  32,H  65)          120.4080         0.356708   
    206. A(C  25,C  32,C  31)          120.4251         0.438026   
    207. A(H  67,C  33,H  68)          109.7132         0.290131   
    208. A(H  66,C  33,H  68)          109.0695         0.290185   
    209. A(O  19,C  33,H  68)          105.7354         0.341186   
    210. A(H  66,C  33,H  67)          109.1743         0.289324   
    211. A(O  19,C  33,H  67)          111.6945         0.340107   
    212. A(O  19,C  33,H  66)          111.3741         0.340175   
    213. A(H  69,C  34,H  71)          109.3145         0.290197   
    214. A(O  18,C  34,H  71)          105.4888         0.341371   
    215. A(H  69,C  34,H  70)          109.5032         0.289327   
    216. A(O  18,C  34,H  70)          111.5514         0.340280   
    217. A(O  18,C  34,H  69)          111.5962         0.340128   
    218. A(H  70,C  34,H  71)          109.2807         0.290318   
    219. A(H  73,C  35,H  74)          109.4916         0.290347   
    220. A(H  72,C  35,H  74)          109.2645         0.290347   
    221. A(O  22,C  35,H  74)          105.6360         0.341355   
    222. A(H  72,C  35,H  73)          109.6709         0.289457   
    223. A(O  22,C  35,H  73)          111.3357         0.340239   
    224. A(O  22,C  35,H  72)          111.3434         0.340239   
    225. A(C  24,O  36,H  75)          105.6671         0.356934   
    226. A(C  16,O  37,H  76)          107.8362         0.357950   
    227. A(C  17,O  38,H  77)          108.3889         0.358531   
    228. A(C  29,O  39,C  41)          118.1256         0.412065   
    229. A(C  30,O  40,H  78)          107.3926         0.366324   
    230. A(H  80,C  41,H  81)          110.0288         0.290409   
    231. A(H  79,C  41,H  81)          109.3681         0.289648   
    232. A(O  39,C  41,H  81)          111.0656         0.339849   
    233. A(H  79,C  41,H  80)          109.3891         0.290546   
    234. A(O  39,C  41,H  80)          105.2926         0.340972   
    235. A(O  39,C  41,H  79)          111.6213         0.340020   
    236. D(O  20,C   1,C   0,O  19)     -4.2368         0.024724   
    237. D(C   2,C   1,C   0,O  19)   -179.8359         0.024724   
    238. D(C   2,C   1,C   0,C   5)      0.4253         0.024724   
    239. D(O  20,C   1,C   0,C   5)    176.0244         0.024724   
    240. D(O  18,C   2,C   1,C   0)    179.5409         0.024932   
    241. D(C   3,C   2,C   1,C   0)     -0.5642         0.024932   
    242. D(C   3,C   2,C   1,O  20)   -175.9360         0.024932   
    243. D(O  18,C   2,C   1,O  20)      4.1691         0.024932   
    244. D(C   4,C   3,C   2,C   1)      0.4417         0.027134   
    245. D(H  42,C   3,C   2,O  18)     -0.5601         0.027134   
    246. D(C   4,C   3,C   2,O  18)   -179.6722         0.027134   
    247. D(H  42,C   3,C   2,C   1)    179.5537         0.027134   
    248. D(C   6,C   4,C   3,H  42)      2.1884         0.028132   
    249. D(C   5,C   4,C   3,H  42)   -179.2977         0.028132   
    250. D(C   5,C   4,C   3,C   2)     -0.1724         0.028132   
    251. D(C   6,C   4,C   3,C   2)   -178.6863         0.028132   
    252. D(H  43,C   5,C   4,C   6)     -0.9731         0.027673   
    253. D(H  43,C   5,C   4,C   3)   -179.5141         0.027673   
    254. D(C   0,C   5,C   4,C   3)      0.0281         0.027673   
    255. D(C   4,C   5,C   0,O  19)   -179.8706         0.027901   
    256. D(H  43,C   5,C   0,C   1)    179.3758         0.027901   
    257. D(H  43,C   5,C   0,O  19)     -0.3378         0.027901   
    258. D(C   0,C   5,C   4,C   6)    178.5692         0.027673   
    259. D(C   4,C   5,C   0,C   1)     -0.1571         0.027901   
    260. D(H  45,C   6,C   4,C   3)   -137.7849         0.012650   
    261. D(H  44,C   6,C   4,C   5)    162.3966         0.012650   
    262. D(H  44,C   6,C   4,C   3)    -19.0821         0.012650   
    263. D(C   7,C   6,C   4,C   5)    -75.9542         0.012650   
    264. D(C   7,C   6,C   4,C   3)    102.5671         0.012650   
    265. D(C   8,C   7,C   6,H  44)    -77.5791         0.010675   
    266. D(C   8,C   7,C   6,C   4)    160.4830         0.010675   
    267. D(C  16,C   7,C   6,H  45)    166.0234         0.010675   
    268. D(C  16,C   7,C   6,H  44)     47.5906         0.010675   
    269. D(C   8,C   7,C   6,H  45)     40.8537         0.010675   
    270. D(C  16,C   7,C   6,C   4)    -74.3473         0.010675   
    271. D(C  17,C   8,C   7,H  46)    165.0449         0.010572   
    272. D(C  17,C   8,C   7,C  16)    -79.3395         0.010572   
    273. D(C  17,C   8,C   7,C   6)     46.0577         0.010572   
    274. D(C   9,C   8,C   7,C  16)    156.0941         0.010572   
    275. D(C   9,C   8,C   7,H  46)     40.4785         0.010572   
    276. D(C   9,C   8,C   7,C   6)    -78.5087         0.010572   
    277. D(H  48,C   9,C   8,C  17)    -61.8864         0.010679   
    278. D(H  48,C   9,C   8,C   7)     64.9884         0.010679   
    279. D(C  10,C   9,C   8,H  47)     59.1561         0.010679   
    280. D(C  10,C   9,C   8,C  17)    175.7169         0.010679   
    281. D(H  48,C   9,C   8,H  47)   -178.4471         0.010679   
    282. D(C  10,C   9,C   8,C   7)    -57.4083         0.010679   
    283. D(C  15,C  10,C   9,H  48)      4.0452         0.012623   
    284. D(C  15,C  10,C   9,C   8)    126.4796         0.012623   
    285. D(C  11,C  10,C   9,H  49)     66.1433         0.012623   
    286. D(C  11,C  10,C   9,H  48)   -176.8660         0.012623   
    287. D(C  11,C  10,C   9,C   8)    -54.4317         0.012623   
    288. D(H  50,C  11,C  10,C  15)   -179.8994         0.026345   
    289. D(H  50,C  11,C  10,C   9)      0.9917         0.026345   
    290. D(C  12,C  11,C  10,C  15)      0.2627         0.026345   
    291. D(C  12,C  11,C  10,C   9)   -178.8463         0.026345   
    292. D(O  22,C  12,C  11,H  50)      1.6451         0.028844   
    293. D(C  13,C  12,C  11,H  50)   -178.1624         0.028844   
    294. D(O  22,C  12,C  11,C  10)   -178.5182         0.028844   
    295. D(C  13,C  12,C  11,C  10)      1.6744         0.028844   
    296. D(O  21,C  13,C  12,C  11)    177.5798         0.024044   
    297. D(C  14,C  13,C  12,O  22)    177.8574         0.024044   
    298. D(C  14,C  13,C  12,C  11)     -2.3150         0.024044   
    299. D(O  21,C  13,C  12,O  22)     -2.2479         0.024044   
    300. D(H  51,C  14,C  13,O  21)      0.5045         0.028709   
    301. D(H  51,C  14,C  13,C  12)   -179.6012         0.028709   
    302. D(C  15,C  14,C  13,O  21)   -178.8673         0.028709   
    303. D(C  15,C  14,C  13,C  12)      1.0270         0.028709   
    304. D(H  52,C  15,C  14,H  51)      0.1635         0.027910   
    305. D(H  52,C  15,C  14,C  13)    179.5192         0.027910   
    306. D(C  10,C  15,C  14,H  51)   -178.4272         0.027910   
    307. D(C  10,C  15,C  14,C  13)      0.9285         0.027910   
    308. D(H  52,C  15,C  10,C  11)    179.8410         0.027945   
    309. D(H  52,C  15,C  10,C   9)     -1.0555         0.027945   
    310. D(C  14,C  15,C  10,C  11)     -1.5768         0.027945   
    311. D(C  14,C  15,C  10,C   9)    177.5267         0.027945   
    312. D(H  53,C  16,C   7,H  46)    -68.1690         0.010675   
    313. D(H  53,C  16,C   7,C   8)    176.1332         0.010675   
    314. D(H  53,C  16,C   7,C   6)     48.9046         0.010675   
    315. D(O  37,C  16,C   7,H  46)     54.8509         0.010675   
    316. D(O  37,C  16,C   7,C   8)    -60.8469         0.010675   
    317. D(O  37,C  16,C   7,C   6)    171.9245         0.010675   
    318. D(H  55,C  17,C   8,H  47)    169.1068         0.010801   
    319. D(H  55,C  17,C   8,C   9)     51.6503         0.010801   
    320. D(H  55,C  17,C   8,C   7)    -74.2607         0.010801   
    321. D(O  38,C  17,C   8,H  47)     51.9260         0.010801   
    322. D(O  38,C  17,C   8,C   9)    -65.5305         0.010801   
    323. D(O  38,C  17,C   8,C   7)    168.5585         0.010801   
    324. D(C  34,O  18,C   2,C   3)      1.8535         0.027360   
    325. D(C  34,O  18,C   2,C   1)   -178.2571         0.027360   
    326. D(C  33,O  19,C   0,C   5)     -5.1328         0.027355   
    327. D(C  33,O  19,C   0,C   1)    175.1420         0.027355   
    328. D(C  23,O  20,C   1,C   2)    -62.8622         0.027850   
    329. D(C  23,O  20,C   1,C   0)    121.6843         0.027850   
    330. D(H  57,O  21,C  13,C  14)    179.4256         0.031142   
    331. D(H  57,O  21,C  13,C  12)     -0.4678         0.031142   
    332. D(C  35,O  22,C  12,C  13)   -176.8328         0.027223   
    333. D(C  35,O  22,C  12,C  11)      3.3506         0.027223   
    334. D(H  58,C  23,O  20,C   1)     39.9034         0.021284   
    335. D(C  26,C  23,O  20,C   1)    159.4302         0.021284   
    336. D(C  24,C  23,O  20,C   1)    -81.5923         0.021284   
    337. D(O  36,C  24,C  23,H  58)    177.1529         0.010000   
    338. D(O  36,C  24,C  23,C  26)     54.6310         0.010000   
    339. D(O  36,C  24,C  23,O  20)    -60.5790         0.010000   
    340. D(C  25,C  24,C  23,H  58)    -58.2120         0.010000   
    341. D(C  25,C  24,C  23,C  26)    179.2661         0.010000   
    342. D(C  25,C  24,C  23,O  20)     64.0561         0.010000   
    343. D(C  32,C  25,C  24,O  36)    174.0571         0.011542   
    344. D(C  32,C  25,C  24,C  23)     51.7077         0.011542   
    345. D(C  28,C  25,C  24,H  59)    111.1661         0.011542   
    346. D(C  28,C  25,C  24,O  36)     -6.7699         0.011542   
    347. D(C  28,C  25,C  24,C  23)   -129.1193         0.011542   
    348. D(H  60,C  26,C  23,H  58)    144.6213         0.010000   
    349. D(H  60,C  26,C  23,C  24)    -93.2684         0.010000   
    350. D(H  60,C  26,C  23,O  20)     24.7091         0.010000   
    351. D(O  27,C  26,C  23,H  58)    -91.9112         0.010000   
    352. D(O  27,C  26,C  23,C  24)     30.1991         0.010000   
    353. D(O  27,C  26,C  23,O  20)    148.1766         0.010000   
    354. D(H  62,O  27,C  26,H  61)    173.5633         0.023214   
    355. D(H  62,O  27,C  26,H  60)     55.7908         0.023214   
    356. D(H  62,O  27,C  26,C  23)    -65.4287         0.023214   
    357. D(H  63,C  28,C  25,C  32)    176.6877         0.027003   
    358. D(H  63,C  28,C  25,C  24)     -2.5046         0.027003   
    359. D(C  29,C  28,C  25,C  32)     -2.9316         0.027003   
    360. D(C  29,C  28,C  25,C  24)    177.8761         0.027003   
    361. D(C  30,C  29,C  28,H  63)   -179.4438         0.028809   
    362. D(C  30,C  29,C  28,C  25)      0.1678         0.028809   
    363. D(O  39,C  29,C  28,H  63)      0.3377         0.028809   
    364. D(O  39,C  29,C  28,C  25)    179.9493         0.028809   
    365. D(O  40,C  30,C  29,O  39)      1.4238         0.024807   
    366. D(O  40,C  30,C  29,C  28)   -178.7724         0.024807   
    367. D(C  31,C  30,C  29,O  39)   -177.3728         0.024807   
    368. D(C  31,C  30,C  29,C  28)      2.4311         0.024807   
    369. D(H  64,C  31,C  30,O  40)     -1.9624         0.028633   
    370. D(H  64,C  31,C  30,C  29)    176.8253         0.028633   
    371. D(C  32,C  31,C  30,O  40)    178.9614         0.028633   
    372. D(C  32,C  31,C  30,C  29)     -2.2510         0.028633   
    373. D(H  65,C  32,C  31,H  64)      0.2223         0.028307   
    374. D(H  65,C  32,C  31,C  30)    179.2817         0.028307   
    375. D(C  25,C  32,C  31,H  64)   -179.5985         0.028307   
    376. D(C  25,C  32,C  31,C  30)     -0.5390         0.028307   
    377. D(H  65,C  32,C  25,C  28)   -176.6965         0.027823   
    378. D(H  65,C  32,C  25,C  24)      2.4750         0.027823   
    379. D(C  31,C  32,C  25,C  28)      3.1220         0.027823   
    380. D(C  31,C  32,C  25,C  24)   -177.7065         0.027823   
    381. D(H  68,C  33,O  19,C   0)   -178.4494         0.021887   
    382. D(H  67,C  33,O  19,C   0)     62.2592         0.021887   
    383. D(H  66,C  33,O  19,C   0)    -60.1045         0.021887   
    384. D(H  71,C  34,O  18,C   2)    178.9673         0.021936   
    385. D(H  70,C  34,O  18,C   2)     60.4229         0.021936   
    386. D(H  69,C  34,O  18,C   2)    -62.4239         0.021936   
    387. D(H  74,C  35,O  22,C  12)    176.9794         0.023773   
    388. D(H  73,C  35,O  22,C  12)     58.2085         0.023773   
    389. D(H  72,C  35,O  22,C  12)    -64.5177         0.023773   
    390. D(H  75,O  36,C  24,H  59)    169.5041         0.023314   
    391. D(H  75,O  36,C  24,C  25)    -71.2626         0.023314   
    392. D(H  75,O  36,C  24,C  23)     53.0269         0.023314   
    393. D(H  76,O  37,C  16,H  54)    176.6315         0.022317   
    394. D(H  76,O  37,C  16,H  53)     59.4382         0.022317   
    395. D(H  76,O  37,C  16,C   7)    -62.4270         0.022317   
    396. D(H  77,O  38,C  17,H  56)     62.9522         0.021650   
    397. D(H  77,O  38,C  17,H  55)    179.5430         0.021650   
    398. D(H  77,O  38,C  17,C   8)    -59.9073         0.021650   
    399. D(C  41,O  39,C  29,C  30)    169.4752         0.028265   
    400. D(C  41,O  39,C  29,C  28)    -10.3152         0.028265   
    401. D(H  78,O  40,C  30,C  31)    177.5417         0.029371   
    402. D(H  78,O  40,C  30,C  29)     -1.2446         0.029371   
    403. D(H  81,C  41,O  39,C  29)    -58.2520         0.023403   
    404. D(H  80,C  41,O  39,C  29)   -177.3178         0.023403   
    405. D(H  79,C  41,O  39,C  29)     64.0886         0.023403   
    -----------------------------------------------------------------

Number of atoms                         .... 82
Number of degrees of freedom            .... 405


         *************************************************************
         *                GEOMETRY OPTIMIZATION CYCLE   1            *
         *************************************************************
---------------------------------
CARTESIAN COORDINATES (ANGSTROEM)
---------------------------------
  C     11.761328  -12.182879   -1.965710
  C     12.190336  -13.453216   -1.557753
  C     11.256383  -14.488547   -1.427274
  C      9.915604  -14.238335   -1.692868
  C      9.494354  -12.981247   -2.093248
  C     10.419383  -11.956576   -2.228216
  C      8.042140  -12.697300   -2.353523
  C      7.422112  -11.927835   -1.177309
  C      6.119429  -11.190330   -1.528653
  C      6.387937   -9.877321   -2.279494
  C      7.271223   -8.918938   -1.531497
  C      6.944848   -8.525984   -0.235179
  C      7.738143   -7.627006    0.451643
  C      8.869246   -7.071791   -0.170207
  C      9.201315   -7.471694   -1.451093
  C      8.411711   -8.394591   -2.118640
  C      7.201602  -12.857253    0.025831
  C      5.127136  -12.042914   -2.330652
  O     11.747571  -15.701338   -1.035227
  O     12.741537  -11.237105   -2.068606
  O     13.542385  -13.648127   -1.390671
  O      9.626004   -6.148253    0.485187
  O      7.524029   -7.194303    1.743495
  C     13.998944  -14.068346   -0.111620
  C     14.112643  -12.838028    0.823871
  C     12.763984  -12.196019    1.079844
  C     15.391073  -14.694092   -0.371616
  O     16.300312  -14.543243    0.681684
  C     12.620538  -10.826165    0.891473
  C     11.394946  -10.214168    1.073163
  C     10.287669  -10.983280    1.454501
  C     10.443500  -12.336142    1.693823
  C     11.676404  -12.938684    1.512913
  C     12.382886   -9.973730   -2.574236
  C     10.856612  -16.784669   -0.924938
  C      6.449911   -7.755563    2.458660
  O     15.041099  -11.936911    0.264158
  O      6.806679  -12.156214    1.177288
  O      3.855793  -11.442084   -2.414925
  O     11.141377   -8.872660    0.915602
  O      9.065571  -10.385549    1.611269
  C     12.239016   -8.003332    0.756253
  H      9.186251  -15.027006   -1.603716
  H     10.073441  -10.982560   -2.533007
  H      7.497725  -13.628414   -2.513592
  H      7.957297  -12.091385   -3.256289
  H      8.142636  -11.165268   -0.858524
  H      5.640214  -10.952563   -0.571047
  H      6.840070  -10.101684   -3.247345
  H      5.422454   -9.402315   -2.476281
  H      6.061015   -8.929398    0.230443
  H     10.075142   -7.044017   -1.916417
  H      8.681960   -8.689727   -3.122072
  H      8.125975  -13.421057    0.210495
  H      6.398996  -13.571016   -0.178907
  H      5.458471  -12.154637   -3.365046
  H      5.042417  -13.042451   -1.882813
  H      9.222617   -6.003549    1.352121
  H     13.322530  -14.805535    0.325478
  H     14.534707  -13.169693    1.781150
  H     15.777720  -14.241974   -1.294753
  H     15.281044  -15.767348   -0.534692
  H     16.488479  -13.599165    0.772763
  H     13.485758  -10.250180    0.606955
  H      9.595530  -12.907006    2.036563
  H     11.781151  -13.992791    1.715906
  H     11.982058  -10.049662   -3.589725
  H     11.648022   -9.475345   -1.933968
  H     13.304119   -9.392469   -2.597704
  H     10.090272  -16.600422   -0.164971
  H     10.375687  -17.008566   -1.881895
  H     11.467373  -17.633825   -0.622087
  H      5.489723   -7.500415    2.000332
  H      6.545548   -8.843028    2.532144
  H      6.500065   -7.318328    3.454557
  H     14.742038  -11.784267   -0.646018
  H      7.525311  -11.549508    1.417058
  H      3.513747  -11.327433   -1.520947
  H      9.180861   -9.439841    1.434400
  H     12.789439   -8.214117   -0.164389
  H     11.808723   -7.004996    0.699534
  H     12.920332   -8.069748    1.609576

----------------------------
CARTESIAN COORDINATES (A.U.)
----------------------------
  NO LB      ZA    FRAG     MASS         X           Y           Z
   0 C     6.0000    0    12.011   22.225689  -23.022304   -3.714653
   1 C     6.0000    0    12.011   23.036396  -25.422894   -2.943726
   2 C     6.0000    0    12.011   21.271481  -27.379386   -2.697158
   3 C     6.0000    0    12.011   18.737777  -26.906553   -3.199057
   4 C     6.0000    0    12.011   17.941729  -24.531002   -3.955666
   5 C     6.0000    0    12.011   19.689780  -22.594654   -4.210718
   6 C     6.0000    0    12.011   15.197442  -23.994420   -4.447514
   7 C     6.0000    0    12.011   14.025760  -22.540341   -2.224792
   8 C     6.0000    0    12.011   11.564045  -21.146659   -2.888735
   9 C     6.0000    0    12.011   12.071452  -18.665433   -4.307619
  10 C     6.0000    0    12.011   13.740620  -16.854350   -2.894110
  11 C     6.0000    0    12.011   13.123860  -16.111775   -0.444424
  12 C     6.0000    0    12.011   14.622970  -14.412953    0.853482
  13 C     6.0000    0    12.011   16.760446  -13.363749   -0.321645
  14 C     6.0000    0    12.011   17.387966  -14.119455   -2.742169
  15 C     6.0000    0    12.011   15.895831  -15.863478   -4.003650
  16 C     6.0000    0    12.011   13.609055  -24.296688    0.048813
  17 C     6.0000    0    12.011    9.688882  -22.757809   -4.404294
  18 O     8.0000    0    15.999   22.199693  -29.671229   -1.956296
  19 O     8.0000    0    15.999   24.078016  -21.235050   -3.909099
  20 O     8.0000    0    15.999   25.591399  -25.791222   -2.627987
  21 O     8.0000    0    15.999   18.190511  -11.618515    0.916870
  22 O     8.0000    0    15.999   14.218354  -13.595263    3.294727
  23 C     6.0000    0    12.011   26.454171  -26.585320   -0.210931
  24 C     6.0000    0    12.011   26.669031  -24.260358    1.556891
  25 C     6.0000    0    12.011   24.120434  -23.047137    2.040610
  26 C     6.0000    0    12.011   29.084913  -27.767809   -0.702252
  27 O     8.0000    0    15.999   30.803125  -27.482746    1.288196
  28 C     6.0000    0    12.011   23.849361  -20.458487    1.684639
  29 C     6.0000    0    12.011   21.533327  -19.301981    2.027984
  30 C     6.0000    0    12.011   19.440876  -20.755392    2.748609
  31 C     6.0000    0    12.011   19.735356  -23.311930    3.200862
  32 C     6.0000    0    12.011   22.065205  -24.450568    2.858991
  33 C     6.0000    0    12.011   23.400263  -18.847619   -4.864600
  34 C     6.0000    0    12.011   20.516023  -31.718429   -1.747880
  35 C     6.0000    0    12.011   12.188566  -14.655889    4.646195
  36 O     8.0000    0    15.999   28.423559  -22.557493    0.499187
  37 O     8.0000    0    15.999   12.862758  -22.971916    2.224752
  38 O     8.0000    0    15.999    7.286393  -21.622406   -4.563548
  39 O     8.0000    0    15.999   21.054151  -16.766898    1.730237
  40 O     8.0000    0    15.999   17.131446  -19.625842    3.044856
  41 C     6.0000    0    12.011   23.128387  -15.124106    1.429112
  42 H     1.0000    0     1.008   17.359499  -28.396926   -3.030585
  43 H     1.0000    0     1.008   19.036044  -20.754031   -4.786690
  44 H     1.0000    0     1.008   14.168647  -25.753970   -4.750000
  45 H     1.0000    0     1.008   15.037112  -22.849406   -6.153494
  46 H     1.0000    0     1.008   15.387351  -21.099298   -1.622375
  47 H     1.0000    0     1.008   10.658459  -20.697344   -1.079123
  48 H     1.0000    0     1.008   12.925859  -19.089417   -6.136592
  49 H     1.0000    0     1.008   10.246953  -17.767801   -4.679492
  50 H     1.0000    0     1.008   11.453659  -16.874117    0.435474
  51 H     1.0000    0     1.008   19.039259  -13.311264   -3.621504
  52 H     1.0000    0     1.008   16.406526  -16.421204   -5.899861
  53 H     1.0000    0     1.008   15.355868  -25.362122    0.397777
  54 H     1.0000    0     1.008   12.092349  -25.645504   -0.338085
  55 H     1.0000    0     1.008   10.315016  -22.968934   -6.359015
  56 H     1.0000    0     1.008    9.528786  -24.646660   -3.558002
  57 H     1.0000    0     1.008   17.428220  -11.345064    2.555138
  58 H     1.0000    0     1.008   25.175933  -27.978406    0.615065
  59 H     1.0000    0     1.008   27.466616  -24.887113    3.365885
  60 H     1.0000    0     1.008   29.815569  -26.913431   -2.446729
  61 H     1.0000    0     1.008   28.876988  -29.795970   -1.010422
  62 H     1.0000    0     1.008   31.158710  -25.698697    1.460310
  63 H     1.0000    0     1.008   25.484390  -19.370032    1.146978
  64 H     1.0000    0     1.008   18.132923  -24.390706    3.848546
  65 H     1.0000    0     1.008   22.263150  -26.442542    3.242592
  66 H     1.0000    0     1.008   22.642808  -18.991110   -6.783597
  67 H     1.0000    0     1.008   22.011572  -17.905806   -3.654669
  68 H     1.0000    0     1.008   25.141142  -17.749195   -4.908948
  69 H     1.0000    0     1.008   19.067850  -31.370251   -0.311749
  70 H     1.0000    0     1.008   19.607206  -32.141531   -3.556266
  71 H     1.0000    0     1.008   21.670195  -33.323100   -1.175574
  72 H     1.0000    0     1.008   10.374073  -14.173729    3.780079
  73 H     1.0000    0     1.008   12.369293  -16.710902    4.785058
  74 H     1.0000    0     1.008   12.283343  -13.829636    6.528166
  75 H     1.0000    0     1.008   27.858414  -22.269038   -1.220797
  76 H     1.0000    0     1.008   14.220777  -21.825407    2.677851
  77 H     1.0000    0     1.008    6.640020  -21.405746   -2.874174
  78 H     1.0000    0     1.008   17.349312  -17.838714    2.710624
  79 H     1.0000    0     1.008   24.168537  -15.522431   -0.310651
  80 H     1.0000    0     1.008   22.315252  -13.237523    1.321928
  81 H     1.0000    0     1.008   24.415890  -15.249614    3.041659

--------------------------------
INTERNAL COORDINATES (ANGSTROEM)
--------------------------------
 C      0   0   0     0.000000000000     0.00000000     0.00000000
 C      1   0   0     1.401511068867     0.00000000     0.00000000
 C      2   1   0     1.400429282927   119.54321761     0.00000000
 C      3   2   1     1.389544476491   119.50950153   359.43581465
 C      4   3   2     1.384927482219   120.81026009     0.44167656
 C      1   2   3     1.385979396255   119.96743882     0.42528654
 C      5   4   3     1.502429431168   121.03958971   181.31373562
 C      7   5   4     1.536225791203   110.61819425   102.56711762
 C      8   7   5     1.537641194395   114.03056363   160.48303996
 C      9   8   7     1.536180330889   111.93503099   281.49133797
 C     10   9   8     1.502728217697   113.86348196   302.59165078
 C     11  10   9     1.393332387802   120.35006727   305.56832245
 C     12  11  10     1.381739206959   120.76149465   181.15373645
 C     13  12  11     1.405117944362   119.95131451     1.67435322
 C     14  13  12     1.382338930536   119.28447862   357.68504097
 C     11  10   9     1.385781276663   120.94157768   126.47956316
 C      8   7   5     1.536226033154   110.76542786   285.65273277
 C      9   8   7     1.534518930307   113.62641346    46.05768668
 O      3   2   1     1.365953823018   116.31626765   179.54088671
 O      1   2   3     1.365974629180   115.45786818   180.16405631
 O      2   1   3     1.376206753951   117.67421542   175.59911641
 O     14  13  12     1.362037663745   120.14752955   177.57977185
 O     13  12  11     1.379114502469   125.49385116   181.48184885
 C     21   2   1     1.421619179103   117.81469484   121.68425080
 C     24  21   2     1.549758548388   109.39013701   278.40768328
 C     25  24  21     1.515446932773   111.90008231    64.05610609
 C     24  21   2     1.548282592758   104.90064937   159.43016425
 O     27  24  21     1.399610922771   114.46782266   148.17656017
 C     26  25  24     1.390165997875   119.10392729   230.88067613
 C     29  26  25     1.381892893684   120.67028567   177.87609150
 C     30  29  26     1.401076449132   119.57696219     0.16781818
 C     31  30  29     1.382676154844   119.67942112     2.43105968
 C     32  31  30     1.384136942490   120.24500759   357.74903956
 C     20   1   2     1.407269511675   117.75983342   175.14201015
 C     19   3   2     1.406975253450   118.58247722   181.74294721
 C     23  13  12     1.407196901618   117.99717606     3.35060220
 O     25  24  21     1.409723764825   108.42791640   299.42098896
 O     17   8   7     1.404732590789   112.35825089   171.92454215
 O     18   9   8     1.408690888774   112.20313832   168.55851348
 O     30  29  26     1.374324333452   125.51076504   179.94929559
 O     31  30  29     1.369445961163   119.79026298   181.22764487
 C     40  30  29     1.409231349172   118.12557393   349.68478383
 H      4   3   2     1.077917830708   120.35313238   179.55370744
 H      6   1   2     1.077627313199   120.79534940   179.37577989
 H      7   5   4     1.090404825812   110.28181982   340.91787006
 H      7   5   4     1.090558653061   108.88119549   222.21509104
 H      8   7   5     1.096488281206   107.80196425    42.04782760
 H      9   8   7     1.096899696336   105.93890831   163.37248662
 H     10   9   8     1.091557592696   109.27455465    64.98839655
 H     10   9   8     1.093852672922   107.74720696   181.11998267
 H     12  11  10     1.077360515162   119.25229115     0.99166166
 H     15  14  13     1.078427803786   118.66823450   180.39880866
 H     16  11  10     1.080284601979   119.73960491   358.94446382
 H     17   8   7     1.098381452713   108.74880627    48.90461597
 H     17   8   7     1.093412733295   110.71084829   290.02234327
 H     18   9   8     1.091895385249   110.83879050   285.73930412
 H     18   9   8     1.098549265054   110.01917364    45.68081528
 H     22  14  13     0.967075490895   107.52138693   359.53220012
 H     24  21   2     1.091805160184   111.15011167    39.90344336
 H     25  24  21     1.097506803438   108.34967947   184.05848693
 H     27  24  21     1.098220651111   106.93755546    24.70908788
 H     27  24  21     1.091136830260   109.38782184   267.57725084
 H     28  27  24     0.966946684828   107.60994168   294.57130967
 H     29  26  25     1.077643445034   118.65966313   357.49536675
 H     32  31  30     1.078151313246   118.97636116   176.82527543
 H     33  32  31     1.078573271519   119.16666158   179.28173470
 H     34  20   1     1.094370690720   111.37405373   299.89547587
 H     34  20   1     1.094694164524   111.69453830    62.25917793
 H     34  20   1     1.089534921343   105.73535644   181.55063060
 H     35  19   3     1.094885760301   111.59620438   297.57610726
 H     35  19   3     1.094159133958   111.55139237    60.42292361
 H     35  19   3     1.088950857188   105.48879953   178.96734172
 H     36  23  13     1.094133110586   111.34339639   295.48227984
 H     36  23  13     1.094133265145   111.33572756    58.20849873
 H     36  23  13     1.088806387109   105.63603863   176.97938829
 H     37  25  24     0.970133558660   105.66705514    53.02688202
 H     38  17   8     0.970574099891   107.83622039   297.57298335
 H     39  18   9     0.964021539822   108.38893380   300.09270356
 H     41  31  30     0.968987809425   107.39260897   358.75537226
 H     42  40  30     1.093150834415   111.62125569    64.08864304
 H     42  40  30     1.088597817318   105.29264109   182.68219299
 H     42  40  30     1.093967077345   111.06561085   301.74796364

---------------------------
INTERNAL COORDINATES (A.U.)
---------------------------
 C      0   0   0     0.000000000000     0.00000000     0.00000000
 C      1   0   0     2.648472093818     0.00000000     0.00000000
 C      2   1   0     2.646427814655   119.54321761     0.00000000
 C      3   2   1     2.625858511471   119.50950153   359.43581465
 C      4   3   2     2.617133656735   120.81026009     0.44167656
 C      1   2   3     2.619121486179   119.96743882     0.42528654
 C      5   4   3     2.839180160451   121.03958971   181.31373562
 C      7   5   4     2.903046025241   110.61819425   102.56711762
 C      8   7   5     2.905720749643   114.03056363   160.48303996
 C      9   8   7     2.902960117697   111.93503099   281.49133797
 C     10   9   8     2.839744785162   113.86348196   302.59165078
 C     11  10   9     2.633016626469   120.35006727   305.56832245
 C     12  11  10     2.611108689654   120.76149465   181.15373645
 C     13  12  11     2.655288100702   119.95131451     1.67435322
 C     14  13  12     2.612242002970   119.28447862   357.68504097
 C     11  10   9     2.618747094410   120.94157768   126.47956316
 C      8   7   5     2.903046482462   110.76542786   285.65273277
 C      9   8   7     2.899820525599   113.62641346    46.05768668
 O      3   2   1     2.581278637086   116.31626765   179.54088671
 O      1   2   3     2.581317955035   115.45786818   180.16405631
 O      2   1   3     2.600653868619   117.67421542   175.59911641
 O     14  13  12     2.573878168564   120.14752955   177.57977185
 O     13  12  11     2.606148716985   125.49385116   181.48184885
 C     21   2   1     2.686470915235   117.81469484   121.68425080
 C     24  21   2     2.928619230157   109.39013701   278.40768328
 C     25  24  21     2.863779673433   111.90008231    64.05610609
 C     24  21   2     2.925830078231   104.90064937   159.43016425
 O     27  24  21     2.644881338081   114.46782266   148.17656017
 C     26  25  24     2.627033016673   119.10392729   230.88067613
 C     29  26  25     2.611399115476   120.67028567   177.87609150
 C     30  29  26     2.647650781547   119.57696219     0.16781818
 C     31  30  29     2.612879264559   119.67942112     2.43105968
 C     32  31  30     2.615639753149   120.24500759   357.74903956
 C     20   1   2     2.659353973683   117.75983342   175.14201015
 C     19   3   2     2.658797906225   118.58247722   181.74294721
 C     23  13  12     2.659216760561   117.99717606     3.35060220
 O     25  24  21     2.663991840000   108.42791640   299.42098896
 O     17   8   7     2.654559887984   112.35825089   171.92454215
 O     18   9   8     2.662039987132   112.20313832   168.55851348
 O     30  29  26     2.597096609408   125.51076504   179.94929559
 O     31  30  29     2.587877821802   119.79026298   181.22764487
 C     40  30  29     2.663061309272   118.12557393   349.68478383
 H      4   3   2     2.036969494909   120.35313238   179.55370744
 H      6   1   2     2.036420496379   120.79534940   179.37577989
 H      7   5   4     2.060566495891   110.28181982   340.91787006
 H      7   5   4     2.060857187264   108.88119549   222.21509104
 H      8   7   5     2.072062560533   107.80196425    42.04782760
 H      9   8   7     2.072840022457   105.93890831   163.37248662
 H     10   9   8     2.062744909597   109.27455465    64.98839655
 H     10   9   8     2.067081982681   107.74720696   181.11998267
 H     12  11  10     2.035916321156   119.25229115     0.99166166
 H     15  14  13     2.037933204362   118.66823450   180.39880866
 H     16  11  10     2.041442044433   119.73960491   358.94446382
 H     17   8   7     2.075640136205   108.74880627    48.90461597
 H     17   8   7     2.066250617270   110.71084829   290.02234327
 H     18   9   8     2.063383245012   110.83879050   285.73930412
 H     18   9   8     2.075957255573   110.01917364    45.68081528
 H     22  14  13     1.827507828620   107.52138693   359.53220012
 H     24  21   2     2.063212744349   111.15011167    39.90344336
 H     25  24  21     2.073987288613   108.34967947   184.05848693
 H     27  24  21     2.075336265216   106.93755546    24.70908788
 H     27  24  21     2.061949783827   109.38782184   267.57725084
 H     28  27  24     1.827264420428   107.60994168   294.57130967
 H     29  26  25     2.036450981131   118.65966313   357.49536675
 H     32  31  30     2.037410712963   118.97636116   176.82527543
 H     33  32  31     2.038208098538   119.16666158   179.28173470
 H     34  20   1     2.068060894451   111.37405373   299.89547587
 H     34  20   1     2.068672171352   111.69453830    62.25917793
 H     34  20   1     2.058922614682   105.73535644   181.55063060
 H     35  19   3     2.069034234899   111.59620438   297.57610726
 H     35  19   3     2.067661110110   111.55139237    60.42292361
 H     35  19   3     2.057818893384   105.48879953   178.96734172
 H     36  23  13     2.067611933063   111.34339639   295.48227984
 H     36  23  13     2.067612225138   111.33572756    58.20849873
 H     36  23  13     2.057545884500   105.63603863   176.97938829
 H     37  25  24     1.833286739194   105.66705514    53.02688202
 H     38  17   8     1.834119241471   107.83622039   297.57298335
 H     39  18   9     1.821736697465   108.38893380   300.09270356
 H     41  31  30     1.831121586921   107.39260897   358.75537226
 H     42  40  30     2.065755700111   111.62125569    64.08864304
 H     42  40  30     2.057151744716   105.29264109   182.68219299
 H     42  40  30     2.067298175707   111.06561085   301.74796364

---------------------
BASIS SET INFORMATION
---------------------
There are 3 groups of distinct atoms

 Group   1 Type C   : 11s6p2d1f contracted to 5s3p2d1f pattern {62111/411/11/1}
 Group   2 Type O   : 11s6p2d1f contracted to 5s3p2d1f pattern {62111/411/11/1}
 Group   3 Type H   : 5s1p contracted to 3s1p pattern {311/1}

Atom   0C    basis set group =>   1
Atom   1C    basis set group =>   1
Atom   2C    basis set group =>   1
Atom   3C    basis set group =>   1
Atom   4C    basis set group =>   1
Atom   5C    basis set group =>   1
Atom   6C    basis set group =>   1
Atom   7C    basis set group =>   1
Atom   8C    basis set group =>   1
Atom   9C    basis set group =>   1
Atom  10C    basis set group =>   1
Atom  11C    basis set group =>   1
Atom  12C    basis set group =>   1
Atom  13C    basis set group =>   1
Atom  14C    basis set group =>   1
Atom  15C    basis set group =>   1
Atom  16C    basis set group =>   1
Atom  17C    basis set group =>   1
Atom  18O    basis set group =>   2
Atom  19O    basis set group =>   2
Atom  20O    basis set group =>   2
Atom  21O    basis set group =>   2
Atom  22O    basis set group =>   2
Atom  23C    basis set group =>   1
Atom  24C    basis set group =>   1
Atom  25C    basis set group =>   1
Atom  26C    basis set group =>   1
Atom  27O    basis set group =>   2
Atom  28C    basis set group =>   1
Atom  29C    basis set group =>   1
Atom  30C    basis set group =>   1
Atom  31C    basis set group =>   1
Atom  32C    basis set group =>   1
Atom  33C    basis set group =>   1
Atom  34C    basis set group =>   1
Atom  35C    basis set group =>   1
Atom  36O    basis set group =>   2
Atom  37O    basis set group =>   2
Atom  38O    basis set group =>   2
Atom  39O    basis set group =>   2
Atom  40O    basis set group =>   2
Atom  41C    basis set group =>   1
Atom  42H    basis set group =>   3
Atom  43H    basis set group =>   3
Atom  44H    basis set group =>   3
Atom  45H    basis set group =>   3
Atom  46H    basis set group =>   3
Atom  47H    basis set group =>   3
Atom  48H    basis set group =>   3
Atom  49H    basis set group =>   3
Atom  50H    basis set group =>   3
Atom  51H    basis set group =>   3
Atom  52H    basis set group =>   3
Atom  53H    basis set group =>   3
Atom  54H    basis set group =>   3
Atom  55H    basis set group =>   3
Atom  56H    basis set group =>   3
Atom  57H    basis set group =>   3
Atom  58H    basis set group =>   3
Atom  59H    basis set group =>   3
Atom  60H    basis set group =>   3
Atom  61H    basis set group =>   3
Atom  62H    basis set group =>   3
Atom  63H    basis set group =>   3
Atom  64H    basis set group =>   3
Atom  65H    basis set group =>   3
Atom  66H    basis set group =>   3
Atom  67H    basis set group =>   3
Atom  68H    basis set group =>   3
Atom  69H    basis set group =>   3
Atom  70H    basis set group =>   3
Atom  71H    basis set group =>   3
Atom  72H    basis set group =>   3
Atom  73H    basis set group =>   3
Atom  74H    basis set group =>   3
Atom  75H    basis set group =>   3
Atom  76H    basis set group =>   3
Atom  77H    basis set group =>   3
Atom  78H    basis set group =>   3
Atom  79H    basis set group =>   3
Atom  80H    basis set group =>   3
Atom  81H    basis set group =>   3
---------------------------------
AUXILIARY/J BASIS SET INFORMATION
---------------------------------
There are 3 groups of distinct atoms

 Group   1 Type C   : 12s5p4d2f1g contracted to 6s4p3d1f1g pattern {711111/2111/211/2/1}
 Group   2 Type O   : 12s5p4d2f1g contracted to 6s4p3d1f1g pattern {711111/2111/211/2/1}
 Group   3 Type H   : 5s2p1d contracted to 3s1p1d pattern {311/2/1}

Atom   0C    basis set group =>   1
Atom   1C    basis set group =>   1
Atom   2C    basis set group =>   1
Atom   3C    basis set group =>   1
Atom   4C    basis set group =>   1
Atom   5C    basis set group =>   1
Atom   6C    basis set group =>   1
Atom   7C    basis set group =>   1
Atom   8C    basis set group =>   1
Atom   9C    basis set group =>   1
Atom  10C    basis set group =>   1
Atom  11C    basis set group =>   1
Atom  12C    basis set group =>   1
Atom  13C    basis set group =>   1
Atom  14C    basis set group =>   1
Atom  15C    basis set group =>   1
Atom  16C    basis set group =>   1
Atom  17C    basis set group =>   1
Atom  18O    basis set group =>   2
Atom  19O    basis set group =>   2
Atom  20O    basis set group =>   2
Atom  21O    basis set group =>   2
Atom  22O    basis set group =>   2
Atom  23C    basis set group =>   1
Atom  24C    basis set group =>   1
Atom  25C    basis set group =>   1
Atom  26C    basis set group =>   1
Atom  27O    basis set group =>   2
Atom  28C    basis set group =>   1
Atom  29C    basis set group =>   1
Atom  30C    basis set group =>   1
Atom  31C    basis set group =>   1
Atom  32C    basis set group =>   1
Atom  33C    basis set group =>   1
Atom  34C    basis set group =>   1
Atom  35C    basis set group =>   1
Atom  36O    basis set group =>   2
Atom  37O    basis set group =>   2
Atom  38O    basis set group =>   2
Atom  39O    basis set group =>   2
Atom  40O    basis set group =>   2
Atom  41C    basis set group =>   1
Atom  42H    basis set group =>   3
Atom  43H    basis set group =>   3
Atom  44H    basis set group =>   3
Atom  45H    basis set group =>   3
Atom  46H    basis set group =>   3
Atom  47H    basis set group =>   3
Atom  48H    basis set group =>   3
Atom  49H    basis set group =>   3
Atom  50H    basis set group =>   3
Atom  51H    basis set group =>   3
Atom  52H    basis set group =>   3
Atom  53H    basis set group =>   3
Atom  54H    basis set group =>   3
Atom  55H    basis set group =>   3
Atom  56H    basis set group =>   3
Atom  57H    basis set group =>   3
Atom  58H    basis set group =>   3
Atom  59H    basis set group =>   3
Atom  60H    basis set group =>   3
Atom  61H    basis set group =>   3
Atom  62H    basis set group =>   3
Atom  63H    basis set group =>   3
Atom  64H    basis set group =>   3
Atom  65H    basis set group =>   3
Atom  66H    basis set group =>   3
Atom  67H    basis set group =>   3
Atom  68H    basis set group =>   3
Atom  69H    basis set group =>   3
Atom  70H    basis set group =>   3
Atom  71H    basis set group =>   3
Atom  72H    basis set group =>   3
Atom  73H    basis set group =>   3
Atom  74H    basis set group =>   3
Atom  75H    basis set group =>   3
Atom  76H    basis set group =>   3
Atom  77H    basis set group =>   3
Atom  78H    basis set group =>   3
Atom  79H    basis set group =>   3
Atom  80H    basis set group =>   3
Atom  81H    basis set group =>   3
--------------------------------------------------------------------------
WARNING: There was an error initializing an OpenFabrics device.

  Local host:   c04b01n02
  Local device: mlx5_0
--------------------------------------------------------------------------
--------------------------------------------------------------------------
WARNING: There is at least one non-excluded one OpenFabrics device found,
but there are no active ports detected (or Open MPI was unable to use
them).  This is most certainly not what you wanted.  Check your
cables, subnet manager configuration, etc.  The openib BTL will be
ignored for this job.

  Local host: c04b01n02
--------------------------------------------------------------------------


[c04b01n02:2979811] 57 more processes have sent help message help-mpi-btl-openib.txt / error in device init
[c04b01n02:2979811] Set MCA parameter "orte_base_help_aggregate" to 0 to see all help / error messages
[c04b01n02:2979811] 5 more processes have sent help message help-mpi-btl-openib.txt / no active ports found
           ************************************************************
           *        Program running with 64 parallel MPI-processes    *
           *              working on a common directory               *
           ************************************************************
------------------------------------------------------------------------------
                             ORCA STARTUP CALCULATIONS
                           -- RI-GTO INTEGRALS CHOSEN --
------------------------------------------------------------------------------
------------------------------------------------------------------------------
                   ___                                                        
                  /   \      - P O W E R E D   B Y -                         
                 /     \                                                     
                 |  |  |   _    _      __       _____    __    __             
                 |  |  |  | |  | |    /  \     |  _  \  |  |  /  |          
                  \  \/   | |  | |   /    \    | | | |  |  | /  /          
                 / \  \   | |__| |  /  /\  \   | |_| |  |  |/  /          
                |  |  |   |  __  | /  /__\  \  |    /   |      \           
                |  |  |   | |  | | |   __   |  |    \   |  |\   \          
                \     /   | |  | | |  |  |  |  | |\  \  |  | \   \       
                 \___/    |_|  |_| |__|  |__|  |_| \__\ |__|  \__/        
                                                                              
                      - O R C A' S   B I G   F R I E N D -                    
                                      &                                       
                       - I N T E G R A L  F E E D E R -                       
                                                                              
 v1 FN, 2020, v2 2021, v3 2022-2024                                           
------------------------------------------------------------------------------


----------------------
SHARK INTEGRAL PACKAGE
----------------------

Number of atoms                             ...     82
Number of basis functions                   ...   1542
Number of shells                            ...    622
Maximum angular momentum                    ...      3
Integral batch strategy                     ... SHARK/LIBINT Hybrid
RI-J (if used) integral strategy            ... SPLIT-RIJ (Revised 2003 algorithm where possible)
Printlevel                                  ...      1
Contraction scheme used                     ... SEGMENTED contraction
Prescreening option                         ... SCHWARTZ
   Thresh                                   ... 2.500e-11
   Tcut                                     ... 2.500e-12
   Tpresel                                  ... 2.500e-12 
Coulomb Range Separation                    ... NOT USED
Exchange Range Separation                   ... NOT USED
Multipole approximations                    ... NOT USED
Finite Nucleus Model                        ... NOT USED
CABS basis                                  ... NOT available
Auxiliary Coulomb fitting basis             ... AVAILABLE
   # of basis functions in Aux-J            ...   2498
   # of shells in Aux-J                     ...    830
   Maximum angular momentum in Aux-J        ...      4
Auxiliary J/K fitting basis                 ... NOT available
Auxiliary Correlation fitting basis         ... NOT available
Auxiliary 'external' fitting basis          ... NOT available

Checking pre-screening integrals            ... done (  0.0 sec) Dimension = 622
   => SHARK Basis and OBASIS are compatible. Storing Pre-screening
Shell pair information
Shell pair cut-off parameter TPreSel        ...   2.5e-12
Total number of shell pairs                 ...    193753
Shell pairs after pre-screening             ...    115613
Total number of primitive shell pairs       ...    584784
Primitive shell pairs kept                  ...    218242
          la=0 lb=0:  32189 shell pairs
          la=1 lb=0:  34475 shell pairs
          la=1 lb=1:   9346 shell pairs
          la=2 lb=0:  15672 shell pairs
          la=2 lb=1:   8620 shell pairs
          la=2 lb=2:   1974 shell pairs
          la=3 lb=0:   7161 shell pairs
          la=3 lb=1:   4001 shell pairs
          la=3 lb=2:   1750 shell pairs
          la=3 lb=3:    425 shell pairs

Checking whether 4 symmetric matrices of dimension 1542 fit in memory
:Max Core in MB      =   6000.00
 MB in use           =    138.60
 MB left             =   5861.40
 MB needed           =     36.31
 Data fit in memory  = YES
Calculating RI/J V-Matrix + Cholesky decomp.... done (  1.5 sec)
Calculating Nuclear repulsion               ... done (  0.0 sec) ENN=   5744.224513549787 Eh

Diagonalization of the overlap matrix:
Smallest eigenvalue                        ... 3.313e-06
Time for diagonalization                   ...    3.505 sec
Threshold for overlap eigenvalues          ... 1.000e-07
Number of eigenvalues below threshold      ... 0
Time for construction of square roots      ...    0.437 sec
Total time needed                          ...    3.992 sec

-------------------
DFT GRID GENERATION
-------------------

General Integration Accuracy     IntAcc      ... 4.388
Radial Grid Type                 RadialGrid  ... OptM3 with GC (2021)
Angular Grid (max. ang.)         AngularGrid ... 4 (Lebedev-302)
Angular grid pruning method      GridPruning ... 4 (adaptive)
Weight generation scheme         WeightScheme... mBecke (2022)
Basis function cutoff            BFCut       ... 1.0000e-11
Integration weight cutoff        WCut        ... 1.0000e-14
Partially contracted basis set               ... off
Rotationally invariant grid construction     ... off
Angular grids for H and He will be reduced by one unit

Total number of grid points                  ...   373592
Total number of batches                      ...     5876
Average number of points per batch           ...       63
Average number of grid points per atom       ...     4556

--------------------
COSX GRID GENERATION
--------------------

GRIDX 1
-------
General Integration Accuracy     IntAcc      ... 3.816
Radial Grid Type                 RadialGrid  ... OptM3 with GC (2021)
Angular Grid (max. ang.)         AngularGrid ... 1 (Lebedev-50)
Angular grid pruning method      GridPruning ... 4 (adaptive)
Weight generation scheme         WeightScheme... mBecke (2022)
Basis function cutoff            BFCut       ... 1.0000e-11
Integration weight cutoff        WCut        ... 1.0000e-14
Partially contracted basis set               ... on
Rotationally invariant grid construction     ... off
Angular grids for H and He will be reduced by one unit

Total number of grid points                  ...    47257
Total number of batches                      ...      415
Average number of points per batch           ...      113
Average number of grid points per atom       ...      576
UseSFitting                                  ... on

GRIDX 2
-------
General Integration Accuracy     IntAcc      ... 4.020
Radial Grid Type                 RadialGrid  ... OptM3 with GC (2021)
Angular Grid (max. ang.)         AngularGrid ... 2 (Lebedev-110)
Angular grid pruning method      GridPruning ... 4 (adaptive)
Weight generation scheme         WeightScheme... mBecke (2022)
Basis function cutoff            BFCut       ... 1.0000e-11
Integration weight cutoff        WCut        ... 1.0000e-14
Partially contracted basis set               ... on
Rotationally invariant grid construction     ... off
[...]
freq.     627.32  E(vib)   ...       0.09 
freq.     640.79  E(vib)   ...       0.09 
freq.     660.04  E(vib)   ...       0.08 
freq.     692.48  E(vib)   ...       0.07 
freq.     701.77  E(vib)   ...       0.07 
freq.     734.84  E(vib)   ...       0.06 
freq.     735.69  E(vib)   ...       0.06 
freq.     751.58  E(vib)   ...       0.06 
freq.     756.84  E(vib)   ...       0.06 
freq.     780.35  E(vib)   ...       0.05 
freq.     788.41  E(vib)   ...       0.05 
freq.     802.13  E(vib)   ...       0.05 
freq.     814.03  E(vib)   ...       0.05 
freq.     826.44  E(vib)   ...       0.04 
freq.     835.02  E(vib)   ...       0.04 
freq.     841.38  E(vib)   ...       0.04 
freq.     852.04  E(vib)   ...       0.04 
freq.     855.21  E(vib)   ...       0.04 
freq.     857.99  E(vib)   ...       0.04 
freq.     873.90  E(vib)   ...       0.04 
freq.     879.83  E(vib)   ...       0.04 
freq.     901.47  E(vib)   ...       0.03 
freq.     903.31  E(vib)   ...       0.03 
freq.     929.10  E(vib)   ...       0.03 
freq.     940.60  E(vib)   ...       0.03 
freq.     949.42  E(vib)   ...       0.03 
freq.     957.20  E(vib)   ...       0.03 
freq.     960.82  E(vib)   ...       0.03 
freq.     968.62  E(vib)   ...       0.03 
freq.     970.72  E(vib)   ...       0.03 
freq.     982.12  E(vib)   ...       0.02 
freq.     997.38  E(vib)   ...       0.02 
freq.    1018.39  E(vib)   ...       0.02 
freq.    1028.73  E(vib)   ...       0.02 
freq.    1039.68  E(vib)   ...       0.02 
freq.    1047.37  E(vib)   ...       0.02 
freq.    1048.84  E(vib)   ...       0.02 
freq.    1055.65  E(vib)   ...       0.02 
freq.    1058.16  E(vib)   ...       0.02 
freq.    1069.12  E(vib)   ...       0.02 
freq.    1076.33  E(vib)   ...       0.02 
freq.    1081.82  E(vib)   ...       0.02 
freq.    1101.85  E(vib)   ...       0.02 
freq.    1120.86  E(vib)   ...       0.01 
freq.    1128.78  E(vib)   ...       0.01 
freq.    1140.96  E(vib)   ...       0.01 
freq.    1145.06  E(vib)   ...       0.01 
freq.    1155.44  E(vib)   ...       0.01 
freq.    1160.79  E(vib)   ...       0.01 
freq.    1170.01  E(vib)   ...       0.01 
freq.    1170.55  E(vib)   ...       0.01 
freq.    1171.38  E(vib)   ...       0.01 
freq.    1173.12  E(vib)   ...       0.01 
freq.    1175.07  E(vib)   ...       0.01 
freq.    1175.84  E(vib)   ...       0.01 
freq.    1180.66  E(vib)   ...       0.01 
freq.    1198.56  E(vib)   ...       0.01 
freq.    1199.32  E(vib)   ...       0.01 
freq.    1204.13  E(vib)   ...       0.01 
freq.    1207.63  E(vib)   ...       0.01 
freq.    1210.40  E(vib)   ...       0.01 
freq.    1214.40  E(vib)   ...       0.01 
freq.    1221.21  E(vib)   ...       0.01 
freq.    1226.95  E(vib)   ...       0.01 
freq.    1229.05  E(vib)   ...       0.01 
freq.    1245.61  E(vib)   ...       0.01 
freq.    1247.97  E(vib)   ...       0.01 
freq.    1251.19  E(vib)   ...       0.01 
freq.    1260.22  E(vib)   ...       0.01 
freq.    1266.03  E(vib)   ...       0.01 
freq.    1276.14  E(vib)   ...       0.01 
freq.    1288.43  E(vib)   ...       0.01 
freq.    1295.76  E(vib)   ...       0.01 
freq.    1297.98  E(vib)   ...       0.01 
freq.    1308.72  E(vib)   ...       0.01 
freq.    1313.88  E(vib)   ...       0.01 
freq.    1324.73  E(vib)   ...       0.01 
freq.    1336.40  E(vib)   ...       0.01 
freq.    1343.48  E(vib)   ...       0.01 
freq.    1345.61  E(vib)   ...       0.01 
freq.    1348.73  E(vib)   ...       0.01 
freq.    1356.86  E(vib)   ...       0.01 
freq.    1366.34  E(vib)   ...       0.01 
freq.    1371.41  E(vib)   ...       0.01 
freq.    1375.85  E(vib)   ...       0.01 
freq.    1385.93  E(vib)   ...       0.00 
freq.    1389.16  E(vib)   ...       0.00 
freq.    1398.04  E(vib)   ...       0.00 
freq.    1402.23  E(vib)   ...       0.00 
freq.    1404.80  E(vib)   ...       0.00 
freq.    1409.07  E(vib)   ...       0.00 
freq.    1410.68  E(vib)   ...       0.00 
freq.    1419.04  E(vib)   ...       0.00 
freq.    1427.08  E(vib)   ...       0.00 
freq.    1432.69  E(vib)   ...       0.00 
freq.    1452.93  E(vib)   ...       0.00 
freq.    1457.08  E(vib)   ...       0.00 
freq.    1460.83  E(vib)   ...       0.00 
freq.    1478.39  E(vib)   ...       0.00 
freq.    1478.51  E(vib)   ...       0.00 
freq.    1479.37  E(vib)   ...       0.00 
freq.    1479.87  E(vib)   ...       0.00 
freq.    1481.25  E(vib)   ...       0.00 
freq.    1481.93  E(vib)   ...       0.00 
freq.    1484.05  E(vib)   ...       0.00 
freq.    1485.43  E(vib)   ...       0.00 
freq.    1487.93  E(vib)   ...       0.00 
freq.    1490.74  E(vib)   ...       0.00 
freq.    1491.74  E(vib)   ...       0.00 
freq.    1492.64  E(vib)   ...       0.00 
freq.    1493.09  E(vib)   ...       0.00 
freq.    1496.22  E(vib)   ...       0.00 
freq.    1498.75  E(vib)   ...       0.00 
freq.    1498.98  E(vib)   ...       0.00 
freq.    1507.66  E(vib)   ...       0.00 
freq.    1536.72  E(vib)   ...       0.00 
freq.    1542.03  E(vib)   ...       0.00 
freq.    1544.53  E(vib)   ...       0.00 
freq.    1627.82  E(vib)   ...       0.00 
freq.    1636.26  E(vib)   ...       0.00 
freq.    1642.94  E(vib)   ...       0.00 
freq.    1645.52  E(vib)   ...       0.00 
freq.    1649.07  E(vib)   ...       0.00 
freq.    1650.49  E(vib)   ...       0.00 
freq.    3016.52  E(vib)   ...       0.00 
freq.    3017.95  E(vib)   ...       0.00 
freq.    3019.53  E(vib)   ...       0.00 
freq.    3022.67  E(vib)   ...       0.00 
freq.    3026.38  E(vib)   ...       0.00 
freq.    3027.20  E(vib)   ...       0.00 
freq.    3028.64  E(vib)   ...       0.00 
freq.    3029.59  E(vib)   ...       0.00 
freq.    3030.37  E(vib)   ...       0.00 
freq.    3031.25  E(vib)   ...       0.00 
freq.    3038.58  E(vib)   ...       0.00 
freq.    3043.47  E(vib)   ...       0.00 
freq.    3061.90  E(vib)   ...       0.00 
freq.    3070.60  E(vib)   ...       0.00 
freq.    3076.08  E(vib)   ...       0.00 
freq.    3076.95  E(vib)   ...       0.00 
freq.    3081.35  E(vib)   ...       0.00 
freq.    3084.74  E(vib)   ...       0.00 
freq.    3089.01  E(vib)   ...       0.00 
freq.    3092.65  E(vib)   ...       0.00 
freq.    3099.48  E(vib)   ...       0.00 
freq.    3103.40  E(vib)   ...       0.00 
freq.    3137.87  E(vib)   ...       0.00 
freq.    3142.77  E(vib)   ...       0.00 
freq.    3143.42  E(vib)   ...       0.00 
freq.    3160.76  E(vib)   ...       0.00 
freq.    3169.89  E(vib)   ...       0.00 
freq.    3185.95  E(vib)   ...       0.00 
freq.    3186.79  E(vib)   ...       0.00 
freq.    3200.96  E(vib)   ...       0.00 
freq.    3201.57  E(vib)   ...       0.00 
freq.    3210.59  E(vib)   ...       0.00 
freq.    3212.12  E(vib)   ...       0.00 
freq.    3230.63  E(vib)   ...       0.00 
freq.    3633.76  E(vib)   ...       0.00 
freq.    3643.15  E(vib)   ...       0.00 
freq.    3725.70  E(vib)   ...       0.00 
freq.    3725.72  E(vib)   ...       0.00 
freq.    3770.41  E(vib)   ...       0.00 
freq.    3794.07  E(vib)   ...       0.00 

------------
INNER ENERGY
------------

The inner energy is: U= E(el) + E(ZPE) + E(vib) + E(rot) + E(trans)
    E(el)   - is the total energy from the electronic structure calculation
              = E(kin-el) + E(nuc-el) + E(el-el) + E(nuc-nuc)
    E(ZPE)  - the the zero temperature vibrational energy from the frequency calculation
    E(vib)  - the the finite temperature correction to E(ZPE) due to population
              of excited vibrational states
    E(rot)  - is the rotational thermal energy
    E(trans)- is the translational thermal energy

Summary of contributions to the inner energy U:
Electronic energy                ...  -2032.63745467 Eh
Zero point energy                ...      0.67976430 Eh     426.56 kcal/mol
Thermal vibrational correction   ...      0.04009626 Eh      25.16 kcal/mol
Thermal rotational correction    ...      0.00141627 Eh       0.89 kcal/mol
Thermal translational correction ...      0.00141627 Eh       0.89 kcal/mol
-----------------------------------------------------------------------
Total thermal energy                  -2031.91476158 Eh


Summary of corrections to the electronic energy:
(perhaps to be used in another calculation)
Total thermal correction                  0.04292880 Eh      26.94 kcal/mol
Non-thermal (ZPE) correction              0.67976430 Eh     426.56 kcal/mol
-----------------------------------------------------------------------
Total correction                          0.72269310 Eh     453.50 kcal/mol


--------
ENTHALPY
--------

The enthalpy is H = U + kB*T
                kB is Boltzmann's constant
Total thermal energy              ...  -2031.91476158 Eh 
Thermal Enthalpy correction       ...      0.00094421 Eh       0.59 kcal/mol
-----------------------------------------------------------------------
Total Enthalpy                    ...  -2031.91381737 Eh


Note: Only C1 symmetry has been detected, increase convergence thresholds 
      if your molecule has a higher symmetry. Symmetry factor of 1.0 is   
      used for the rotational entropy correction. 
 

Note: Rotational entropy computed according to Herzberg 
Infrared and Raman Spectra, Chapter V,1, Van Nostrand Reinhold, 1945 
Point Group:  C1, Symmetry Number:   1  
Rotational constants in cm-1:     0.003995     0.002210     0.001780 

Vibrational entropy computed according to the QRRHO of S. Grimme
Chem.Eur.J. 2012 18 9955 using a reference frequency of 100.0 cm-1


-------
ENTROPY
-------

The entropy contributions are T*S = T*(S(el)+S(vib)+S(rot)+S(trans))
     S(el)   - electronic entropy
     S(vib)  - vibrational entropy
     S(rot)  - rotational entropy
     S(trans)- translational entropy
The entropies will be listed as multiplied by the temperature to get
units of energy

Electronic entropy                ...      0.00000000 Eh      0.00 kcal/mol
Vibrational entropy               ...      0.07178269 Eh     45.04 kcal/mol
Rotational entropy                ...      0.01799364 Eh     11.29 kcal/mol
Translational entropy             ...      0.02138181 Eh     13.42 kcal/mol
-----------------------------------------------------------------------
Final entropy term                ...      0.11115813 Eh     69.75 kcal/mol

In case the symmetry of your molecule has not been determined correctly
or in case you have a reason to use a different symmetry number we print 
out the resulting rotational entropy values for sn=1,12:

 non-linear molecules -----------------------------------
|  sn= 1 | S(rot)=       0.01799364 Eh     11.29 kcal/mol|
|  sn= 2 | S(rot)=       0.01733918 Eh     10.88 kcal/mol|
|  sn= 3 | S(rot)=       0.01695635 Eh     10.64 kcal/mol|
|  sn= 4 | S(rot)=       0.01668472 Eh     10.47 kcal/mol|
|  sn= 5 | S(rot)=       0.01647404 Eh     10.34 kcal/mol|
|  sn= 6 | S(rot)=       0.01630189 Eh     10.23 kcal/mol|
|  sn= 7 | S(rot)=       0.01615635 Eh     10.14 kcal/mol|
|  sn= 8 | S(rot)=       0.01603027 Eh     10.06 kcal/mol|
|  sn= 9 | S(rot)=       0.01591906 Eh      9.99 kcal/mol|
|  sn=10 | S(rot)=       0.01581958 Eh      9.93 kcal/mol|
|  sn=11 | S(rot)=       0.01572959 Eh      9.87 kcal/mol|
|  sn=12 | S(rot)=       0.01564744 Eh      9.82 kcal/mol|
 linear molecules ---------------------------------------
|  Dinfh | S(rot)=       0.01130358 Eh      7.09 kcal/mol|
|  Cinfv | S(rot)=       0.01195804 Eh      7.50 kcal/mol|
 --------------------------------------------------------


-------------------
GIBBS FREE ENERGY
-------------------

The Gibbs free energy is G = H - T*S

Total enthalpy                    ...  -2031.91381737 Eh 
Total entropy correction          ...     -0.11115813 Eh    -69.75 kcal/mol
-----------------------------------------------------------------------
Final Gibbs free energy         ...  -2032.02497550 Eh

For completeness - the Gibbs free energy minus the electronic energy
G-E(el)                           ...      0.61247917 Eh    384.34 kcal/mol


Maximum memory used throughout the entire PROP-calculation: 1819.3 MB
--------------------------------------------------------------------------
WARNING: There is at least one non-excluded one OpenFabrics device found,
but there are no active ports detected (or Open MPI was unable to use
them).  This is most certainly not what you wanted.  Check your
cables, subnet manager configuration, etc.  The openib BTL will be
ignored for this job.

  Local host: c04b01n02
--------------------------------------------------------------------------
--------------------------------------------------------------------------
WARNING: There was an error initializing an OpenFabrics device.

  Local host:   c04b01n02
  Local device: mlx5_0
--------------------------------------------------------------------------
[c04b01n02:3084603] 6 more processes have sent help message help-mpi-btl-openib.txt / no active ports found
[c04b01n02:3084603] Set MCA parameter "orte_base_help_aggregate" to 0 to see all help / error messages
[c04b01n02:3084603] 56 more processes have sent help message help-mpi-btl-openib.txt / error in device init

--------------------------------
SUGGESTED CITATIONS FOR THIS RUN
--------------------------------

Below you find a list of papers that are relevant to this ORCA run
We neither can nor want to force you to cite these papers, but we appreciate if you do
You receive ORCA, which is the product of decades of hard work by many enthusiastic individuals, for free
The only thing we kindly ask in return is that you cite our papers,
We deeply appreciate it, if you show your appreciation for ORCA by not just citing the generic ORCA reference.

Please note that relegating all ORCA citations to the supporting information does *not* help us.
SI sections are not indexed - citations you put there will not count into any citation statistics
But we need these citations in order to attract the funding resources that allow us to do what we are doing

Therefore, if you are a happy ORCA user, please consider citing a few of the papers listed below in the main body of your paper

In addition to the list printed below, the program has created the file opt-conf-12.bibtex that contains the list in bibtex format
You can import this file easily into all common literature databanks and citation aid programs


List of essential papers. We consider these as the minimum necessary citations

  1. Neese, F.
     Software update: the ORCA program system, version 6.0
     WIRES Comput. Molec. Sci. 2025 15(1), e70019
     doi.org/10.1002/wcms.7019

List of papers to cite with high priority. The work reported in these papers was absolutely
necessary for this run to complete.
Our perspective: the developers of density functionals and basis sets usually get cited in chemistry papers
Good! But without the algorithms to do something with them, the functionals or basis sets would not do anything.
Hence, in our opinion, the algorithm design and method developments papers are equally worthy of getting cited

  1. Neese, F.
     An improvement of the resolution of the identity approximation for the formation of the Coulomb matrix
     J. Comp. Chem. 2003 24(14), 1740-1747
     doi.org/10.1002/jcc.10318
  2. Neese, F.; Wennmohs, F.; Hansen, A.; Becker, U.
     Efficient, approximate and parallel Hartree-Fock and hybrid DFT calculations. A 'chain-of-spheres' algorithm for the Hartree-Fock exchange
     Chem. Phys. 2009 356(1-3), 98-109
     doi.org/10.1016/j.chemphys.2008.10.036
  3. Bykov, D.; Petrenko, T.; Izsak, R.; Kossmann, S.; Becker, U.; Valeev, E.; Neese, F.
     Efficient implementation of the analytic second derivatives of Hartree-Fock and hybrid DFT energies: a detailed analysis of different approximations
     Molec. Phys. 2015 113 , 1961-1977
     doi.org/10.1080/00268976.2015.1025114
  4. Caldeweyher, E.; Bannwarth, C.; Grimme, S.
     Extension of the D3 dispersion coefficient model
     J. Chem. Phys. 2017 147 , 034112
     doi.org/10.1063/1.4993215
  5. Caldeweyher, E.; Ehlert, S.; Hansen, A.; Neugebauer, H.; Spicher, S.; Bannwarth, C.; Grimme, S.
     A generally applicable atomic-charge dependent London dispersion correction
     J. Chem. Phys. 2019 150 , 154122
     doi.org/10.1063/1.5090222
  6. Garcia-Rates, M.; Neese, F.
     Efficient implementation of the analytical second derivatives of hartree-fock and hybrid DFT energies within the framework of the conductor-like polarizable continuum model
     J. Comput. Chem. 2019 40 , 1816-1828
     doi.org/10.1002/jcc.25833
  7. Caldeweyher, E.; Mewes, J.; Ehlert, S.; Grimme, S.
     Extension and evaluation of the D4 London-dispersion model for periodic systems
     Phys. Chem. Chem. Phys. 2020 22(16), 8499-8512
     doi.org/10.1039/D0CP00502A
  8. Garcia-Rates, M.; Neese, F.
     Effect of the Solute Cavity on the Solvation Energy and its Derivatives within the Framework of the Gaussian Charge Scheme
     J. Comput. Chem. 2020 41 , 922-939
     doi.org/10.1002/jcc.26139
  9. Helmich-Paris, B.; de Souza, B.; Neese, F.; Izsák, R.
     An improved chain of spheres for exchange algorithm
     J. Chem. Phys. 2021 155(10), 104109
     doi.org/10.1063/5.0058766
 10. Neese, F.
     The SHARK Integral Generation and Digestion System
     J. Comp. Chem. 2022 44(3), 381
     doi.org/10.1002/jcc.26942
 11. Wittmann, L.; Gordiy, I.; Friede, M.; Helmich-Paris, B.; Grimme, S.; Hansen, A.; Bursch, M.
     Extension of the D3 and D4 London Dispersion Corrections to the full Actinides Series
     Phys. Chem. Chem. Phys. 2024 26(32), 21379-21394
     doi.org/10.1039/D4CP01514B

List of suggested additional citations. These are papers that are important in the 'surrounding' of 
of this run, or papers that preceded the highly important papers. If you like your results we are grateful for a citation.

  1. Izsak, R.; Neese, F.
     An overlap fitted chain of spheres exchange method
     J. Chem. Phys. 2011 135 , 144105
     doi.org/10.1063/1.3646921
  2. Izsak, R.; Hansen, A.; Neese, F.
     The resolution of identity and chain of spheres approximations for the LPNO-CCSD singles Fock term
     Molec. Phys. 2012 110 , 2413-2417
     doi.org/10.1080/00268976.2012.687466
  3. Neese, F.
     The ORCA program system
     WIRES Comput. Molec. Sci. 2012 2(1), 73-78
     doi.org/10.1002/wcms.81
  4. Izsak, R.; Neese, F.; Klopper, W.
     Robust fitting techniques in the chain of spheres approximation to the Fock exchange: The role of the complementary space
     J. Chem. Phys. 2013 139 , 
     doi.org/10.1063/1.4819264
  5. Neese, F.
     Software update: the ORCA program system, version 4.0
     WIRES Comput. Molec. Sci. 2018 8(1), 1-6
     doi.org/10.1002/wcms.1327
  6. Neese, F.; Wennmohs, F.; Becker, U.; Riplinger, C.
     The ORCA quantum chemistry program package
     J. Chem. Phys. 2020 152(22), 224108
     doi.org/10.1063/5.0004608
  7. Neese, F.
     Software update: The ORCA program system—Version 5.0
     WIRES Comput. Molec. Sci. 2022 12(1), e1606
     doi.org/10.1002/wcms.1606

List of optional additional citations

  1. Neese, F.
     Approximate second-order SCF convergence for spin unrestricted wavefunctions
     Chem. Phys. Lett. 2000 325(1-3), 93-98
     doi.org/10.1016/s0009-2614(00)00662-x

Timings for individual modules:

Sum of individual times          ...     8957.007 sec (= 149.283 min)
Startup calculation              ...      524.476 sec (=   8.741 min)   5.9 %
SCF iterations                   ...     3368.000 sec (=  56.133 min)  37.6 %
Property integrals               ...     1114.882 sec (=  18.581 min)  12.4 %
SCF Response                     ...     2375.450 sec (=  39.591 min)  26.5 %
Property calculations            ...      614.439 sec (=  10.241 min)   6.9 %
SCF Gradient evaluation          ...      946.416 sec (=  15.774 min)  10.6 %
Geometry relaxation              ...       13.345 sec (=   0.222 min)   0.1 %
                             ****ORCA TERMINATED NORMALLY****
TOTAL RUN TIME: 0 days 2 hours 33 minutes 22 seconds 945 msec
