
                                 *****************
                                 * O   R   C   A *
                                 *****************

                                            #,                                       
                                            ###                                      
                                            ####                                     
                                            #####                                    
                                            ######                                   
                                           ########,                                 
                                     ,,################,,,,,                         
                               ,,#################################,,                 
                          ,,##########################################,,             
                       ,#########################################, ''#####,          
                    ,#############################################,,   '####,        
                  ,##################################################,,,,####,       
                ,###########''''           ''''###############################       
              ,#####''   ,,,,##########,,,,          '''####'''          '####       
            ,##' ,,,,###########################,,,                        '##       
           ' ,,###''''                  '''############,,,                           
         ,,##''                                '''############,,,,        ,,,,,,###''
      ,#''                                            '''#######################'''  
     '                                                          ''''####''''         
             ,#######,   #######,   ,#######,      ##                                
            ,#'     '#,  ##    ##  ,#'     '#,    #''#        ,####,    ,#,          
            ##       ##  ##   ,#'  ##            #'  '#       #'       ,# #          
            ##       ##  #######   ##           ,######,      #####,      #          
            '#,     ,#'  ##    ##  '#,     ,#' ,#      #,     #,   #      #          
             '#######'   ##     ##  '#######'  #'      '#     '####' #    #          



                #########################################################
                #                        -***-                          #
                #          Department of theory and spectroscopy        #
                #                                                       #
                #                      Frank Neese                      #
                #                                                       #
                #     Directorship, Architecture, Infrastructure        #
                #                    SHARK, DRIVERS                     #
                #        Core code/Algorithms in most modules           #
                #                                                       #
                #        Max Planck Institute fuer Kohlenforschung      #
                #                Kaiser Wilhelm Platz 1                 #
                #                 D-45470 Muelheim/Ruhr                 #
                #                      Germany                          #
                #                                                       #
                #                  All rights reserved                  #
                #                        -***-                          #
                #########################################################


                         Program Version 6.1.0-f.0  -   RELEASE   -


 With contributions from (in alphabetic order):
[Max-Planck-Institut fuer Kohlenforschung]                               
  Daniel Aravena         : Magnetic Suceptibility                        
  Michael Atanasov       : Ab Initio Ligand Field Theory (pilot matlab implementation)
  Alexander A. Auer      : GIAO ZORA, VPT2 properties, NMR spectrum      
  Ute Becker             : All parallelization in ORCA, NUMFREQ, NUMCALC 
  Giovanni Bistoni       : ED, misc. LED, open-shell LED, HFLD           
  Dmytro Bykov           : pre 5.0 version of the SCF Hessian            
  Marcos Casanova-Páez   : Triplet and SCS-CIS(D). UHF-(DLPNO)-IP/EA/STEOM-CCSD. UHF-CVS-IP/STEOM-CCSD   
  Vijay G. Chilkuri      : MRCI spin determinant printing, contributions to CSF-ICE 
  Pauline Colinet        : FMM embedding                                 
  Dipayan Datta          : RHF DLPNO-CCSD density                        
  Achintya Kumar Dutta   : EOM-CC, STEOM-CC                              
  Nicolas Foglia         : Exact transition moments, OPA infrastructure, MCD improvements    
  Dmitry Ganyushin       : Spin-Orbit,Spin-Spin,Magnetic field MRCI      
  Miquel Garcia-Rates    : C-PCM and meta-GGA Hessian, CCSD/C-PCM, Gaussian charge scheme 
  Tiago L. C. Gouveia    : GS-ROHF, GS-ROCIS                             
  Yang Guo               : DLPNO-NEVPT2, F12-NEVPT2, CIM, IAO-localization        
  Andreas Hansen         : Spin unrestricted coupled pair/coupled cluster methods 
  Ingolf Harden          : AUTO-CI MPn and infrastructure                
  Benjamin Helmich-Paris : MC-RPA, TRAH-(SCF,CASSCF), AVAS, COSX integrals, SCF dyn. polar., MC-PDFT, srDFT 
  Lee Huntington         : MR-EOM, pCC                                   
  Robert Izsak           : Overlap fitted RIJCOSX, COSX-SCS-MP3, EOM     
  Riya Kayal             : Wick's Theorem for AUTO-CI, AUTO-CI UHF-CCSDT 
  Emily Kempfer          : AUTO-CI RHF CISDT and CCSDT, approximate NEVPT4
  Christian Kollmar      : KDIIS, OOCD, Brueckner-CCSD(T), CCSD density, CASPT2, CASPT2-K, improved NEVPT2 
  Axel Koslowski         : Symmetry handling                             
  Simone Kossmann        : meta-GGA functionals, TD-DFT gradient, OOMP2, (MP2 Hessian; deprecated post 5.0) 
  Lucas Lang             : DCDCAS, Hyperfine gauge corrections, ICE-SOC+SSC
  Marvin Lechner         : AUTO-CI (C++ implementation), FIC-MRCC        
  Spencer Leger          : CASSCF response                               
  Dagmar Lenk            : GEPOL surface, SMD, ORCA-2-JSON               
  Dimitrios Liakos       : Extrapolation schemes; Compound Job, Property file
  Dimitrios Manganas     : Further ROCIS development; embedding schemes. LFT, Crystal Embedding 
  Dimitrios Pantazis     : SARC Basis sets                               
  Anastasios Papadopoulos: AUTO-CI, single reference methods and gradients 
  Taras Petrenko         : pre 6.0 DFT Hessian and TD-DFT gradient,  ECA, NRVS 
  Petra Pikulova         : Analytic Raman intensities                    
  Peter Pinski           : DLPNO-MP2, DLPNO-MP2 Gradient                 
  Shashank Vittal Rao    : ES-AILFT, MagRelax                            
  Christoph Reimann      : Effective Core Potentials                     
  Marius Retegan         : Local ZFS, SOC                                
  Christoph Riplinger    : Optimizer, TS searches, QM/MM, DLPNO-CCSD(T), (RO)-DLPNO pert. Triples 
  Michael Roemelt        : Original ROCIS implementation, recursive CI coupling coefficients
  Masaaki Saitow         : Open-shell DLPNO-CCSD energy and density      
  Barbara Sandhoefer     : DKH picture change effects                    
  Yorick L. A. Schmerwitz: GMF and freeze-and-release deltaSCF, NEB S-IDPP initial path                    
  Kantharuban Sivalingam : CASSCF convergence/infrastructure, NEVPT2, NEVPT3, NEVPT4(SD), FIC-MRCI and CEPA variants
  Bernardo de Souza      : ESD, SOC TD-DFT                               
  Georgi L. Stoychev     : AutoAux, RI-MP2 NMR, DLPNO-MP2 response, X2C  
  Van Anh Tran           : RI-MP2 g-tensors                              
  Willem Van den Heuvel  : Paramagnetic NMR                              
  Zikuan Wang            : NOTCH, Electric field optimization            
  Frank Wennmohs         : Technical directorship and infrastructure     
  Hang Xu                : AUTO-CI-Response properties                   
                                                                         
[FACCTs GmbH]                                                            
  Markus Bursch, Nicolas Foglia, Miquel Garcia-Rates, Ingolf Harden, Hagen Neugebauer, Anastasios Papadopoulos, 
  Christoph Riplinger, Bernardo de Souza, Georgi L. Stoychev                                                    
                                                                 
  APM, various basis sets, CI-OPT, improved COSX, DLPNO-Multilevel,           
  DOCKER, DRACO, updates on ESD, Fragmentator, GOAT, IRC, LR-CPCM, L-BFGS, MBIS, meta-GGA TD-DFT gradient, ML-optimized integration grids, 
  MM, NACMEs, nearIR, NEB, NEB-TS, NL-DFT gradient (VV10), 2- and 3-layer-ONIOM, interface openCOSMO-RS, QMMM,   
  Crystal-QMMM, RESP, rigid body optimization, SF, symmetry and pop. for TD-DFT, various functionals, SOLVATOR                                   
                                                                         
[Other institutions]                                                     
  V. Asgeirsson          : NEB                                           
  Christoph Bannwarth    : sTDA-DFT, sTD-DFT, PBEh-3c, B97-3c, D3        
  Giovanni Bistoni       : ETS/NOCV, ADLD/ADEX, COVALED                  
  Martin Brehm           : Molecular dynamics                            
  Ronald Cardenas        : ETS/NOCV                                      
  Martina Colucci        : COVALED                                       
  Sebastian Ehlert       : rSCAN, r2SCAN, r2SCAN-3c, D4, dhf basis sets  
  Marvin Friede          : D4 for Fr, Ra, Ac-Lr                          
  Lars Goerigk           : TD-DFT with DH, B97 family of functionals     
  Stefan Grimme          : VdW corrections, initial TS optimization, DFT functionals, gCP, sTDA/sTD-DF 
  Waldemar Hujo          : DFT-NL                                        
  H. Jonsson             : NEB                                           
  Holger Kruse           : gCP                                           
  Marcel Mueller         : wB97X-3c, vDZP basis set                      
  Hagen Neugebauer       : wr2SCAN, Native XTB                           
  Gianluca Regni         : ADLD/ADEX                                     
  Tobias Risthaus        : pre 6.0 range-separated hybrid DFT and stability analysis
  Lukas Wittmann         : regularized MP2, r2SCAN double-hybrids, wr2SCAN        
                                                                         
We gratefully acknowledge several colleagues who have allowed us to      
interface, adapt or use parts of their codes:                            
  Ed Valeev, F. Pavosevic, A. Kumar             : LibInt (2-el integral package), F12 methods 
  Garnet Chan, S. Sharma, J. Yang, R. Olivares  : DMRG                   
  Ulf Ekstrom                                   : XCFun DFT Library      
  Mihaly Kallay                                 : mrcc  (arbitrary order and MRCC methods)
  Frank Weinhold                                : gennbo (NPA and NBO analysis)           
  Simon Mueller                                 : openCOSMO-RS                            
  Christopher J. Cramer and Donald G. Truhlar   : smd solvation model                     
  S Lehtola, MJT Oliveira, MAL Marques          : LibXC Library                           
  Liviu Ungur et al                             : ANISO software                          


 Your calculation uses the libint2 library for the computation of 2-el integrals
 For citations please refer to: http://libint.valeyev.net

 Your ORCA version has been built with support for libXC version: 7.0.0
 For citations please refer to: https://libxc.gitlab.io

 This ORCA versions uses:
   CBLAS   interface :  Fast vector & matrix operations
   LAPACKE interface :  Fast linear algebra routines
   SCALAPACK package :  Parallel linear algebra routines
   Shared memory     :  Shared parallel matrices
   BLAS/LAPACK       :  OpenBLAS 0.3.29  USE64BITINT DYNAMIC_ARCH NO_AFFINITY Cooperlake SINGLE_THREADED
        Core in use  :  Cooperlake
   Copyright (c) 2011-2014, The OpenBLAS Project


  ***********************************
  * Starting time: Wed Mar  4 04:33:04 2026
  * Host name:     c03b01n03
  * Process ID:    3282869
  * Working dir.:  /lustre1/jiangy/jiangy_liuxy/NMR/B9D7C2-RSSR
  ***********************************

NOTE: MaxCore=6000 MB was set to SCF,MP2,MDCI,CIPSI,MRCI,RASCI and CIS
      => If you want to overwrite this, your respective input block should be placed after the MaxCore statement


***************************************
The coordinates will be read from file: conf-9.xyz
***************************************


Your calculation utilizes the atom-pairwise dispersion correction
based on EEQ partial charges (D4)


Warning: RI is on but no J-basis has been assigned. Assigning Def2/J (nothing to worry about!)
================================================================================

----- Orbital basis set information -----
Your calculation utilizes the basis: def2-TZVP
   F. Weigend and R. Ahlrichs, Phys. Chem. Chem. Phys. 7, 3297 (2005).

----- AuxJ basis set information -----
Your calculation utilizes the auxiliary basis: def2/J
   H-Rn: F. Weigend, Phys. Chem. Chem. Phys. 8, 1057 (2006).
   Fr-Lr: K. Eichkorn, F. Weigend, O. Treutler, R. Ahlrichs; Theor. Chem. Acc. 97, 119 (1997).

================================================================================
                                        WARNINGS
                       Please study these warnings very carefully!
================================================================================


WARNING: Geometry Optimization
  ===> : Switching off AutoStart
         For restart on a previous wavefunction, please use MOREAD

================================================================================
                                       INPUT FILE
================================================================================
NAME = opt-conf-9.inp
|  1> ! B3LYP OPT FREQ DEF2-TZVP D4 CPCM(Methanol) 
|  2> ! TightOpt
|  3> %pal nprocs 64 end
|  4> %maxcore 6000
|  5> 
|  6> %cpcm
|  7> end
|  8> 
|  9> %freq
| 10>    Temp 298.15
| 11> end
| 12> 
| 13> * xyzfile 0 1 conf-9.xyz
| 14> 
| 15> 
| 16>                          ****END OF INPUT****
================================================================================

                       *****************************
                       * Geometry Optimization Run *
                       *****************************

Geometry optimization settings:
Update method            Update   .... BFGS
Choice of coordinates    CoordSys .... (2022) Redundant Internals
Initial Hessian          InHess   .... Almloef's Model
Max. no of cycles        MaxIter  .... 246

Convergence Tolerances:
Energy Change            TolE     ....  1.0000e-06 Eh
Max. Gradient            TolMAXG  ....  1.0000e-04 Eh/bohr
RMS Gradient             TolRMSG  ....  3.0000e-05 Eh/bohr
Max. Displacement        TolMAXD  ....  1.0000e-03 bohr
RMS Displacement         TolRMSD  ....  6.0000e-04 bohr
Strict Convergence                .... False

------------------------------------------------------------------------------
                        ORCA OPTIMIZATION COORDINATE SETUP
------------------------------------------------------------------------------

The optimization will be done in redundant internal coordinates (2022)
Making redundant internal coordinates   ...  (2022 redundants) done
Evaluating the initial hessian          ...  (Almloef) done
Evaluating the coordinates              ...  done
Calculating the B-matrix                .... done
Calculating the G-matrix                .... done
The number of degrees of freedom        ....  405

    -----------------------------------------------------------------
                    Redundant Internal Coordinates


    -----------------------------------------------------------------
         Definition                    Initial Value    Approx d2E/dq
    -----------------------------------------------------------------
      1. B(C   1,C   0)                  1.4048         0.591644   
      2. B(C   2,C   1)                  1.4006         0.600869   
      3. B(C   3,C   2)                  1.3904         0.623790   
      4. B(C   4,C   3)                  1.3838         0.639283   
      5. B(C   5,C   4)                  1.3870         0.631619   
      6. B(C   5,C   0)                  1.3850         0.636368   
      7. B(C   6,C   4)                  1.5020         0.414079   
      8. B(C   7,C   6)                  1.5356         0.365947   
      9. B(C   8,C   7)                  1.5404         0.359625   
     10. B(C   9,C   8)                  1.5378         0.362995   
     11. B(C  10,C   9)                  1.5045         0.410215   
     12. B(C  11,C  10)                  1.3935         0.616903   
     13. B(C  12,C  11)                  1.3816         0.644419   
     14. B(C  13,C  12)                  1.4054         0.590343   
     15. B(C  14,C  13)                  1.3823         0.642705   
     16. B(C  15,C  10)                  1.3854         0.635442   
     17. B(C  15,C  14)                  1.3863         0.633421   
     18. B(C  16,C   7)                  1.5359         0.365628   
     19. B(C  17,C   8)                  1.5357         0.365844   
     20. B(O  18,C   2)                  1.3721         0.597713   
     21. B(O  19,C   0)                  1.3640         0.615614   
     22. B(O  20,C   1)                  1.3734         0.594879   
     23. B(O  21,C  13)                  1.3611         0.622235   
     24. B(O  22,C  12)                  1.3789         0.582969   
     25. B(C  23,O  20)                  1.4196         0.502020   
     26. B(C  24,C  23)                  1.5536         0.342586   
     27. B(C  25,C  24)                  1.5086         0.404109   
     28. B(C  26,C  23)                  1.5361         0.365351   
     29. B(O  27,C  26)                  1.4015         0.536418   
     30. B(C  28,C  25)                  1.3903         0.624201   
     31. B(C  29,C  28)                  1.3822         0.643051   
     32. B(C  30,C  29)                  1.4029         0.595957   
     33. B(C  31,C  30)                  1.3817         0.644065   
     34. B(C  32,C  31)                  1.3843         0.637967   
     35. B(C  32,C  25)                  1.3862         0.633486   
     36. B(C  33,O  19)                  1.4072         0.525308   
     37. B(C  34,O  18)                  1.4074         0.525011   
     38. B(C  35,O  22)                  1.4078         0.524256   
     39. B(O  36,C  24)                  1.4099         0.520178   
     40. B(O  37,C  16)                  1.4080         0.523816   
     41. B(O  38,C  17)                  1.4062         0.527361   
     42. B(O  39,C  29)                  1.3735         0.594532   
     43. B(O  40,C  30)                  1.3682         0.606234   
     44. B(C  41,O  39)                  1.4099         0.520185   
     45. B(H  42,C   3)                  1.0777         0.376781   
     46. B(H  43,C   5)                  1.0778         0.376670   
     47. B(H  44,C   6)                  1.0901         0.360015   
     48. B(H  45,C   6)                  1.0911         0.358604   
     49. B(H  46,C   7)                  1.0967         0.351365   
     50. B(H  47,C   8)                  1.0970         0.351012   
     51. B(H  48,C   9)                  1.0945         0.354194   
     52. B(H  49,C   9)                  1.0916         0.357999   
     53. B(H  50,C  11)                  1.0773         0.377346   
     54. B(H  51,C  14)                  1.0785         0.375689   
     55. B(H  52,C  15)                  1.0802         0.373344   
     56. B(H  53,C  16)                  1.0914         0.358305   
     57. B(H  54,C  16)                  1.0980         0.349705   
     58. B(H  55,C  17)                  1.1021         0.344505   
     59. B(H  56,C  17)                  1.0915         0.358079   
     60. B(H  57,O  21)                  0.9672         0.506408   
     61. B(H  57,O  22)                  2.1130         0.010000   
     62. B(H  58,C  23)                  1.0945         0.354181   
     63. B(H  59,C  24)                  1.0947         0.353928   
     64. B(H  60,C  26)                  1.0998         0.347324   
     65. B(H  61,C  26)                  1.0918         0.357712   
     66. B(H  62,O  20)                  2.1805         0.010000   
     67. B(H  62,O  27)                  0.9668         0.507078   
     68. B(H  63,C  28)                  1.0775         0.377067   
     69. B(H  64,C  31)                  1.0781         0.376216   
     70. B(H  65,C  32)                  1.0807         0.372676   
     71. B(H  66,C  33)                  1.0895         0.360752   
     72. B(H  67,C  33)                  1.0948         0.353817   
     73. B(H  68,C  33)                  1.0950         0.353563   
     74. B(H  69,C  34)                  1.0893         0.361012   
     75. B(H  70,H  64)                  4.2222         0.010000   
     76. B(H  70,C  34)                  1.0948         0.353772   
     77. B(H  71,C  34)                  1.0939         0.355037   
     78. B(H  72,H  64)                  4.9073         0.010000   
     79. B(H  72,C  35)                  1.0939         0.354948   
     80. B(H  73,C  35)                  1.0888         0.361738   
     81. B(H  74,C  35)                  1.0940         0.354820   
     82. B(H  75,O  36)                  0.9642         0.511985   
     83. B(H  76,O  40)                  1.9707         0.012692   
     84. B(H  76,O  37)                  0.9697         0.501739   
     85. B(H  77,O  38)                  0.9645         0.511394   
     86. B(H  78,O  39)                  2.0959         0.010000   
     87. B(H  78,O  40)                  0.9690         0.503115   
     88. B(H  79,O  21)                  2.3804         0.010000   
     89. B(H  79,C  41)                  1.0888         0.361750   
     90. B(H  80,C  41)                  1.0942         0.354636   
     91. B(H  81,H  68)                  2.5074         0.010000   
     92. B(H  81,C  41)                  1.0923         0.357061   
     93. A(C   1,C   0,O  19)          115.4079         0.427076   
     94. A(C   5,C   0,O  19)          124.3107         0.432698   
     95. A(C   1,C   0,C   5)          120.2809         0.432449   
     96. A(C   0,C   1,O  20)          115.9617         0.424464   
     97. A(C   0,C   1,C   2)          119.0372         0.428016   
     98. A(C   2,C   1,O  20)          124.7435         0.425641   
     99. A(C   3,C   2,O  18)          123.2291         0.428871   
    100. A(C   1,C   2,C   3)          119.6284         0.432100   
    101. A(C   1,C   2,O  18)          117.1425         0.426004   
    102. A(C   4,C   3,H  42)          118.6579         0.357482   
    103. A(C   2,C   3,H  42)          120.2435         0.355996   
    104. A(C   2,C   3,C   4)          121.0918         0.436946   
    105. A(C   5,C   4,C   6)          119.2377         0.405263   
    106. A(C   3,C   4,C   6)          121.3155         0.406128   
    107. A(C   3,C   4,C   5)          119.4280         0.437930   
    108. A(C   4,C   5,H  43)          118.7986         0.356733   
    109. A(C   0,C   5,H  43)          120.6845         0.357187   
    110. A(C   0,C   5,C   4)          120.5143         0.437569   
    111. A(C   4,C   6,H  44)          110.5106         0.329853   
    112. A(C   7,C   6,H  45)          109.0955         0.323002   
    113. A(C   4,C   6,C   7)          110.1830         0.368510   
    114. A(H  44,C   6,H  45)          108.6623         0.290639   
    115. A(C   4,C   6,H  45)          108.8272         0.329639   
    116. A(C   7,C   6,H  44)          109.5273         0.323210   
    117. A(C   6,C   7,C  16)          110.1728         0.360748   
    118. A(C   8,C   7,C  16)          110.7670         0.359678   
    119. A(C  16,C   7,H  46)          106.6901         0.321878   
    120. A(C   8,C   7,H  46)          106.7280         0.321007   
    121. A(C   6,C   7,H  46)          107.7590         0.321924   
    122. A(C   6,C   7,C   8)          114.3364         0.359731   
    123. A(C   7,C   8,C  17)          114.4640         0.359714   
    124. A(C  17,C   8,H  47)          107.2902         0.321857   
    125. A(C   7,C   8,C   9)          111.4536         0.359236   
    126. A(C   9,C   8,H  47)          108.5902         0.321445   
    127. A(C   7,C   8,H  47)          105.9873         0.320955   
    128. A(C   9,C   8,C  17)          108.8010         0.360286   
    129. A(H  48,C   9,H  49)          107.1933         0.289819   
    130. A(C  10,C   9,H  48)          108.6629         0.328457   
    131. A(C  10,C   9,H  49)          109.1211         0.329037   
    132. A(C   8,C   9,C  10)          113.9676         0.367407   
    133. A(C   8,C   9,H  48)          108.3999         0.321920   
    134. A(C   8,C   9,H  49)          109.2776         0.322484   
    135. A(C   9,C  10,C  11)          120.2577         0.402913   
    136. A(C  11,C  10,C  15)          118.7829         0.435600   
    137. A(C   9,C  10,C  15)          120.9506         0.405024   
    138. A(C  10,C  11,C  12)          120.7189         0.436702   
    139. A(C  10,C  11,H  50)          119.2205         0.355416   
    140. A(C  12,C  11,H  50)          120.0601         0.358060   
    141. A(C  11,C  12,C  13)          119.9624         0.433256   
    142. A(C  13,C  12,O  22)          114.5424         0.422766   
    143. A(C  11,C  12,O  22)          125.4953         0.429453   
    144. A(C  12,C  13,O  21)          120.2098         0.427727   
    145. A(C  12,C  13,C  14)          119.2837         0.433048   
    146. A(C  14,C  13,O  21)          120.5064         0.434305   
    147. A(C  13,C  14,H  51)          118.6521         0.357630   
    148. A(C  13,C  14,C  15)          120.1596         0.438577   
    149. A(C  15,C  14,H  51)          121.1852         0.356747   
    150. A(C  14,C  15,H  52)          119.1460         0.356368   
    151. A(C  10,C  15,H  52)          119.7833         0.356561   
    152. A(C  10,C  15,C  14)          121.0603         0.437679   
    153. A(O  37,C  16,H  54)          110.6210         0.339274   
    154. A(C   7,C  16,H  54)          108.4633         0.321629   
    155. A(O  37,C  16,H  53)          106.4752         0.340654   
    156. A(C   7,C  16,H  53)          110.5100         0.322912   
    157. A(C   7,C  16,O  37)          112.2586         0.381302   
    158. A(H  53,C  16,H  54)          108.4498         0.289279   
    159. A(O  38,C  17,H  56)          105.4973         0.341002   
    160. A(C   8,C  17,O  38)          114.3447         0.381788   
    161. A(H  55,C  17,H  56)          107.7730         0.288573   
    162. A(C   8,C  17,H  56)          110.9394         0.322910   
    163. A(O  38,C  17,H  55)          109.7617         0.338808   
    164. A(C   8,C  17,H  55)          108.3317         0.320872   
    165. A(C   2,O  18,C  34)          118.6216         0.413175   
    166. A(C   0,O  19,C  33)          117.7631         0.415390   
    167. A(C   1,O  20,C  23)          120.5700         0.409561   
    168. A(C  13,O  21,H  57)          107.5796         0.368669   
    169. A(C  12,O  22,C  35)          118.0668         0.411243   
    170. A(C  26,C  23,H  58)          109.6163         0.322260   
    171. A(C  24,C  23,H  58)          109.0958         0.318888   
    172. A(O  20,C  23,H  58)          111.2166         0.337592   
    173. A(C  24,C  23,C  26)          109.4482         0.356675   
    174. A(O  20,C  23,C  26)          104.9646         0.378454   
    175. A(O  20,C  23,C  24)          112.4062         0.374270   
    176. A(C  23,C  24,O  36)          109.6372         0.376573   
    177. A(O  36,C  24,H  59)          105.1675         0.339559   
    178. A(C  25,C  24,H  59)          109.8337         0.327605   
    179. A(C  23,C  24,H  59)          107.8577         0.318850   
    180. A(C  25,C  24,O  36)          112.7881         0.387527   
    181. A(C  23,C  24,C  25)          111.2725         0.362853   
    182. A(C  28,C  25,C  32)          119.4525         0.436281   
    183. A(C  24,C  25,C  32)          121.0729         0.403733   
    184. A(C  24,C  25,C  28)          119.4740         0.402683   
    185. A(O  27,C  26,H  61)          107.2043         0.341917   
    186. A(H  60,C  26,H  61)          109.4531         0.288895   
    187. A(C  23,C  26,H  61)          109.7121         0.322784   
    188. A(O  27,C  26,H  60)          110.5401         0.340235   
    189. A(C  23,C  26,H  60)          108.7698         0.321230   
    190. A(C  23,C  26,O  27)          111.1400         0.382829   
    191. A(C  26,O  27,H  62)          106.5195         0.359512   
    192. A(C  29,C  28,H  63)          120.7028         0.357886   
    193. A(C  25,C  28,H  63)          118.8241         0.356081   
    194. A(C  25,C  28,C  29)          120.4666         0.437461   
    195. A(C  30,C  29,O  39)          114.6800         0.424972   
    196. A(C  28,C  29,O  39)          125.7118         0.430806   
    197. A(C  28,C  29,C  30)          119.6071         0.433828   
    198. A(C  31,C  30,O  40)          120.4293         0.432439   
    199. A(C  29,C  30,O  40)          119.6964         0.426457   
    200. A(C  29,C  30,C  31)          119.8703         0.433951   
    201. A(C  32,C  31,H  64)          120.8644         0.357266   
    202. A(C  30,C  31,H  64)          119.1251         0.357844   
    203. A(C  30,C  31,C  32)          120.0075         0.439311   
    204. A(C  31,C  32,H  65)          118.8287         0.356693   
    205. A(C  25,C  32,H  65)          120.6045         0.356266   
    206. A(C  25,C  32,C  31)          120.5650         0.438000   
    207. A(H  67,C  33,H  68)          109.1346         0.289205   
    208. A(H  66,C  33,H  68)          109.6623         0.290087   
    209. A(O  19,C  33,H  68)          111.8402         0.340058   
    210. A(H  66,C  33,H  67)          109.0210         0.290119   
    211. A(O  19,C  33,H  67)          111.4133         0.340099   
    212. A(O  19,C  33,H  66)          105.6839         0.341204   
    213. A(H  69,C  34,H  71)          109.2315         0.290309   
    214. A(O  18,C  34,H  71)          111.5669         0.340262   
    215. A(H  69,C  34,H  70)          109.3219         0.290146   
    216. A(O  18,C  34,H  70)          111.6625         0.340059   
    217. A(O  18,C  34,H  69)          105.4419         0.341213   
    218. A(H  70,C  34,H  71)          109.5059         0.289388   
    219. A(H  73,C  35,H  74)          109.2840         0.290372   
    220. A(H  72,C  35,H  74)          109.6765         0.289511   
    221. A(O  22,C  35,H  74)          111.3140         0.340146   
    222. A(H  72,C  35,H  73)          109.4972         0.290389   
    223. A(O  22,C  35,H  73)          105.6023         0.341245   
    224. A(O  22,C  35,H  72)          111.3675         0.340166   
    225. A(C  24,O  36,H  75)          108.7759         0.358222   
    226. A(C  16,O  37,H  76)          107.4580         0.357417   
    227. A(C  17,O  38,H  77)          108.3787         0.358989   
    228. A(C  29,O  39,C  41)          118.1012         0.412108   
    229. A(C  30,O  40,H  78)          107.2620         0.366615   
    230. A(H  80,C  41,H  81)          109.4261         0.289757   
    231. A(H  79,C  41,H  81)          109.4776         0.290661   
    232. A(O  39,C  41,H  81)          111.5591         0.340060   
    233. A(H  79,C  41,H  80)          110.0233         0.290350   
    234. A(O  39,C  41,H  80)          110.9572         0.339673   
    235. A(O  39,C  41,H  79)          105.3234         0.340803   
    236. D(O  20,C   1,C   0,O  19)     -3.9208         0.024096   
    237. D(C   2,C   1,C   0,O  19)   -178.3682         0.024096   
    238. D(C   2,C   1,C   0,C   5)      1.3854         0.024096   
    239. D(O  20,C   1,C   0,C   5)    175.8328         0.024096   
    240. D(O  18,C   2,C   1,C   0)    178.3692         0.024893   
    241. D(C   3,C   2,C   1,C   0)     -1.6825         0.024893   
    242. D(C   3,C   2,C   1,O  20)   -175.6051         0.024893   
    243. D(O  18,C   2,C   1,O  20)      4.4465         0.024893   
    244. D(C   4,C   3,C   2,C   1)      1.0037         0.026946   
    245. D(H  42,C   3,C   2,O  18)     -0.0091         0.026946   
    246. D(C   4,C   3,C   2,O  18)   -179.0512         0.026946   
    247. D(H  42,C   3,C   2,C   1)   -179.9541         0.026946   
    248. D(C   6,C   4,C   3,H  42)      2.5428         0.028390   
    249. D(C   5,C   4,C   3,H  42)   -179.0467         0.028390   
    250. D(C   5,C   4,C   3,C   2)      0.0103         0.028390   
    251. D(C   6,C   4,C   3,C   2)   -178.4002         0.028390   
    252. D(H  43,C   5,C   4,C   6)     -1.2934         0.027670   
    253. D(H  43,C   5,C   4,C   3)   -179.7371         0.027670   
    254. D(C   0,C   5,C   4,C   3)     -0.3226         0.027670   
    255. D(C   4,C   5,C   0,O  19)    179.3461         0.028115   
    256. D(H  43,C   5,C   0,C   1)    179.0190         0.028115   
    257. D(H  43,C   5,C   0,O  19)     -1.2504         0.028115   
    258. D(C   0,C   5,C   4,C   6)    178.1212         0.027670   
    259. D(C   4,C   5,C   0,C   1)     -0.3844         0.028115   
    260. D(H  45,C   6,C   4,C   3)   -137.0256         0.012690   
    261. D(H  44,C   6,C   4,C   5)    163.8037         0.012690   
    262. D(H  44,C   6,C   4,C   3)    -17.7828         0.012690   
    263. D(C   7,C   6,C   4,C   5)    -75.0153         0.012690   
    264. D(C   7,C   6,C   4,C   3)    103.3981         0.012690   
    265. D(C   8,C   7,C   6,H  44)    -78.3805         0.010720   
    266. D(C   8,C   7,C   6,C   4)    159.8533         0.010720   
    267. D(C  16,C   7,C   6,H  45)    165.9428         0.010720   
    268. D(C  16,C   7,C   6,H  44)     47.1223         0.010720   
    269. D(C   8,C   7,C   6,H  45)     40.4400         0.010720   
    270. D(C  16,C   7,C   6,C   4)    -74.6439         0.010720   
    271. D(C  17,C   8,C   7,H  46)    164.5369         0.010377   
    272. D(C  17,C   8,C   7,C  16)    -79.6974         0.010377   
    273. D(C  17,C   8,C   7,C   6)     45.4927         0.010377   
    274. D(C   9,C   8,C   7,C  16)    156.3008         0.010377   
    275. D(C   9,C   8,C   7,H  46)     40.5350         0.010377   
    276. D(C   9,C   8,C   7,C   6)    -78.5091         0.010377   
    277. D(H  48,C   9,C   8,C  17)     58.6819         0.010559   
    278. D(H  48,C   9,C   8,C   7)   -174.1744         0.010559   
    279. D(C  10,C   9,C   8,H  47)     63.3378         0.010559   
    280. D(C  10,C   9,C   8,C  17)    179.8094         0.010559   
    281. D(H  48,C   9,C   8,H  47)    -57.7898         0.010559   
    282. D(C  10,C   9,C   8,C   7)    -53.0468         0.010559   
    283. D(C  15,C  10,C   9,H  48)   -111.2025         0.012463   
    284. D(C  15,C  10,C   9,C   8)    127.8163         0.012463   
    285. D(C  11,C  10,C   9,H  49)   -175.7228         0.012463   
    286. D(C  11,C  10,C   9,H  48)     67.7054         0.012463   
    287. D(C  11,C  10,C   9,C   8)    -53.2758         0.012463   
    288. D(H  50,C  11,C  10,C  15)   -179.9008         0.026318   
    289. D(H  50,C  11,C  10,C   9)      1.1679         0.026318   
    290. D(C  12,C  11,C  10,C  15)     -0.1687         0.026318   
    291. D(C  12,C  11,C  10,C   9)   -179.1001         0.026318   
    292. D(O  22,C  12,C  11,H  50)      1.3792         0.028880   
    293. D(C  13,C  12,C  11,H  50)   -178.5965         0.028880   
    294. D(O  22,C  12,C  11,C  10)   -178.3506         0.028880   
    295. D(C  13,C  12,C  11,C  10)      1.6737         0.028880   
    296. D(O  21,C  13,C  12,C  11)    177.9378         0.023985   
    297. D(C  14,C  13,C  12,O  22)    178.1230         0.023985   
    298. D(C  14,C  13,C  12,C  11)     -1.8988         0.023985   
    299. D(O  21,C  13,C  12,O  22)     -2.0404         0.023985   
    300. D(H  51,C  14,C  13,O  21)      0.1651         0.028716   
    301. D(H  51,C  14,C  13,C  12)   -179.9988         0.028716   
    302. D(C  15,C  14,C  13,O  21)   -179.2038         0.028716   
    303. D(C  15,C  14,C  13,C  12)      0.6323         0.028716   
    304. D(H  52,C  15,C  14,H  51)      0.3586         0.027838   
    305. D(H  52,C  15,C  14,C  13)    179.7112         0.027838   
    306. D(C  10,C  15,C  14,H  51)   -178.4686         0.027838   
    307. D(C  10,C  15,C  14,C  13)      0.8841         0.027838   
    308. D(H  52,C  15,C  10,C  11)   -179.9398         0.028028   
    309. D(H  52,C  15,C  10,C   9)     -1.0161         0.028028   
    310. D(C  14,C  15,C  10,C  11)     -1.1200         0.028028   
    311. D(C  14,C  15,C  10,C   9)    177.8036         0.028028   
    312. D(H  53,C  16,C   7,H  46)    173.4105         0.010703   
    313. D(H  53,C  16,C   7,C   8)     57.6213         0.010703   
    314. D(H  53,C  16,C   7,C   6)    -69.8848         0.010703   
    315. D(O  37,C  16,C   7,H  46)     54.7068         0.010703   
    316. D(O  37,C  16,C   7,C   8)    -61.0825         0.010703   
    317. D(O  37,C  16,C   7,C   6)    171.4114         0.010703   
    318. D(H  55,C  17,C   8,H  47)     67.2722         0.010715   
    319. D(H  55,C  17,C   8,C   9)    -50.0296         0.010715   
    320. D(H  55,C  17,C   8,C   7)   -175.4354         0.010715   
    321. D(O  38,C  17,C   8,H  47)    -55.4701         0.010715   
    322. D(O  38,C  17,C   8,C   9)   -172.7718         0.010715   
    323. D(O  38,C  17,C   8,C   7)     61.8223         0.010715   
    324. D(C  34,O  18,C   2,C   3)      2.3115         0.026080   
    325. D(C  34,O  18,C   2,C   1)   -177.7422         0.026080   
    326. D(C  33,O  19,C   0,C   5)     -5.8278         0.027777   
    327. D(C  33,O  19,C   0,C   1)    173.9146         0.027777   
    328. D(C  23,O  20,C   1,C   2)    -50.7365         0.028480   
    329. D(C  23,O  20,C   1,C   0)    135.1727         0.028480   
    330. D(H  57,O  21,C  13,C  14)    179.2486         0.031369   
    331. D(H  57,O  21,C  13,C  12)     -0.5860         0.031369   
    332. D(C  35,O  22,C  12,C  13)   -178.1457         0.027276   
    333. D(C  35,O  22,C  12,C  11)      1.8774         0.027276   
    334. D(H  58,C  23,O  20,C   1)     42.2516         0.021622   
    335. D(C  26,C  23,O  20,C   1)    160.7110         0.021622   
    336. D(C  24,C  23,O  20,C   1)    -80.4082         0.021622   
    337. D(O  36,C  24,C  23,H  58)     48.6116         0.010000   
    338. D(O  36,C  24,C  23,C  26)    -71.3230         0.010000   
    339. D(O  36,C  24,C  23,O  20)    172.4587         0.010000   
    340. D(C  25,C  24,C  23,H  58)    -76.8552         0.010000   
    341. D(C  25,C  24,C  23,C  26)    163.2103         0.010000   
    342. D(C  25,C  24,C  23,O  20)     46.9920         0.010000   
    343. D(C  32,C  25,C  24,O  36)    -55.0674         0.012109   
    344. D(C  32,C  25,C  24,C  23)     68.6250         0.012109   
    345. D(C  28,C  25,C  24,H  59)      8.2573         0.012109   
    346. D(C  28,C  25,C  24,O  36)    125.2078         0.012109   
    347. D(C  28,C  25,C  24,C  23)   -111.0999         0.012109   
    348. D(H  60,C  26,C  23,H  58)     50.6953         0.010688   
    349. D(H  60,C  26,C  23,C  24)    170.3102         0.010688   
    350. D(H  60,C  26,C  23,O  20)    -68.8389         0.010688   
    351. D(O  27,C  26,C  23,H  58)    172.6139         0.010688   
    352. D(O  27,C  26,C  23,C  24)    -67.7712         0.010688   
    353. D(O  27,C  26,C  23,O  20)     53.0797         0.010688   
    354. D(H  62,O  27,C  26,H  61)   -165.4549         0.022876   
    355. D(H  62,O  27,C  26,H  60)     75.3152         0.022876   
    356. D(H  62,O  27,C  26,C  23)    -45.5676         0.022876   
    357. D(H  63,C  28,C  25,C  32)    179.1593         0.026983   
    358. D(H  63,C  28,C  25,C  24)     -1.1113         0.026983   
    359. D(C  29,C  28,C  25,C  32)     -1.7645         0.026983   
    360. D(C  29,C  28,C  25,C  24)    177.9649         0.026983   
    361. D(C  30,C  29,C  28,H  63)    179.9439         0.028749   
    362. D(C  30,C  29,C  28,C  25)      0.8853         0.028749   
    363. D(O  39,C  29,C  28,H  63)     -0.4441         0.028749   
    364. D(O  39,C  29,C  28,C  25)   -179.5027         0.028749   
    365. D(O  40,C  30,C  29,O  39)      0.3873         0.024467   
    366. D(O  40,C  30,C  29,C  28)   -179.9594         0.024467   
    367. D(C  31,C  30,C  29,O  39)   -178.8910         0.024467   
    368. D(C  31,C  30,C  29,C  28)      0.7623         0.024467   
    369. D(H  64,C  31,C  30,O  40)     -1.4133         0.028846   
    370. D(H  64,C  31,C  30,C  29)    177.8597         0.028846   
    371. D(C  32,C  31,C  30,O  40)    179.2094         0.028846   
    372. D(C  32,C  31,C  30,C  29)     -1.5177         0.028846   
    373. D(H  65,C  32,C  31,H  64)      1.7547         0.028266   
    374. D(H  65,C  32,C  31,C  30)   -178.8789         0.028266   
    375. D(C  25,C  32,C  31,H  64)   -178.7326         0.028266   
    376. D(C  25,C  32,C  31,C  30)      0.6338         0.028266   
    377. D(H  65,C  32,C  25,C  28)   -179.4902         0.027844   
    378. D(H  65,C  32,C  25,C  24)      0.7849         0.027844   
    379. D(C  31,C  32,C  25,C  28)      1.0058         0.027844   
    380. D(C  31,C  32,C  25,C  24)   -178.7191         0.027844   
    381. D(H  68,C  33,O  19,C   0)     64.0351         0.021897   
    382. D(H  67,C  33,O  19,C   0)    -58.4101         0.021897   
    383. D(H  66,C  33,O  19,C   0)   -176.6869         0.021897   
    384. D(H  71,C  34,O  18,C   2)     59.8370         0.021871   
    385. D(H  70,C  34,O  18,C   2)    -63.0728         0.021871   
    386. D(H  69,C  34,O  18,C   2)    178.3026         0.021871   
    387. D(H  74,C  35,O  22,C  12)    -63.5474         0.023670   
    388. D(H  73,C  35,O  22,C  12)    177.9620         0.023670   
    389. D(H  72,C  35,O  22,C  12)     59.1877         0.023670   
    390. D(H  75,O  36,C  24,H  59)    173.9508         0.021453   
    391. D(H  75,O  36,C  24,C  25)     54.2687         0.021453   
    392. D(H  75,O  36,C  24,C  23)    -70.3232         0.021453   
    393. D(H  76,O  37,C  16,H  54)     57.2066         0.021767   
    394. D(H  76,O  37,C  16,H  53)    174.8458         0.021767   
    395. D(H  76,O  37,C  16,C   7)    -64.1011         0.021767   
    396. D(H  77,O  38,C  17,H  56)    176.3583         0.022075   
    397. D(H  77,O  38,C  17,H  55)    -67.7799         0.022075   
    398. D(H  77,O  38,C  17,C   8)     54.1829         0.022075   
    399. D(C  41,O  39,C  29,C  30)    171.1288         0.028445   
    400. D(C  41,O  39,C  29,C  28)     -8.4999         0.028445   
    401. D(H  78,O  40,C  30,C  31)    178.0564         0.029659   
    402. D(H  78,O  40,C  30,C  29)     -1.2177         0.029659   
    403. D(H  81,C  41,O  39,C  29)     60.7069         0.023286   
    404. D(H  80,C  41,O  39,C  29)    -61.5875         0.023286   
    405. D(H  79,C  41,O  39,C  29)    179.3922         0.023286   
    -----------------------------------------------------------------

Number of atoms                         .... 82
Number of degrees of freedom            .... 405


         *************************************************************
         *                GEOMETRY OPTIMIZATION CYCLE   1            *
         *************************************************************
---------------------------------
CARTESIAN COORDINATES (ANGSTROEM)
---------------------------------
  C     21.476614  -32.126674   -1.614807
  C     21.029486  -32.414870   -2.915037
  C     19.655383  -32.558499   -3.145199
  C     18.765294  -32.449027   -2.082618
  C     19.212122  -32.179529   -0.801014
  C     20.570498  -32.015774   -0.573225
  C     18.258759  -32.095336    0.356549
  C     18.338800  -33.374136    1.202941
  C     17.802041  -33.219845    2.638486
  C     18.824480  -32.519558    3.549039
  C     20.187156  -33.157267    3.541568
  C     20.326643  -34.518840    3.803094
  C     21.575013  -35.110576    3.816895
  C     22.723925  -34.330642    3.600174
  C     22.584940  -32.981021    3.335637
  C     21.324683  -32.404726    3.298566
  C     17.635555  -34.532537    0.480171
  C     16.460423  -32.479458    2.739668
  O     19.259290  -32.805566   -4.435402
  O     22.824794  -31.968086   -1.481239
  O     21.991653  -32.417092   -3.895004
  O     23.958797  -34.900565    3.654218
  O     21.823949  -36.449671    4.031640
  C     22.033740  -33.454449   -4.863126
  C     22.716612  -34.741141   -4.323037
  C     22.189653  -35.108723   -2.958078
  C     22.864432  -32.882348   -6.021629
  O     24.098157  -32.396736   -5.567373
  C     23.020870  -34.992263   -1.849774
  C     22.546756  -35.283316   -0.584518
  C     21.222311  -35.716807   -0.423406
  C     20.407307  -35.864769   -1.529326
  C     20.888162  -35.555436   -2.790055
  C     23.314866  -31.549913   -0.230157
  C     17.882783  -32.907396   -4.710248
  C     20.722638  -37.306625    4.217460
  O     22.574166  -35.783025   -5.262163
  O     17.847076  -35.768096    1.121327
  O     15.395906  -33.115519    2.076728
  O     23.267604  -35.196397    0.581401
  O     20.750834  -36.004626    0.828340
  C     24.653423  -34.954105    0.488875
  H     17.706082  -32.558542   -2.248324
  H     20.907723  -31.810440    0.429606
  H     17.237618  -31.957002    0.001058
  H     18.531743  -31.239593    0.976029
  H     19.396067  -33.652377    1.289460
  H     17.641177  -34.238624    3.012023
  H     18.438751  -32.529481    4.573269
  H     18.917335  -31.474031    3.249329
  H     19.446670  -35.111024    3.991420
  H     23.473323  -32.392186    3.170908
  H     21.235357  -31.347679    3.095003
  H     16.555980  -34.373491    0.463136
  H     17.998046  -34.567337   -0.555655
  H     16.213369  -32.353962    3.806314
  H     16.528972  -31.485268    2.294327
  H     23.839175  -35.837814    3.860871
  H     21.029569  -33.704634   -5.219502
  H     23.793291  -34.551447   -4.266802
  H     22.289266  -32.080510   -6.507297
  H     23.074982  -33.669939   -6.747867
  H     23.913667  -31.878133   -4.772534
  H     24.034726  -34.657149   -1.993746
  H     19.402532  -36.231833   -1.395338
  H     20.228638  -35.660761   -3.639615
  H     24.390041  -31.430752   -0.359868
  H     22.882728  -30.589080    0.067544
  H     23.117958  -32.289939    0.552521
  H     17.812953  -33.071648   -5.784838
  H     17.427075  -33.752552   -4.184238
  H     17.351858  -31.986773   -4.451230
  H     20.053297  -37.288749    3.352400
  H     21.143705  -38.304282    4.330567
  H     20.163801  -37.045744    5.121076
  H     21.650308  -36.058276   -5.282578
  H     18.795655  -35.963132    1.071396
  H     15.334939  -34.022334    2.399634
  H     21.481248  -35.865671    1.449689
  H     25.007935  -34.914715    1.517543
  H     25.156871  -35.762262   -0.050210
  H     24.862425  -34.002550   -0.005084

----------------------------
CARTESIAN COORDINATES (A.U.)
----------------------------
  NO LB      ZA    FRAG     MASS         X           Y           Z
   0 C     6.0000    0    12.011   40.584920  -60.710616   -3.051543
   1 C     6.0000    0    12.011   39.739968  -61.255227   -5.508621
   2 C     6.0000    0    12.011   37.143290  -61.526646   -5.943564
   3 C     6.0000    0    12.011   35.461266  -61.319775   -3.935578
   4 C     6.0000    0    12.011   36.305648  -60.810497   -1.513697
   5 C     6.0000    0    12.011   38.872608  -60.501045   -1.083239
   6 C     6.0000    0    12.011   34.504055  -60.651394    0.673780
   7 C     6.0000    0    12.011   34.655310  -63.067976    2.273228
   8 C     6.0000    0    12.011   33.640982  -62.776410    4.986016
   9 C     6.0000    0    12.011   35.573113  -61.453059    6.706711
  10 C     6.0000    0    12.011   38.148196  -62.658154    6.692593
  11 C     6.0000    0    12.011   38.411789  -65.231154    7.186805
  12 C     6.0000    0    12.011   40.770867  -66.349373    7.212886
  13 C     6.0000    0    12.011   42.941995  -64.875511    6.803343
  14 C     6.0000    0    12.011   42.679352  -62.325097    6.303441
  15 C     6.0000    0    12.011   40.297811  -61.236057    6.233387
  16 C     6.0000    0    12.011   33.326368  -65.257038    0.907392
  17 C     6.0000    0    12.011   31.105692  -61.377280    5.177222
  18 O     8.0000    0    15.999   36.394784  -61.993535   -8.381696
  19 O     8.0000    0    15.999   43.132610  -60.410927   -2.799137
  20 O     8.0000    0    15.999   41.558202  -61.259427   -7.360492
  21 O     8.0000    0    15.999   45.275565  -65.952510    6.905472
  22 O     8.0000    0    15.999   41.241286  -68.879897    7.618695
  23 C     6.0000    0    12.011   41.637734  -63.219747   -9.189975
  24 C     6.0000    0    12.011   42.928176  -65.651242   -8.169355
  25 C     6.0000    0    12.011   41.932367  -66.345871   -5.589958
  26 C     6.0000    0    12.011   43.207514  -62.138633  -11.379229
  27 O     8.0000    0    15.999   45.538917  -61.220959  -10.520811
  28 C     6.0000    0    12.011   43.503139  -66.125793   -3.495567
  29 C     6.0000    0    12.011   42.607194  -66.675804   -1.104580
  30 C     6.0000    0    12.011   40.104355  -67.494984   -0.800121
  31 C     6.0000    0    12.011   38.564222  -67.774590   -2.890008
  32 C     6.0000    0    12.011   39.472906  -67.190036   -5.272440
  33 C     6.0000    0    12.011   44.058711  -59.620695   -0.434933
  34 C     6.0000    0    12.011   33.793562  -62.185966   -8.901078
  35 C     6.0000    0    12.011   39.160111  -70.499305    7.969844
  36 O     8.0000    0    15.999   42.658991  -67.620118   -9.944047
  37 O     8.0000    0    15.999   33.726087  -67.591905    2.119001
  38 O     8.0000    0    15.999   29.094045  -62.579262    3.924447
  39 O     8.0000    0    15.999   43.969399  -66.511551    1.098688
  40 O     8.0000    0    15.999   39.213393  -68.038883    1.565336
  41 C     6.0000    0    12.011   46.588218  -66.053686    0.923839
  42 H     1.0000    0     1.008   33.459647  -61.526728   -4.248716
  43 H     1.0000    0     1.008   39.509871  -60.113020    0.811837
  44 H     1.0000    0     1.008   32.574377  -60.389982    0.001999
  45 H     1.0000    0     1.008   35.019920  -59.034276    1.844428
  46 H     1.0000    0     1.008   36.653254  -63.593776    2.436727
  47 H     1.0000    0     1.008   33.336994  -64.701623    5.691899
  48 H     1.0000    0     1.008   34.844190  -61.471811    8.642226
  49 H     1.0000    0     1.008   35.748582  -59.477299    6.140343
  50 H     1.0000    0     1.008   36.748881  -66.350220    7.542690
  51 H     1.0000    0     1.008   44.358151  -61.212361    5.992147
  52 H     1.0000    0     1.008   40.129009  -59.238529    5.848709
  53 H     1.0000    0     1.008   31.286267  -64.956485    0.875201
  54 H     1.0000    0     1.008   34.011378  -65.322800   -1.050035
  55 H     1.0000    0     1.008   30.638826  -61.140127    7.192891
  56 H     1.0000    0     1.008   31.235230  -59.498533    4.335650
  57 H     1.0000    0     1.008   45.049513  -67.723654    7.295989
  58 H     1.0000    0     1.008   39.740126  -63.692528   -9.863429
  59 H     1.0000    0     1.008   44.962803  -65.292773   -8.063088
  60 H     1.0000    0     1.008   42.120608  -60.623378  -12.297009
  61 H     1.0000    0     1.008   43.605397  -63.626963  -12.751620
  62 H     1.0000    0     1.008   45.190281  -60.240942   -9.018783
  63 H     1.0000    0     1.008   45.419050  -65.492520   -3.767634
  64 H     1.0000    0     1.008   36.665472  -68.468242   -2.636807
  65 H     1.0000    0     1.008   38.226585  -67.389072   -6.877875
  66 H     1.0000    0     1.008   46.090498  -59.395514   -0.680053
  67 H     1.0000    0     1.008   43.242089  -57.804984    0.127639
  68 H     1.0000    0     1.008   43.686610  -61.019142    1.044114
  69 H     1.0000    0     1.008   33.661603  -62.496358  -10.931759
  70 H     1.0000    0     1.008   32.932400  -63.783080   -7.907063
  71 H     1.0000    0     1.008   32.790259  -60.446241   -8.411605
  72 H     1.0000    0     1.008   37.895239  -70.465523    6.335119
  73 H     1.0000    0     1.008   39.955812  -72.384603    8.183585
  74 H     1.0000    0     1.008   38.104061  -70.006311    9.677432
  75 H     1.0000    0     1.008   40.913153  -68.140266   -9.982625
  76 H     1.0000    0     1.008   35.518640  -67.960471    2.024645
  77 H     1.0000    0     1.008   28.978835  -64.292893    4.534650
  78 H     1.0000    0     1.008   40.593676  -67.776296    2.739516
  79 H     1.0000    0     1.008   47.258149  -65.979250    2.867740
  80 H     1.0000    0     1.008   47.539596  -67.580882   -0.094884
  81 H     1.0000    0     1.008   46.983175  -64.255507   -0.009606

--------------------------------
INTERNAL COORDINATES (ANGSTROEM)
--------------------------------
 C      0   0   0     0.000000000000     0.00000000     0.00000000
 C      1   0   0     1.404841039868     0.00000000     0.00000000
 C      2   1   0     1.400629324567   119.03717825     0.00000000
 C      3   2   1     1.390438871365   119.62837956   358.31750414
 C      4   3   2     1.383760679987   121.09183447     1.00371888
 C      1   2   3     1.385004725544   120.28091746     1.38537606
 C      5   4   3     1.501978738325   121.31551104   181.59983548
 C      7   5   4     1.535615603738   110.18304877   103.39810720
 C      8   7   5     1.540359449619   114.33638092   159.85333378
 C      9   8   7     1.537820134779   111.45363127   281.49085124
 C     10   9   8     1.504530973296   113.96763060   306.95321271
 C     11  10   9     1.393461067740   120.25773405   306.72416763
 C     12  11  10     1.381582400825   120.71886390   180.89993232
 C     13  12  11     1.405440435381   119.96236105     1.67369021
 C     14  13  12     1.382307392644   119.28366650   358.10124699
 C     11  10   9     1.385400919022   120.95059505   127.81632616
 C      8   7   5     1.535853083713   110.17284882   285.35611607
 C      9   8   7     1.535691954917   114.46400608    45.49272419
 O      3   2   1     1.372062978711   117.14252665   178.36915923
 O      1   2   3     1.364030300730   115.40788623   181.63177919
 O      2   1   3     1.373356638119   115.96168352   174.44737701
 O     14  13  12     1.361118086578   120.20975860   177.93783762
 O     13  12  11     1.378862165610   125.49526805   181.64937068
 C     21   2   1     1.419555940908   120.57003385   135.17274209
 C     24  21   2     1.553572034470   112.40620926   279.59177443
 C     25  24  21     1.508613308512   111.27248514    46.99196670
 C     24  21   2     1.536059177707   104.96460230   160.71100401
 O     27  24  21     1.401515515014   111.14003726    53.07970744
 C     26  25  24     1.390259417368   119.47398220   248.90007836
 C     29  26  25     1.382160896122   120.46657846   177.96485302
 C     30  29  26     1.402863849327   119.60714766     0.88528200
 C     31  30  29     1.381731895683   119.87034361     0.76230743
 C     32  31  30     1.384321394694   120.00752122   358.48229481
 C     20   1   2     1.407212448869   117.76309710   173.91462072
 C     19   3   2     1.407366600455   118.62155860   182.25778036
 C     23  13  12     1.407758354573   118.06684125     1.87743375
 O     25  24  21     1.409883929030   109.63722582   172.45871433
 O     17   8   7     1.407986642426   112.25861742   171.41144456
 O     18   9   8     1.406150930784   114.34472324    61.82232803
 O     30  29  26     1.373515430785   125.71183441   180.49729802
 O     31  30  29     1.368209731247   119.69637124   180.04059435
 C     40  30  29     1.409880360165   118.10120876   351.50005748
 H      4   3   2     1.077673543380   120.24349802   180.04585982
 H      6   1   2     1.077753655921   120.68448867   179.01902048
 H      7   5   4     1.090064070269   110.51057753   342.21715226
 H      7   5   4     1.091132942568   108.82715273   222.97443745
 H      8   7   5     1.096684288504   107.75898583    41.39238894
 H      9   8   7     1.096958173425   105.98727432   163.52792708
 H     10   9   8     1.094501483511   108.39993193   185.82562357
 H     10   9   8     1.091592594377   109.27760526    69.31433100
 H     12  11  10     1.077265667937   119.22051392     1.16789077
 H     15  14  13     1.078463982502   118.65210974   180.00120881
 H     16  11  10     1.080168501501   119.78330560   358.98385875
 H     17   8   7     1.091360623299   110.50995051   290.11518379
 H     17   8   7     1.097973793028   108.46329416    48.87433555
 H     18   9   8     1.102052009510   108.33169263   184.56461686
 H     18   9   8     1.091531875979   110.93935092   302.66958881
 H     22  14  13     0.967186970120   107.57964867   359.41401050
 H     24  21   2     1.094511623272   111.21662093    42.25161891
 H     25  24  21     1.094706357810   107.85770261   286.46377244
 H     27  24  21     1.099833391501   108.76978540   291.16109987
 H     27  24  21     1.091811540960   109.71205294   171.46522266
 H     28  27  24     0.966826759056   106.51948404   314.43242614
 H     29  26  25     1.077466818168   118.82405246   358.88873696
 H     32  31  30     1.078082509882   119.12513997   177.85965392
 H     33  32  31     1.080655969085   118.82868712   181.12106236
 H     34  20   1     1.089507327656   105.68394590   183.31306223
 H     34  20   1     1.094791233978   111.41329777   301.58989907
 H     34  20   1     1.094986864873   111.84022814    64.03509662
 H     35  19   3     1.089311209757   105.44187114   178.30257906
 H     35  19   3     1.094826434517   111.66245285   296.92719454
 H     35  19   3     1.093854607398   111.56693481    59.83703515
 H     36  23  13     1.093922403742   111.36746497    59.18774694
 H     36  23  13     1.088764848173   105.60233449   177.96201925
 H     36  23  13     1.094020599127   111.31403147   296.45257748
 H     37  25  24     0.964205577176   108.77586475   289.67684714
 H     38  17   8     0.969708065852   107.45802556   295.89893184
 H     39  18   9     0.964519625508   108.37866570    54.18293418
 H     41  31  30     0.968962648778   107.26204593   358.78225290
 H     42  40  30     1.088755435391   105.32342511   179.39217224
 H     42  40  30     1.094161698207   110.95724028   298.41251497
 H     42  40  30     1.092306753510   111.55908452    60.70689180

---------------------------
INTERNAL COORDINATES (A.U.)
---------------------------
 C      0   0   0     0.000000000000     0.00000000     0.00000000
 C      1   0   0     2.654764827044     0.00000000     0.00000000
 C      2   1   0     2.646805838571   119.03717825     0.00000000
 C      3   2   1     2.627548672838   119.62837956   358.31750414
 C      4   3   2     2.614928720064   121.09183447     1.00371888
 C      1   2   3     2.617279625465   120.28091746     1.38537606
 C      5   4   3     2.838328474407   121.31551104   181.59983548
 C      7   5   4     2.901892938041   110.18304877   103.39810720
 C      8   7   5     2.910857507579   114.33638092   159.85333378
 C      9   8   7     2.906058897961   111.45363127   281.49085124
 C     10   9   8     2.843151499532   113.96763060   306.95321271
 C     11  10   9     2.633259796310   120.25773405   306.72416763
 C     12  11  10     2.610812369004   120.71886390   180.89993232
 C     13  12  11     2.655897520409   119.96236105     1.67369021
 C     14  13  12     2.612182404991   119.28366650   358.10124699
 C     11  10   9     2.618028322635   120.95059505   127.81632616
 C      8   7   5     2.902341710156   110.17284882   285.35611607
 C      9   8   7     2.902037220859   114.46400608    45.49272419
 O      3   2   1     2.592823268256   117.14252665   178.36915923
 O      1   2   3     2.577643706751   115.40788623   181.63177919
 O      2   1   3     2.595267930249   115.96168352   174.44737701
 O     14  13  12     2.572140419560   120.20975860   177.93783762
 O     13  12  11     2.605671869428   125.49526805   181.64937068
 C     21   2   1     2.682571960098   120.57003385   135.17274209
 C     24  21   2     2.935825674467   112.40620926   279.59177443
 C     25  24  21     2.850865995076   111.27248514    46.99196670
 C     24  21   2     2.902731171362   104.96460230   160.71100401
 O     27  24  21     2.648480495818   111.14003726    53.07970744
 C     26  25  24     2.627209553930   119.47398220   248.90007836
 C     29  26  25     2.611905566687   120.46657846   177.96485302
 C     30  29  26     2.651028478407   119.60714766     0.88528200
 C     31  30  29     2.611094873345   119.87034361     0.76230743
 C     32  31  30     2.615988317300   120.00752122   358.48229481
 C     20   1   2     2.659246140607   117.76309710   173.91462072
 C     19   3   2     2.659537444887   118.62155860   182.25778036
 C     23  13  12     2.660277752882   118.06684125     1.87743375
 O     25  24  21     2.664294506485   109.63722582   172.45871433
 O     17   8   7     2.660709154405   112.25861742   171.41144456
 O     18   9   8     2.657240162141   114.34472324    61.82232803
 O     30  29  26     2.595568004899   125.71183441   180.49729802
 O     31  30  29     2.585541685823   119.69637124   180.04059435
 C     40  30  29     2.664287762307   118.10120876   351.50005748
 H      4   3   2     2.036507858761   120.24349802   180.04585982
 H      6   1   2     2.036659249524   120.68448867   179.01902048
 H      7   5   4     2.059922561237   110.51057753   342.21715226
 H      7   5   4     2.061942437153   108.82715273   222.97443745
 H      8   7   5     2.072432960648   107.75898583    41.39238894
 H      9   8   7     2.072950528140   105.98727432   163.52792708
 H     10   9   8     2.068308057006   108.39993193   185.82562357
 H     10   9   8     2.062811053189   109.27760526    69.31433100
 H     12  11  10     2.035737085877   119.22051392     1.16789077
 H     15  14  13     2.038001572228   118.65210974   180.00120881
 H     16  11  10     2.041222646325   119.78330560   358.98385875
 H     17   8   7     2.062372691380   110.50995051   290.11518379
 H     17   8   7     2.074869771045   108.46329416    48.87433555
 H     18   9   8     2.082576483311   108.33169263   184.56461686
 H     18   9   8     2.062696312045   110.93935092   302.66958881
 H     22  14  13     1.827718493823   107.57964867   359.41401050
 H     24  21   2     2.068327218378   111.21662093    42.25161891
 H     25  24  21     2.068695213323   107.85770261   286.46377244
 H     27  24  21     2.078383902879   108.76978540   291.16109987
 H     27  24  21     2.063224802269   109.71205294   171.46522266
 H     28  27  24     1.827037793563   106.51948404   314.43242614
 H     29  26  25     2.036117204726   118.82405246   358.88873696
 H     32  31  30     2.037280693448   119.12513997   177.85965392
 H     33  32  31     2.042143826558   118.82868712   181.12106236
 H     34  20   1     2.058870470171   105.68394590   183.31306223
 H     34  20   1     2.068855606036   111.41329777   301.58989907
 H     34  20   1     2.069225294850   111.84022814    64.03509662
 H     35  19   3     2.058499861051   105.44187114   178.30257906
 H     35  19   3     2.068922125415   111.66245285   296.92719454
 H     35  19   3     2.067085638311   111.56693481    59.83703515
 H     36  23  13     2.067213754833   111.36746497    59.18774694
 H     36  23  13     2.057467387287   105.60233449   177.96201925
 H     36  23  13     2.067399317218   111.31403147   296.45257748
 H     37  25  24     1.822084477662   108.77586475   289.67684714
 H     38  17   8     1.832482674315   107.45802556   295.89893184
 H     39  18   9     1.822677943003   108.37866570    54.18293418
 H     41  31  30     1.831074040189   107.26204593   358.78225290
 H     42  40  30     2.057449599707   105.32342511   179.39217224
 H     42  40  30     2.067665955838   110.95724028   298.41251497
 H     42  40  30     2.064160618367   111.55908452    60.70689180

---------------------
BASIS SET INFORMATION
---------------------
There are 3 groups of distinct atoms

 Group   1 Type C   : 11s6p2d1f contracted to 5s3p2d1f pattern {62111/411/11/1}
 Group   2 Type O   : 11s6p2d1f contracted to 5s3p2d1f pattern {62111/411/11/1}
 Group   3 Type H   : 5s1p contracted to 3s1p pattern {311/1}

Atom   0C    basis set group =>   1
Atom   1C    basis set group =>   1
Atom   2C    basis set group =>   1
Atom   3C    basis set group =>   1
Atom   4C    basis set group =>   1
Atom   5C    basis set group =>   1
Atom   6C    basis set group =>   1
Atom   7C    basis set group =>   1
Atom   8C    basis set group =>   1
Atom   9C    basis set group =>   1
Atom  10C    basis set group =>   1
Atom  11C    basis set group =>   1
Atom  12C    basis set group =>   1
Atom  13C    basis set group =>   1
Atom  14C    basis set group =>   1
Atom  15C    basis set group =>   1
Atom  16C    basis set group =>   1
Atom  17C    basis set group =>   1
Atom  18O    basis set group =>   2
Atom  19O    basis set group =>   2
Atom  20O    basis set group =>   2
Atom  21O    basis set group =>   2
Atom  22O    basis set group =>   2
Atom  23C    basis set group =>   1
Atom  24C    basis set group =>   1
Atom  25C    basis set group =>   1
Atom  26C    basis set group =>   1
Atom  27O    basis set group =>   2
Atom  28C    basis set group =>   1
Atom  29C    basis set group =>   1
Atom  30C    basis set group =>   1
Atom  31C    basis set group =>   1
Atom  32C    basis set group =>   1
Atom  33C    basis set group =>   1
Atom  34C    basis set group =>   1
Atom  35C    basis set group =>   1
Atom  36O    basis set group =>   2
Atom  37O    basis set group =>   2
Atom  38O    basis set group =>   2
Atom  39O    basis set group =>   2
Atom  40O    basis set group =>   2
Atom  41C    basis set group =>   1
Atom  42H    basis set group =>   3
Atom  43H    basis set group =>   3
Atom  44H    basis set group =>   3
Atom  45H    basis set group =>   3
Atom  46H    basis set group =>   3
Atom  47H    basis set group =>   3
Atom  48H    basis set group =>   3
Atom  49H    basis set group =>   3
Atom  50H    basis set group =>   3
Atom  51H    basis set group =>   3
Atom  52H    basis set group =>   3
Atom  53H    basis set group =>   3
Atom  54H    basis set group =>   3
Atom  55H    basis set group =>   3
Atom  56H    basis set group =>   3
Atom  57H    basis set group =>   3
Atom  58H    basis set group =>   3
Atom  59H    basis set group =>   3
Atom  60H    basis set group =>   3
Atom  61H    basis set group =>   3
Atom  62H    basis set group =>   3
Atom  63H    basis set group =>   3
Atom  64H    basis set group =>   3
Atom  65H    basis set group =>   3
Atom  66H    basis set group =>   3
Atom  67H    basis set group =>   3
Atom  68H    basis set group =>   3
Atom  69H    basis set group =>   3
Atom  70H    basis set group =>   3
Atom  71H    basis set group =>   3
Atom  72H    basis set group =>   3
Atom  73H    basis set group =>   3
Atom  74H    basis set group =>   3
Atom  75H    basis set group =>   3
Atom  76H    basis set group =>   3
Atom  77H    basis set group =>   3
Atom  78H    basis set group =>   3
Atom  79H    basis set group =>   3
Atom  80H    basis set group =>   3
Atom  81H    basis set group =>   3
---------------------------------
AUXILIARY/J BASIS SET INFORMATION
---------------------------------
There are 3 groups of distinct atoms

 Group   1 Type C   : 12s5p4d2f1g contracted to 6s4p3d1f1g pattern {711111/2111/211/2/1}
 Group   2 Type O   : 12s5p4d2f1g contracted to 6s4p3d1f1g pattern {711111/2111/211/2/1}
 Group   3 Type H   : 5s2p1d contracted to 3s1p1d pattern {311/2/1}

Atom   0C    basis set group =>   1
Atom   1C    basis set group =>   1
Atom   2C    basis set group =>   1
Atom   3C    basis set group =>   1
Atom   4C    basis set group =>   1
Atom   5C    basis set group =>   1
Atom   6C    basis set group =>   1
Atom   7C    basis set group =>   1
Atom   8C    basis set group =>   1
Atom   9C    basis set group =>   1
Atom  10C    basis set group =>   1
Atom  11C    basis set group =>   1
Atom  12C    basis set group =>   1
Atom  13C    basis set group =>   1
Atom  14C    basis set group =>   1
Atom  15C    basis set group =>   1
Atom  16C    basis set group =>   1
Atom  17C    basis set group =>   1
Atom  18O    basis set group =>   2
Atom  19O    basis set group =>   2
Atom  20O    basis set group =>   2
Atom  21O    basis set group =>   2
Atom  22O    basis set group =>   2
Atom  23C    basis set group =>   1
Atom  24C    basis set group =>   1
Atom  25C    basis set group =>   1
Atom  26C    basis set group =>   1
Atom  27O    basis set group =>   2
Atom  28C    basis set group =>   1
Atom  29C    basis set group =>   1
Atom  30C    basis set group =>   1
Atom  31C    basis set group =>   1
Atom  32C    basis set group =>   1
Atom  33C    basis set group =>   1
Atom  34C    basis set group =>   1
Atom  35C    basis set group =>   1
Atom  36O    basis set group =>   2
Atom  37O    basis set group =>   2
Atom  38O    basis set group =>   2
Atom  39O    basis set group =>   2
Atom  40O    basis set group =>   2
Atom  41C    basis set group =>   1
Atom  42H    basis set group =>   3
Atom  43H    basis set group =>   3
Atom  44H    basis set group =>   3
Atom  45H    basis set group =>   3
Atom  46H    basis set group =>   3
Atom  47H    basis set group =>   3
Atom  48H    basis set group =>   3
Atom  49H    basis set group =>   3
Atom  50H    basis set group =>   3
Atom  51H    basis set group =>   3
Atom  52H    basis set group =>   3
Atom  53H    basis set group =>   3
Atom  54H    basis set group =>   3
Atom  55H    basis set group =>   3
Atom  56H    basis set group =>   3
Atom  57H    basis set group =>   3
Atom  58H    basis set group =>   3
Atom  59H    basis set group =>   3
Atom  60H    basis set group =>   3
Atom  61H    basis set group =>   3
Atom  62H    basis set group =>   3
Atom  63H    basis set group =>   3
Atom  64H    basis set group =>   3
Atom  65H    basis set group =>   3
Atom  66H    basis set group =>   3
Atom  67H    basis set group =>   3
Atom  68H    basis set group =>   3
Atom  69H    basis set group =>   3
Atom  70H    basis set group =>   3
Atom  71H    basis set group =>   3
Atom  72H    basis set group =>   3
Atom  73H    basis set group =>   3
Atom  74H    basis set group =>   3
Atom  75H    basis set group =>   3
Atom  76H    basis set group =>   3
Atom  77H    basis set group =>   3
Atom  78H    basis set group =>   3
Atom  79H    basis set group =>   3
Atom  80H    basis set group =>   3
Atom  81H    basis set group =>   3
--------------------------------------------------------------------------
WARNING: There was an error initializing an OpenFabrics device.

  Local host:   c03b01n03
  Local device: mlx5_0
--------------------------------------------------------------------------
--------------------------------------------------------------------------
WARNING: There is at least one non-excluded one OpenFabrics device found,
but there are no active ports detected (or Open MPI was unable to use
them).  This is most certainly not what you wanted.  Check your
cables, subnet manager configuration, etc.  The openib BTL will be
ignored for this job.

  Local host: c03b01n03
--------------------------------------------------------------------------


           ************************************************************
           *        Program running with 64 parallel MPI-processes    *
           *              working on a common directory               *
           ************************************************************
------------------------------------------------------------------------------
                             ORCA STARTUP CALCULATIONS
                           -- RI-GTO INTEGRALS CHOSEN --
------------------------------------------------------------------------------
------------------------------------------------------------------------------
                   ___                                                        
                  /   \      - P O W E R E D   B Y -                         
                 /     \                                                     
                 |  |  |   _    _      __       _____    __    __             
                 |  |  |  | |  | |    /  \     |  _  \  |  |  /  |          
                  \  \/   | |  | |   /    \    | | | |  |  | /  /          
                 / \  \   | |__| |  /  /\  \   | |_| |  |  |/  /          
                |  |  |   |  __  | /  /__\  \  |    /   |      \           
                |  |  |   | |  | | |   __   |  |    \   |  |\   \          
                \     /   | |  | | |  |  |  |  | |\  \  |  | \   \       
                 \___/    |_|  |_| |__|  |__|  |_| \__\ |__|  \__/        
                                                                              
                      - O R C A' S   B I G   F R I E N D -                    
                                      &                                       
                       - I N T E G R A L  F E E D E R -                       
                                                                              
 v1 FN, 2020, v2 2021, v3 2022-2024                                           
------------------------------------------------------------------------------


[c03b01n03:3282870] 58 more processes have sent help message help-mpi-btl-openib.txt / error in device init
[c03b01n03:3282870] Set MCA parameter "orte_base_help_aggregate" to 0 to see all help / error messages
[c03b01n03:3282870] 4 more processes have sent help message help-mpi-btl-openib.txt / no active ports found
----------------------
SHARK INTEGRAL PACKAGE
----------------------

Number of atoms                             ...     82
Number of basis functions                   ...   1542
Number of shells                            ...    622
Maximum angular momentum                    ...      3
Integral batch strategy                     ... SHARK/LIBINT Hybrid
RI-J (if used) integral strategy            ... SPLIT-RIJ (Revised 2003 algorithm where possible)
Printlevel                                  ...      1
Contraction scheme used                     ... SEGMENTED contraction
Prescreening option                         ... SCHWARTZ
   Thresh                                   ... 2.500e-11
   Tcut                                     ... 2.500e-12
   Tpresel                                  ... 2.500e-12 
Coulomb Range Separation                    ... NOT USED
Exchange Range Separation                   ... NOT USED
Multipole approximations                    ... NOT USED
Finite Nucleus Model                        ... NOT USED
CABS basis                                  ... NOT available
Auxiliary Coulomb fitting basis             ... AVAILABLE
   # of basis functions in Aux-J            ...   2498
   # of shells in Aux-J                     ...    830
   Maximum angular momentum in Aux-J        ...      4
Auxiliary J/K fitting basis                 ... NOT available
Auxiliary Correlation fitting basis         ... NOT available
Auxiliary 'external' fitting basis          ... NOT available

Checking pre-screening integrals            ... done (  0.0 sec) Dimension = 622
   => SHARK Basis and OBASIS are compatible. Storing Pre-screening
Shell pair information
Shell pair cut-off parameter TPreSel        ...   2.5e-12
Total number of shell pairs                 ...    193753
Shell pairs after pre-screening             ...    116428
Total number of primitive shell pairs       ...    584784
Primitive shell pairs kept                  ...    219604
          la=0 lb=0:  32344 shell pairs
          la=1 lb=0:  34736 shell pairs
          la=1 lb=1:   9421 shell pairs
          la=2 lb=0:  15790 shell pairs
          la=2 lb=1:   8694 shell pairs
          la=2 lb=2:   2002 shell pairs
          la=3 lb=0:   7210 shell pairs
          la=3 lb=1:   4037 shell pairs
          la=3 lb=2:   1769 shell pairs
          la=3 lb=3:    425 shell pairs

Checking whether 4 symmetric matrices of dimension 1542 fit in memory
:Max Core in MB      =   6000.00
 MB in use           =    139.53
 MB left             =   5860.47
 MB needed           =     36.31
 Data fit in memory  = YES
Calculating RI/J V-Matrix + Cholesky decomp.... done (  2.3 sec)
Calculating Nuclear repulsion               ... done (  0.1 sec) ENN=   5772.845712965742 Eh

Diagonalization of the overlap matrix:
Smallest eigenvalue                        ... 3.136e-06
Time for diagonalization                   ...    1.812 sec
Threshold for overlap eigenvalues          ... 1.000e-07
Number of eigenvalues below threshold      ... 0
Time for construction of square roots      ...    0.646 sec
Total time needed                          ...    2.535 sec

-------------------
DFT GRID GENERATION
-------------------

General Integration Accuracy     IntAcc      ... 4.388
Radial Grid Type                 RadialGrid  ... OptM3 with GC (2021)
Angular Grid (max. ang.)         AngularGrid ... 4 (Lebedev-302)
Angular grid pruning method      GridPruning ... 4 (adaptive)
Weight generation scheme         WeightScheme... mBecke (2022)
Basis function cutoff            BFCut       ... 1.0000e-11
Integration weight cutoff        WCut        ... 1.0000e-14
Partially contracted basis set               ... off
Rotationally invariant grid construction     ... off
Angular grids for H and He will be reduced by one unit

Total number of grid points                  ...   373432
Total number of batches                      ...     5876
Average number of points per batch           ...       63
Average number of grid points per atom       ...     4554

--------------------
COSX GRID GENERATION
--------------------

GRIDX 1
-------
General Integration Accuracy     IntAcc      ... 3.816
Radial Grid Type                 RadialGrid  ... OptM3 with GC (2021)
Angular Grid (max. ang.)         AngularGrid ... 1 (Lebedev-50)
Angular grid pruning method      GridPruning ... 4 (adaptive)
Weight generation scheme         WeightScheme... mBecke (2022)
Basis function cutoff            BFCut       ... 1.0000e-11
Integration weight cutoff        WCut        ... 1.0000e-14
Partially contracted basis set               ... on
Rotationally invariant grid construction     ... off
Angular grids for H and He will be reduced by one unit

Total number of grid points                  ...    47279
Total number of batches                      ...      414
Average number of points per batch           ...      114
Average number of grid points per atom       ...      577
UseSFitting                                  ... on

GRIDX 2
-------
General Integration Accuracy     IntAcc      ... 4.020
Radial Grid Type                 RadialGrid  ... OptM3 with GC (2021)
Angular Grid (max. ang.)         AngularGrid ... 2 (Lebedev-110)
Angular grid pruning method      GridPruning ... 4 (adaptive)
Weight generation scheme         WeightScheme... mBecke (2022)
Basis function cutoff            BFCut       ... 1.0000e-11
Integration weight cutoff        WCut        ... 1.0000e-14
Partially contracted basis set               ... on
Rotationally invariant grid construction     ... off
[...]
freq.     642.13  E(vib)   ...       0.09 
freq.     655.87  E(vib)   ...       0.08 
freq.     661.73  E(vib)   ...       0.08 
freq.     666.38  E(vib)   ...       0.08 
freq.     688.84  E(vib)   ...       0.07 
freq.     736.18  E(vib)   ...       0.06 
freq.     745.52  E(vib)   ...       0.06 
freq.     750.78  E(vib)   ...       0.06 
freq.     756.93  E(vib)   ...       0.06 
freq.     781.16  E(vib)   ...       0.05 
freq.     784.36  E(vib)   ...       0.05 
freq.     801.73  E(vib)   ...       0.05 
freq.     812.96  E(vib)   ...       0.05 
freq.     831.40  E(vib)   ...       0.04 
freq.     834.81  E(vib)   ...       0.04 
freq.     843.71  E(vib)   ...       0.04 
freq.     846.49  E(vib)   ...       0.04 
freq.     854.24  E(vib)   ...       0.04 
freq.     873.11  E(vib)   ...       0.04 
freq.     876.98  E(vib)   ...       0.04 
freq.     887.25  E(vib)   ...       0.04 
freq.     909.32  E(vib)   ...       0.03 
freq.     914.69  E(vib)   ...       0.03 
freq.     916.26  E(vib)   ...       0.03 
freq.     932.53  E(vib)   ...       0.03 
freq.     942.68  E(vib)   ...       0.03 
freq.     948.84  E(vib)   ...       0.03 
freq.     955.60  E(vib)   ...       0.03 
freq.     966.50  E(vib)   ...       0.03 
freq.     972.18  E(vib)   ...       0.03 
freq.     981.86  E(vib)   ...       0.02 
freq.    1002.10  E(vib)   ...       0.02 
freq.    1005.52  E(vib)   ...       0.02 
freq.    1022.82  E(vib)   ...       0.02 
freq.    1027.52  E(vib)   ...       0.02 
freq.    1033.26  E(vib)   ...       0.02 
freq.    1046.76  E(vib)   ...       0.02 
freq.    1047.65  E(vib)   ...       0.02 
freq.    1057.84  E(vib)   ...       0.02 
freq.    1061.13  E(vib)   ...       0.02 
freq.    1085.08  E(vib)   ...       0.02 
freq.    1086.92  E(vib)   ...       0.02 
freq.    1092.93  E(vib)   ...       0.02 
freq.    1104.33  E(vib)   ...       0.02 
freq.    1139.08  E(vib)   ...       0.01 
freq.    1141.42  E(vib)   ...       0.01 
freq.    1148.35  E(vib)   ...       0.01 
freq.    1149.24  E(vib)   ...       0.01 
freq.    1169.97  E(vib)   ...       0.01 
freq.    1170.49  E(vib)   ...       0.01 
freq.    1170.61  E(vib)   ...       0.01 
freq.    1172.75  E(vib)   ...       0.01 
freq.    1173.46  E(vib)   ...       0.01 
freq.    1176.17  E(vib)   ...       0.01 
freq.    1180.46  E(vib)   ...       0.01 
freq.    1182.25  E(vib)   ...       0.01 
freq.    1195.17  E(vib)   ...       0.01 
freq.    1203.53  E(vib)   ...       0.01 
freq.    1206.87  E(vib)   ...       0.01 
freq.    1207.52  E(vib)   ...       0.01 
freq.    1212.75  E(vib)   ...       0.01 
freq.    1221.82  E(vib)   ...       0.01 
freq.    1222.09  E(vib)   ...       0.01 
freq.    1227.03  E(vib)   ...       0.01 
freq.    1233.47  E(vib)   ...       0.01 
freq.    1237.40  E(vib)   ...       0.01 
freq.    1246.40  E(vib)   ...       0.01 
freq.    1248.16  E(vib)   ...       0.01 
freq.    1252.36  E(vib)   ...       0.01 
freq.    1260.80  E(vib)   ...       0.01 
freq.    1274.40  E(vib)   ...       0.01 
freq.    1275.42  E(vib)   ...       0.01 
freq.    1288.85  E(vib)   ...       0.01 
freq.    1303.02  E(vib)   ...       0.01 
freq.    1310.87  E(vib)   ...       0.01 
freq.    1311.73  E(vib)   ...       0.01 
freq.    1321.72  E(vib)   ...       0.01 
freq.    1334.51  E(vib)   ...       0.01 
freq.    1341.95  E(vib)   ...       0.01 
freq.    1344.38  E(vib)   ...       0.01 
freq.    1349.55  E(vib)   ...       0.01 
freq.    1361.68  E(vib)   ...       0.01 
freq.    1366.69  E(vib)   ...       0.01 
freq.    1368.89  E(vib)   ...       0.01 
freq.    1378.96  E(vib)   ...       0.01 
freq.    1394.41  E(vib)   ...       0.00 
freq.    1397.09  E(vib)   ...       0.00 
freq.    1399.39  E(vib)   ...       0.00 
freq.    1401.73  E(vib)   ...       0.00 
freq.    1402.64  E(vib)   ...       0.00 
freq.    1409.22  E(vib)   ...       0.00 
freq.    1411.68  E(vib)   ...       0.00 
freq.    1415.09  E(vib)   ...       0.00 
freq.    1418.99  E(vib)   ...       0.00 
freq.    1427.41  E(vib)   ...       0.00 
freq.    1452.08  E(vib)   ...       0.00 
freq.    1460.05  E(vib)   ...       0.00 
freq.    1465.88  E(vib)   ...       0.00 
freq.    1477.11  E(vib)   ...       0.00 
freq.    1477.73  E(vib)   ...       0.00 
freq.    1479.29  E(vib)   ...       0.00 
freq.    1479.55  E(vib)   ...       0.00 
freq.    1480.65  E(vib)   ...       0.00 
freq.    1481.23  E(vib)   ...       0.00 
freq.    1482.07  E(vib)   ...       0.00 
freq.    1483.64  E(vib)   ...       0.00 
freq.    1486.11  E(vib)   ...       0.00 
freq.    1486.36  E(vib)   ...       0.00 
freq.    1491.27  E(vib)   ...       0.00 
freq.    1492.10  E(vib)   ...       0.00 
freq.    1492.24  E(vib)   ...       0.00 
freq.    1495.79  E(vib)   ...       0.00 
freq.    1498.34  E(vib)   ...       0.00 
freq.    1501.30  E(vib)   ...       0.00 
freq.    1508.14  E(vib)   ...       0.00 
freq.    1534.90  E(vib)   ...       0.00 
freq.    1542.62  E(vib)   ...       0.00 
freq.    1547.64  E(vib)   ...       0.00 
freq.    1626.15  E(vib)   ...       0.00 
freq.    1634.20  E(vib)   ...       0.00 
freq.    1643.18  E(vib)   ...       0.00 
freq.    1644.26  E(vib)   ...       0.00 
freq.    1649.65  E(vib)   ...       0.00 
freq.    1651.80  E(vib)   ...       0.00 
freq.    2994.70  E(vib)   ...       0.00 
freq.    3010.38  E(vib)   ...       0.00 
freq.    3017.83  E(vib)   ...       0.00 
freq.    3019.40  E(vib)   ...       0.00 
freq.    3019.95  E(vib)   ...       0.00 
freq.    3020.83  E(vib)   ...       0.00 
freq.    3022.16  E(vib)   ...       0.00 
freq.    3023.78  E(vib)   ...       0.00 
freq.    3028.08  E(vib)   ...       0.00 
freq.    3028.60  E(vib)   ...       0.00 
freq.    3034.55  E(vib)   ...       0.00 
freq.    3052.62  E(vib)   ...       0.00 
freq.    3070.56  E(vib)   ...       0.00 
freq.    3075.55  E(vib)   ...       0.00 
freq.    3076.48  E(vib)   ...       0.00 
freq.    3080.96  E(vib)   ...       0.00 
freq.    3087.21  E(vib)   ...       0.00 
freq.    3087.39  E(vib)   ...       0.00 
freq.    3091.24  E(vib)   ...       0.00 
freq.    3091.47  E(vib)   ...       0.00 
freq.    3104.16  E(vib)   ...       0.00 
freq.    3120.58  E(vib)   ...       0.00 
freq.    3136.81  E(vib)   ...       0.00 
freq.    3136.85  E(vib)   ...       0.00 
freq.    3144.20  E(vib)   ...       0.00 
freq.    3165.63  E(vib)   ...       0.00 
freq.    3170.25  E(vib)   ...       0.00 
freq.    3179.39  E(vib)   ...       0.00 
freq.    3187.18  E(vib)   ...       0.00 
freq.    3196.40  E(vib)   ...       0.00 
freq.    3207.58  E(vib)   ...       0.00 
freq.    3208.09  E(vib)   ...       0.00 
freq.    3209.66  E(vib)   ...       0.00 
freq.    3211.49  E(vib)   ...       0.00 
freq.    3651.14  E(vib)   ...       0.00 
freq.    3711.13  E(vib)   ...       0.00 
freq.    3726.17  E(vib)   ...       0.00 
freq.    3760.14  E(vib)   ...       0.00 
freq.    3764.19  E(vib)   ...       0.00 
freq.    3769.19  E(vib)   ...       0.00 

------------
INNER ENERGY
------------

The inner energy is: U= E(el) + E(ZPE) + E(vib) + E(rot) + E(trans)
    E(el)   - is the total energy from the electronic structure calculation
              = E(kin-el) + E(nuc-el) + E(el-el) + E(nuc-nuc)
    E(ZPE)  - the the zero temperature vibrational energy from the frequency calculation
    E(vib)  - the the finite temperature correction to E(ZPE) due to population
              of excited vibrational states
    E(rot)  - is the rotational thermal energy
    E(trans)- is the translational thermal energy

Summary of contributions to the inner energy U:
Electronic energy                ...  -2032.63446988 Eh
Zero point energy                ...      0.67871292 Eh     425.90 kcal/mol
Thermal vibrational correction   ...      0.04064926 Eh      25.51 kcal/mol
Thermal rotational correction    ...      0.00141627 Eh       0.89 kcal/mol
Thermal translational correction ...      0.00141627 Eh       0.89 kcal/mol
-----------------------------------------------------------------------
Total thermal energy                  -2031.91227516 Eh


Summary of corrections to the electronic energy:
(perhaps to be used in another calculation)
Total thermal correction                  0.04348180 Eh      27.29 kcal/mol
Non-thermal (ZPE) correction              0.67871292 Eh     425.90 kcal/mol
-----------------------------------------------------------------------
Total correction                          0.72219472 Eh     453.18 kcal/mol


--------
ENTHALPY
--------

The enthalpy is H = U + kB*T
                kB is Boltzmann's constant
Total thermal energy              ...  -2031.91227516 Eh 
Thermal Enthalpy correction       ...      0.00094421 Eh       0.59 kcal/mol
-----------------------------------------------------------------------
Total Enthalpy                    ...  -2031.91133095 Eh


Note: Only C1 symmetry has been detected, increase convergence thresholds 
      if your molecule has a higher symmetry. Symmetry factor of 1.0 is   
      used for the rotational entropy correction. 
 

Note: Rotational entropy computed according to Herzberg 
Infrared and Raman Spectra, Chapter V,1, Van Nostrand Reinhold, 1945 
Point Group:  C1, Symmetry Number:   1  
Rotational constants in cm-1:     0.003951     0.002253     0.001792 

Vibrational entropy computed according to the QRRHO of S. Grimme
Chem.Eur.J. 2012 18 9955 using a reference frequency of 100.0 cm-1


-------
ENTROPY
-------

The entropy contributions are T*S = T*(S(el)+S(vib)+S(rot)+S(trans))
     S(el)   - electronic entropy
     S(vib)  - vibrational entropy
     S(rot)  - rotational entropy
     S(trans)- translational entropy
The entropies will be listed as multiplied by the temperature to get
units of energy

Electronic entropy                ...      0.00000000 Eh      0.00 kcal/mol
Vibrational entropy               ...      0.07311615 Eh     45.88 kcal/mol
Rotational entropy                ...      0.01798649 Eh     11.29 kcal/mol
Translational entropy             ...      0.02138181 Eh     13.42 kcal/mol
-----------------------------------------------------------------------
Final entropy term                ...      0.11248446 Eh     70.58 kcal/mol

In case the symmetry of your molecule has not been determined correctly
or in case you have a reason to use a different symmetry number we print 
out the resulting rotational entropy values for sn=1,12:

 non-linear molecules -----------------------------------
|  sn= 1 | S(rot)=       0.01798649 Eh     11.29 kcal/mol|
|  sn= 2 | S(rot)=       0.01733204 Eh     10.88 kcal/mol|
|  sn= 3 | S(rot)=       0.01694921 Eh     10.64 kcal/mol|
|  sn= 4 | S(rot)=       0.01667758 Eh     10.47 kcal/mol|
|  sn= 5 | S(rot)=       0.01646689 Eh     10.33 kcal/mol|
|  sn= 6 | S(rot)=       0.01629475 Eh     10.23 kcal/mol|
|  sn= 7 | S(rot)=       0.01614920 Eh     10.13 kcal/mol|
|  sn= 8 | S(rot)=       0.01602313 Eh     10.05 kcal/mol|
|  sn= 9 | S(rot)=       0.01591192 Eh      9.98 kcal/mol|
|  sn=10 | S(rot)=       0.01581244 Eh      9.92 kcal/mol|
|  sn=11 | S(rot)=       0.01572245 Eh      9.87 kcal/mol|
|  sn=12 | S(rot)=       0.01564029 Eh      9.81 kcal/mol|
 linear molecules ---------------------------------------
|  Dinfh | S(rot)=       0.01129731 Eh      7.09 kcal/mol|
|  Cinfv | S(rot)=       0.01195177 Eh      7.50 kcal/mol|
 --------------------------------------------------------


-------------------
GIBBS FREE ENERGY
-------------------

The Gibbs free energy is G = H - T*S

Total enthalpy                    ...  -2031.91133095 Eh 
Total entropy correction          ...     -0.11248446 Eh    -70.58 kcal/mol
-----------------------------------------------------------------------
Final Gibbs free energy         ...  -2032.02381541 Eh

For completeness - the Gibbs free energy minus the electronic energy
G-E(el)                           ...      0.61065448 Eh    383.19 kcal/mol


Maximum memory used throughout the entire PROP-calculation: 1821.3 MB
--------------------------------------------------------------------------
WARNING: There was an error initializing an OpenFabrics device.

  Local host:   c03b01n03
  Local device: mlx5_0
--------------------------------------------------------------------------
--------------------------------------------------------------------------
WARNING: There is at least one non-excluded one OpenFabrics device found,
but there are no active ports detected (or Open MPI was unable to use
them).  This is most certainly not what you wanted.  Check your
cables, subnet manager configuration, etc.  The openib BTL will be
ignored for this job.

  Local host: c03b01n03
--------------------------------------------------------------------------
[c03b01n03:3408332] 59 more processes have sent help message help-mpi-btl-openib.txt / error in device init
[c03b01n03:3408332] Set MCA parameter "orte_base_help_aggregate" to 0 to see all help / error messages
[c03b01n03:3408332] 3 more processes have sent help message help-mpi-btl-openib.txt / no active ports found

--------------------------------
SUGGESTED CITATIONS FOR THIS RUN
--------------------------------

Below you find a list of papers that are relevant to this ORCA run
We neither can nor want to force you to cite these papers, but we appreciate if you do
You receive ORCA, which is the product of decades of hard work by many enthusiastic individuals, for free
The only thing we kindly ask in return is that you cite our papers,
We deeply appreciate it, if you show your appreciation for ORCA by not just citing the generic ORCA reference.

Please note that relegating all ORCA citations to the supporting information does *not* help us.
SI sections are not indexed - citations you put there will not count into any citation statistics
But we need these citations in order to attract the funding resources that allow us to do what we are doing

Therefore, if you are a happy ORCA user, please consider citing a few of the papers listed below in the main body of your paper

In addition to the list printed below, the program has created the file opt-conf-9.bibtex that contains the list in bibtex format
You can import this file easily into all common literature databanks and citation aid programs


List of essential papers. We consider these as the minimum necessary citations

  1. Neese, F.
     Software update: the ORCA program system, version 6.0
     WIRES Comput. Molec. Sci. 2025 15(1), e70019
     doi.org/10.1002/wcms.7019

List of papers to cite with high priority. The work reported in these papers was absolutely
necessary for this run to complete.
Our perspective: the developers of density functionals and basis sets usually get cited in chemistry papers
Good! But without the algorithms to do something with them, the functionals or basis sets would not do anything.
Hence, in our opinion, the algorithm design and method developments papers are equally worthy of getting cited

  1. Neese, F.
     An improvement of the resolution of the identity approximation for the formation of the Coulomb matrix
     J. Comp. Chem. 2003 24(14), 1740-1747
     doi.org/10.1002/jcc.10318
  2. Neese, F.; Wennmohs, F.; Hansen, A.; Becker, U.
     Efficient, approximate and parallel Hartree-Fock and hybrid DFT calculations. A 'chain-of-spheres' algorithm for the Hartree-Fock exchange
     Chem. Phys. 2009 356(1-3), 98-109
     doi.org/10.1016/j.chemphys.2008.10.036
  3. Bykov, D.; Petrenko, T.; Izsak, R.; Kossmann, S.; Becker, U.; Valeev, E.; Neese, F.
     Efficient implementation of the analytic second derivatives of Hartree-Fock and hybrid DFT energies: a detailed analysis of different approximations
     Molec. Phys. 2015 113 , 1961-1977
     doi.org/10.1080/00268976.2015.1025114
  4. Caldeweyher, E.; Bannwarth, C.; Grimme, S.
     Extension of the D3 dispersion coefficient model
     J. Chem. Phys. 2017 147 , 034112
     doi.org/10.1063/1.4993215
  5. Caldeweyher, E.; Ehlert, S.; Hansen, A.; Neugebauer, H.; Spicher, S.; Bannwarth, C.; Grimme, S.
     A generally applicable atomic-charge dependent London dispersion correction
     J. Chem. Phys. 2019 150 , 154122
     doi.org/10.1063/1.5090222
  6. Garcia-Rates, M.; Neese, F.
     Efficient implementation of the analytical second derivatives of hartree-fock and hybrid DFT energies within the framework of the conductor-like polarizable continuum model
     J. Comput. Chem. 2019 40 , 1816-1828
     doi.org/10.1002/jcc.25833
  7. Caldeweyher, E.; Mewes, J.; Ehlert, S.; Grimme, S.
     Extension and evaluation of the D4 London-dispersion model for periodic systems
     Phys. Chem. Chem. Phys. 2020 22(16), 8499-8512
     doi.org/10.1039/D0CP00502A
  8. Garcia-Rates, M.; Neese, F.
     Effect of the Solute Cavity on the Solvation Energy and its Derivatives within the Framework of the Gaussian Charge Scheme
     J. Comput. Chem. 2020 41 , 922-939
     doi.org/10.1002/jcc.26139
  9. Helmich-Paris, B.; de Souza, B.; Neese, F.; Izsák, R.
     An improved chain of spheres for exchange algorithm
     J. Chem. Phys. 2021 155(10), 104109
     doi.org/10.1063/5.0058766
 10. Neese, F.
     The SHARK Integral Generation and Digestion System
     J. Comp. Chem. 2022 44(3), 381
     doi.org/10.1002/jcc.26942
 11. Wittmann, L.; Gordiy, I.; Friede, M.; Helmich-Paris, B.; Grimme, S.; Hansen, A.; Bursch, M.
     Extension of the D3 and D4 London Dispersion Corrections to the full Actinides Series
     Phys. Chem. Chem. Phys. 2024 26(32), 21379-21394
     doi.org/10.1039/D4CP01514B

List of suggested additional citations. These are papers that are important in the 'surrounding' of 
of this run, or papers that preceded the highly important papers. If you like your results we are grateful for a citation.

  1. Izsak, R.; Neese, F.
     An overlap fitted chain of spheres exchange method
     J. Chem. Phys. 2011 135 , 144105
     doi.org/10.1063/1.3646921
  2. Izsak, R.; Hansen, A.; Neese, F.
     The resolution of identity and chain of spheres approximations for the LPNO-CCSD singles Fock term
     Molec. Phys. 2012 110 , 2413-2417
     doi.org/10.1080/00268976.2012.687466
  3. Neese, F.
     The ORCA program system
     WIRES Comput. Molec. Sci. 2012 2(1), 73-78
     doi.org/10.1002/wcms.81
  4. Izsak, R.; Neese, F.; Klopper, W.
     Robust fitting techniques in the chain of spheres approximation to the Fock exchange: The role of the complementary space
     J. Chem. Phys. 2013 139 , 
     doi.org/10.1063/1.4819264
  5. Neese, F.
     Software update: the ORCA program system, version 4.0
     WIRES Comput. Molec. Sci. 2018 8(1), 1-6
     doi.org/10.1002/wcms.1327
  6. Neese, F.; Wennmohs, F.; Becker, U.; Riplinger, C.
     The ORCA quantum chemistry program package
     J. Chem. Phys. 2020 152(22), 224108
     doi.org/10.1063/5.0004608
  7. Neese, F.
     Software update: The ORCA program system—Version 5.0
     WIRES Comput. Molec. Sci. 2022 12(1), e1606
     doi.org/10.1002/wcms.1606

List of optional additional citations

  1. Neese, F.
     Approximate second-order SCF convergence for spin unrestricted wavefunctions
     Chem. Phys. Lett. 2000 325(1-3), 93-98
     doi.org/10.1016/s0009-2614(00)00662-x

Timings for individual modules:

Sum of individual times          ...     7832.138 sec (= 130.536 min)
Startup calculation              ...      400.420 sec (=   6.674 min)   5.1 %
SCF iterations                   ...     2665.167 sec (=  44.419 min)  34.0 %
Property integrals               ...     1073.107 sec (=  17.885 min)  13.7 %
SCF Response                     ...     2370.584 sec (=  39.510 min)  30.3 %
Property calculations            ...      531.878 sec (=   8.865 min)   6.8 %
SCF Gradient evaluation          ...      787.359 sec (=  13.123 min)  10.1 %
Geometry relaxation              ...        3.623 sec (=   0.060 min)   0.0 %
                             ****ORCA TERMINATED NORMALLY****
TOTAL RUN TIME: 0 days 2 hours 15 minutes 52 seconds 424 msec
