
                                 *****************
                                 * O   R   C   A *
                                 *****************

                                            #,                                       
                                            ###                                      
                                            ####                                     
                                            #####                                    
                                            ######                                   
                                           ########,                                 
                                     ,,################,,,,,                         
                               ,,#################################,,                 
                          ,,##########################################,,             
                       ,#########################################, ''#####,          
                    ,#############################################,,   '####,        
                  ,##################################################,,,,####,       
                ,###########''''           ''''###############################       
              ,#####''   ,,,,##########,,,,          '''####'''          '####       
            ,##' ,,,,###########################,,,                        '##       
           ' ,,###''''                  '''############,,,                           
         ,,##''                                '''############,,,,        ,,,,,,###''
      ,#''                                            '''#######################'''  
     '                                                          ''''####''''         
             ,#######,   #######,   ,#######,      ##                                
            ,#'     '#,  ##    ##  ,#'     '#,    #''#        ,####,    ,#,          
            ##       ##  ##   ,#'  ##            #'  '#       #'       ,# #          
            ##       ##  #######   ##           ,######,      #####,      #          
            '#,     ,#'  ##    ##  '#,     ,#' ,#      #,     #,   #      #          
             '#######'   ##     ##  '#######'  #'      '#     '####' #    #          



                #########################################################
                #                        -***-                          #
                #          Department of theory and spectroscopy        #
                #                                                       #
                #                      Frank Neese                      #
                #                                                       #
                #     Directorship, Architecture, Infrastructure        #
                #                    SHARK, DRIVERS                     #
                #        Core code/Algorithms in most modules           #
                #                                                       #
                #        Max Planck Institute fuer Kohlenforschung      #
                #                Kaiser Wilhelm Platz 1                 #
                #                 D-45470 Muelheim/Ruhr                 #
                #                      Germany                          #
                #                                                       #
                #                  All rights reserved                  #
                #                        -***-                          #
                #########################################################


                         Program Version 6.1.0-f.0  -   RELEASE   -


 With contributions from (in alphabetic order):
[Max-Planck-Institut fuer Kohlenforschung]                               
  Daniel Aravena         : Magnetic Suceptibility                        
  Michael Atanasov       : Ab Initio Ligand Field Theory (pilot matlab implementation)
  Alexander A. Auer      : GIAO ZORA, VPT2 properties, NMR spectrum      
  Ute Becker             : All parallelization in ORCA, NUMFREQ, NUMCALC 
  Giovanni Bistoni       : ED, misc. LED, open-shell LED, HFLD           
  Dmytro Bykov           : pre 5.0 version of the SCF Hessian            
  Marcos Casanova-Páez   : Triplet and SCS-CIS(D). UHF-(DLPNO)-IP/EA/STEOM-CCSD. UHF-CVS-IP/STEOM-CCSD   
  Vijay G. Chilkuri      : MRCI spin determinant printing, contributions to CSF-ICE 
  Pauline Colinet        : FMM embedding                                 
  Dipayan Datta          : RHF DLPNO-CCSD density                        
  Achintya Kumar Dutta   : EOM-CC, STEOM-CC                              
  Nicolas Foglia         : Exact transition moments, OPA infrastructure, MCD improvements    
  Dmitry Ganyushin       : Spin-Orbit,Spin-Spin,Magnetic field MRCI      
  Miquel Garcia-Rates    : C-PCM and meta-GGA Hessian, CCSD/C-PCM, Gaussian charge scheme 
  Tiago L. C. Gouveia    : GS-ROHF, GS-ROCIS                             
  Yang Guo               : DLPNO-NEVPT2, F12-NEVPT2, CIM, IAO-localization        
  Andreas Hansen         : Spin unrestricted coupled pair/coupled cluster methods 
  Ingolf Harden          : AUTO-CI MPn and infrastructure                
  Benjamin Helmich-Paris : MC-RPA, TRAH-(SCF,CASSCF), AVAS, COSX integrals, SCF dyn. polar., MC-PDFT, srDFT 
  Lee Huntington         : MR-EOM, pCC                                   
  Robert Izsak           : Overlap fitted RIJCOSX, COSX-SCS-MP3, EOM     
  Riya Kayal             : Wick's Theorem for AUTO-CI, AUTO-CI UHF-CCSDT 
  Emily Kempfer          : AUTO-CI RHF CISDT and CCSDT, approximate NEVPT4
  Christian Kollmar      : KDIIS, OOCD, Brueckner-CCSD(T), CCSD density, CASPT2, CASPT2-K, improved NEVPT2 
  Axel Koslowski         : Symmetry handling                             
  Simone Kossmann        : meta-GGA functionals, TD-DFT gradient, OOMP2, (MP2 Hessian; deprecated post 5.0) 
  Lucas Lang             : DCDCAS, Hyperfine gauge corrections, ICE-SOC+SSC
  Marvin Lechner         : AUTO-CI (C++ implementation), FIC-MRCC        
  Spencer Leger          : CASSCF response                               
  Dagmar Lenk            : GEPOL surface, SMD, ORCA-2-JSON               
  Dimitrios Liakos       : Extrapolation schemes; Compound Job, Property file
  Dimitrios Manganas     : Further ROCIS development; embedding schemes. LFT, Crystal Embedding 
  Dimitrios Pantazis     : SARC Basis sets                               
  Anastasios Papadopoulos: AUTO-CI, single reference methods and gradients 
  Taras Petrenko         : pre 6.0 DFT Hessian and TD-DFT gradient,  ECA, NRVS 
  Petra Pikulova         : Analytic Raman intensities                    
  Peter Pinski           : DLPNO-MP2, DLPNO-MP2 Gradient                 
  Shashank Vittal Rao    : ES-AILFT, MagRelax                            
  Christoph Reimann      : Effective Core Potentials                     
  Marius Retegan         : Local ZFS, SOC                                
  Christoph Riplinger    : Optimizer, TS searches, QM/MM, DLPNO-CCSD(T), (RO)-DLPNO pert. Triples 
  Michael Roemelt        : Original ROCIS implementation, recursive CI coupling coefficients
  Masaaki Saitow         : Open-shell DLPNO-CCSD energy and density      
  Barbara Sandhoefer     : DKH picture change effects                    
  Yorick L. A. Schmerwitz: GMF and freeze-and-release deltaSCF, NEB S-IDPP initial path                    
  Kantharuban Sivalingam : CASSCF convergence/infrastructure, NEVPT2, NEVPT3, NEVPT4(SD), FIC-MRCI and CEPA variants
  Bernardo de Souza      : ESD, SOC TD-DFT                               
  Georgi L. Stoychev     : AutoAux, RI-MP2 NMR, DLPNO-MP2 response, X2C  
  Van Anh Tran           : RI-MP2 g-tensors                              
  Willem Van den Heuvel  : Paramagnetic NMR                              
  Zikuan Wang            : NOTCH, Electric field optimization            
  Frank Wennmohs         : Technical directorship and infrastructure     
  Hang Xu                : AUTO-CI-Response properties                   
                                                                         
[FACCTs GmbH]                                                            
  Markus Bursch, Nicolas Foglia, Miquel Garcia-Rates, Ingolf Harden, Hagen Neugebauer, Anastasios Papadopoulos, 
  Christoph Riplinger, Bernardo de Souza, Georgi L. Stoychev                                                    
                                                                 
  APM, various basis sets, CI-OPT, improved COSX, DLPNO-Multilevel,           
  DOCKER, DRACO, updates on ESD, Fragmentator, GOAT, IRC, LR-CPCM, L-BFGS, MBIS, meta-GGA TD-DFT gradient, ML-optimized integration grids, 
  MM, NACMEs, nearIR, NEB, NEB-TS, NL-DFT gradient (VV10), 2- and 3-layer-ONIOM, interface openCOSMO-RS, QMMM,   
  Crystal-QMMM, RESP, rigid body optimization, SF, symmetry and pop. for TD-DFT, various functionals, SOLVATOR                                   
                                                                         
[Other institutions]                                                     
  V. Asgeirsson          : NEB                                           
  Christoph Bannwarth    : sTDA-DFT, sTD-DFT, PBEh-3c, B97-3c, D3        
  Giovanni Bistoni       : ETS/NOCV, ADLD/ADEX, COVALED                  
  Martin Brehm           : Molecular dynamics                            
  Ronald Cardenas        : ETS/NOCV                                      
  Martina Colucci        : COVALED                                       
  Sebastian Ehlert       : rSCAN, r2SCAN, r2SCAN-3c, D4, dhf basis sets  
  Marvin Friede          : D4 for Fr, Ra, Ac-Lr                          
  Lars Goerigk           : TD-DFT with DH, B97 family of functionals     
  Stefan Grimme          : VdW corrections, initial TS optimization, DFT functionals, gCP, sTDA/sTD-DF 
  Waldemar Hujo          : DFT-NL                                        
  H. Jonsson             : NEB                                           
  Holger Kruse           : gCP                                           
  Marcel Mueller         : wB97X-3c, vDZP basis set                      
  Hagen Neugebauer       : wr2SCAN, Native XTB                           
  Gianluca Regni         : ADLD/ADEX                                     
  Tobias Risthaus        : pre 6.0 range-separated hybrid DFT and stability analysis
  Lukas Wittmann         : regularized MP2, r2SCAN double-hybrids, wr2SCAN        
                                                                         
We gratefully acknowledge several colleagues who have allowed us to      
interface, adapt or use parts of their codes:                            
  Ed Valeev, F. Pavosevic, A. Kumar             : LibInt (2-el integral package), F12 methods 
  Garnet Chan, S. Sharma, J. Yang, R. Olivares  : DMRG                   
  Ulf Ekstrom                                   : XCFun DFT Library      
  Mihaly Kallay                                 : mrcc  (arbitrary order and MRCC methods)
  Frank Weinhold                                : gennbo (NPA and NBO analysis)           
  Simon Mueller                                 : openCOSMO-RS                            
  Christopher J. Cramer and Donald G. Truhlar   : smd solvation model                     
  S Lehtola, MJT Oliveira, MAL Marques          : LibXC Library                           
  Liviu Ungur et al                             : ANISO software                          


 Your calculation uses the libint2 library for the computation of 2-el integrals
 For citations please refer to: http://libint.valeyev.net

 Your ORCA version has been built with support for libXC version: 7.0.0
 For citations please refer to: https://libxc.gitlab.io

 This ORCA versions uses:
   CBLAS   interface :  Fast vector & matrix operations
   LAPACKE interface :  Fast linear algebra routines
   SCALAPACK package :  Parallel linear algebra routines
   Shared memory     :  Shared parallel matrices
   BLAS/LAPACK       :  OpenBLAS 0.3.29  USE64BITINT DYNAMIC_ARCH NO_AFFINITY Cooperlake SINGLE_THREADED
        Core in use  :  Cooperlake
   Copyright (c) 2011-2014, The OpenBLAS Project


  ***********************************
  * Starting time: Wed Mar  4 04:59:23 2026
  * Host name:     c09b01n05
  * Process ID:    3653289
  * Working dir.:  /lustre1/jiangy/jiangy_liuxy/NMR/B9D7C2-RSSR
  ***********************************

NOTE: MaxCore=6000 MB was set to SCF,MP2,MDCI,CIPSI,MRCI,RASCI and CIS
      => If you want to overwrite this, your respective input block should be placed after the MaxCore statement


***************************************
The coordinates will be read from file: conf-11.xyz
***************************************


Your calculation utilizes the atom-pairwise dispersion correction
based on EEQ partial charges (D4)


Warning: RI is on but no J-basis has been assigned. Assigning Def2/J (nothing to worry about!)
================================================================================

----- Orbital basis set information -----
Your calculation utilizes the basis: def2-TZVP
   F. Weigend and R. Ahlrichs, Phys. Chem. Chem. Phys. 7, 3297 (2005).

----- AuxJ basis set information -----
Your calculation utilizes the auxiliary basis: def2/J
   H-Rn: F. Weigend, Phys. Chem. Chem. Phys. 8, 1057 (2006).
   Fr-Lr: K. Eichkorn, F. Weigend, O. Treutler, R. Ahlrichs; Theor. Chem. Acc. 97, 119 (1997).

================================================================================
                                        WARNINGS
                       Please study these warnings very carefully!
================================================================================


WARNING: Geometry Optimization
  ===> : Switching off AutoStart
         For restart on a previous wavefunction, please use MOREAD

================================================================================
                                       INPUT FILE
================================================================================
NAME = opt-conf-11.inp
|  1> ! B3LYP OPT FREQ DEF2-TZVP D4 CPCM(Methanol) 
|  2> ! TightOpt
|  3> %pal nprocs 64 end
|  4> %maxcore 6000
|  5> 
|  6> %cpcm
|  7> end
|  8> 
|  9> %freq
| 10>    Temp 298.15
| 11> end
| 12> 
| 13> * xyzfile 0 1 conf-11.xyz
| 14> 
| 15> 
| 16>                          ****END OF INPUT****
================================================================================

                       *****************************
                       * Geometry Optimization Run *
                       *****************************

Geometry optimization settings:
Update method            Update   .... BFGS
Choice of coordinates    CoordSys .... (2022) Redundant Internals
Initial Hessian          InHess   .... Almloef's Model
Max. no of cycles        MaxIter  .... 246

Convergence Tolerances:
Energy Change            TolE     ....  1.0000e-06 Eh
Max. Gradient            TolMAXG  ....  1.0000e-04 Eh/bohr
RMS Gradient             TolRMSG  ....  3.0000e-05 Eh/bohr
Max. Displacement        TolMAXD  ....  1.0000e-03 bohr
RMS Displacement         TolRMSD  ....  6.0000e-04 bohr
Strict Convergence                .... False

------------------------------------------------------------------------------
                        ORCA OPTIMIZATION COORDINATE SETUP
------------------------------------------------------------------------------

The optimization will be done in redundant internal coordinates (2022)
Making redundant internal coordinates   ...  (2022 redundants) done
Evaluating the initial hessian          ...  (Almloef) done
Evaluating the coordinates              ...  done
Calculating the B-matrix                .... done
Calculating the G-matrix                .... done
The number of degrees of freedom        ....  404

    -----------------------------------------------------------------
                    Redundant Internal Coordinates


    -----------------------------------------------------------------
         Definition                    Initial Value    Approx d2E/dq
    -----------------------------------------------------------------
      1. B(C   1,C   0)                  1.3969         0.609224   
      2. B(C   2,C   1)                  1.4075         0.585827   
      3. B(C   3,C   2)                  1.3847         0.637026   
      4. B(C   4,C   3)                  1.3889         0.627380   
      5. B(C   5,C   4)                  1.3812         0.645320   
      6. B(C   5,C   0)                  1.3936         0.616486   
      7. B(C   6,C   4)                  1.5022         0.413673   
      8. B(C   7,C   6)                  1.5351         0.366607   
      9. B(C   8,C   7)                  1.5379         0.362908   
     10. B(C   9,C   8)                  1.5370         0.364147   
     11. B(C  10,C   9)                  1.5020         0.414120   
     12. B(C  11,C  10)                  1.3934         0.616982   
     13. B(C  12,C  11)                  1.3823         0.642681   
     14. B(C  13,C  12)                  1.4050         0.591338   
     15. B(C  14,C  13)                  1.3825         0.642234   
     16. B(C  15,C  14)                  1.3850         0.636347   
     17. B(C  15,C  10)                  1.3855         0.635287   
     18. B(C  16,C   7)                  1.5364         0.364848   
     19. B(C  17,C   8)                  1.5347         0.367236   
     20. B(O  18,C   2)                  1.3684         0.605821   
     21. B(O  19,C   0)                  1.3649         0.613689   
     22. B(O  20,C   1)                  1.3840         0.572065   
     23. B(O  21,C  13)                  1.3621         0.619962   
     24. B(O  22,C  12)                  1.3797         0.581078   
     25. B(C  23,O  20)                  1.4243         0.493403   
     26. B(C  24,C  23)                  1.5509         0.346004   
     27. B(C  25,C  24)                  1.5114         0.399936   
     28. B(C  26,C  23)                  1.5312         0.371865   
     29. B(O  27,C  26)                  1.4021         0.535232   
     30. B(C  28,C  25)                  1.3902         0.624251   
     31. B(C  29,C  28)                  1.3828         0.641474   
     32. B(C  30,C  29)                  1.4034         0.594722   
     33. B(C  31,C  30)                  1.3816         0.644444   
     34. B(C  32,C  31)                  1.3846         0.637272   
     35. B(C  32,C  25)                  1.3868         0.632181   
     36. B(C  33,O  19)                  1.4136         0.513129   
     37. B(C  34,O  18)                  1.4067         0.526381   
     38. B(C  35,O  22)                  1.4068         0.526149   
     39. B(O  36,C  24)                  1.4093         0.521234   
     40. B(O  37,C  16)                  1.4047         0.530242   
     41. B(O  38,C  17)                  1.4086         0.522567   
     42. B(O  39,C  29)                  1.3668         0.609305   
     43. B(O  40,C  30)                  1.3672         0.608471   
     44. B(C  41,O  39)                  1.4111         0.517944   
     45. B(H  42,C   3)                  1.0779         0.376517   
     46. B(H  43,C   5)                  1.0787         0.375309   
     47. B(H  44,C   6)                  1.0905         0.359411   
     48. B(H  45,C   6)                  1.0902         0.359872   
     49. B(H  46,C   7)                  1.0962         0.351930   
     50. B(H  47,C   8)                  1.0973         0.350620   
     51. B(H  48,C   9)                  1.0936         0.355407   
     52. B(H  49,C   9)                  1.0913         0.358382   
     53. B(H  50,C  11)                  1.0777         0.376762   
     54. B(H  51,C  14)                  1.0780         0.376356   
     55. B(H  52,C  15)                  1.0798         0.373871   
     56. B(H  53,C  16)                  1.0932         0.355841   
     57. B(H  54,C  16)                  1.0988         0.348623   
     58. B(H  55,C  17)                  1.0920         0.357415   
     59. B(H  56,C  17)                  1.0985         0.349021   
     60. B(H  57,O  21)                  0.9668         0.507183   
     61. B(H  57,O  22)                  2.1181         0.010000   
     62. B(H  58,C  23)                  1.0959         0.352409   
     63. B(H  59,C  24)                  1.0952         0.353300   
     64. B(H  60,C  26)                  1.0913         0.358390   
     65. B(H  61,C  26)                  1.0998         0.347394   
     66. B(H  62,O  27)                  0.9658         0.509087   
     67. B(H  63,C  28)                  1.0774         0.377145   
     68. B(H  64,C  31)                  1.0783         0.375882   
     69. B(H  65,C  32)                  1.0808         0.372464   
     70. B(H  66,C  33)                  1.0911         0.358672   
     71. B(H  67,C  33)                  1.0918         0.357776   
     72. B(H  68,C  33)                  1.0912         0.358538   
     73. B(H  69,H  64)                  4.7591         0.010000   
     74. B(H  69,C  34)                  1.0946         0.354033   
     75. B(H  70,C  34)                  1.0941         0.354691   
     76. B(H  71,C  34)                  1.0890         0.361392   
     77. B(H  72,H  64)                  4.9050         0.010000   
     78. B(H  72,C  35)                  1.0942         0.354616   
     79. B(H  73,C  35)                  1.0888         0.361652   
     80. B(H  74,C  35)                  1.0942         0.354636   
     81. B(H  75,O  36)                  0.9643         0.511727   
     82. B(H  76,O  40)                  1.9445         0.013970   
     83. B(H  76,O  37)                  0.9704         0.500396   
     84. B(H  77,O  38)                  0.9640         0.512310   
     85. B(H  78,O  39)                  2.0916         0.010000   
     86. B(H  78,O  40)                  0.9698         0.501543   
     87. B(H  79,C  41)                  1.0941         0.354686   
     88. B(H  80,O  19)                  2.5240         0.010000   
     89. B(H  80,C  41)                  1.0928         0.356457   
     90. B(H  81,O  21)                  2.3861         0.010000   
     91. B(H  81,C  41)                  1.0880         0.362707   
     92. A(C   1,C   0,O  19)          125.5888         0.429083   
     93. A(C   5,C   0,O  19)          114.8733         0.429996   
     94. A(C   1,C   0,C   5)          119.5356         0.432258   
     95. A(C   0,C   1,O  20)          120.9313         0.423719   
     96. A(C   0,C   1,C   2)          118.7258         0.428317   
     97. A(C   2,C   1,O  20)          120.2115         0.420765   
     98. A(C   3,C   2,O  18)          124.1029         0.431533   
     99. A(C   1,C   2,C   3)          120.4513         0.431762   
    100. A(C   1,C   2,O  18)          115.4457         0.425099   
    101. A(C   4,C   3,H  42)          119.0184         0.356300   
    102. A(C   2,C   3,H  42)          120.4005         0.357225   
    103. A(C   2,C   3,C   4)          120.5780         0.437120   
    104. A(C   5,C   4,C   6)          120.2725         0.406732   
    105. A(C   3,C   4,C   6)          120.7457         0.404711   
    106. A(C   3,C   4,C   5)          118.9816         0.438140   
    107. A(C   4,C   5,H  43)          120.8550         0.357816   
    108. A(C   0,C   5,H  43)          117.6381         0.355049   
    109. A(C   0,C   5,C   4)          121.5056         0.436759   
    110. A(C   4,C   6,H  44)          110.0855         0.329708   
    111. A(C   7,C   6,H  45)          108.7567         0.323285   
    112. A(C   4,C   6,C   7)          110.7180         0.368562   
    113. A(H  44,C   6,H  45)          108.4910         0.290723   
    114. A(C   4,C   6,H  45)          108.9216         0.329778   
    115. A(C   7,C   6,H  44)          109.8193         0.323217   
    116. A(C   6,C   7,C  16)          110.7896         0.360727   
    117. A(C   8,C   7,C  16)          110.4029         0.360104   
    118. A(C  16,C   7,H  46)          106.8146         0.321850   
    119. A(C   8,C   7,H  46)          106.8944         0.321570   
    120. A(C   6,C   7,H  46)          107.5277         0.322104   
    121. A(C   6,C   7,C   8)          114.0375         0.360400   
    122. A(C   7,C   8,C  17)          113.6469         0.360505   
    123. A(C  17,C   8,H  47)          107.1684         0.321998   
    124. A(C   7,C   8,C   9)          112.2037         0.359986   
    125. A(C   9,C   8,H  47)          108.5025         0.321553   
    126. A(C   7,C   8,H  47)          105.8455         0.321374   
    127. A(C   9,C   8,C  17)          109.1864         0.360714   
    128. A(H  48,C   9,H  49)          107.1457         0.290023   
    129. A(C  10,C   9,H  48)          109.6242         0.329157   
    130. A(C  10,C   9,H  49)          109.1265         0.329611   
    131. A(C   8,C   9,C  10)          113.7522         0.368205   
    132. A(C   8,C   9,H  48)          107.7480         0.322268   
    133. A(C   8,C   9,H  49)          109.2325         0.322708   
    134. A(C   9,C  10,C  11)          120.4227         0.403596   
    135. A(C  11,C  10,C  15)          118.8081         0.435591   
    136. A(C   9,C  10,C  15)          120.7689         0.405685   
    137. A(C  10,C  11,C  12)          120.6949         0.436500   
    138. A(C  10,C  11,H  50)          119.1924         0.355330   
    139. A(C  12,C  11,H  50)          120.1127         0.357802   
    140. A(C  11,C  12,C  13)          119.9131         0.433177   
    141. A(C  13,C  12,O  22)          114.5648         0.422648   
    142. A(C  11,C  12,O  22)          125.5221         0.428995   
    143. A(C  12,C  13,O  21)          120.2975         0.427575   
    144. A(C  12,C  13,C  14)          119.3379         0.433122   
    145. A(C  14,C  13,O  21)          120.3645         0.433962   
    146. A(C  13,C  14,H  51)          118.7684         0.357694   
    147. A(C  13,C  14,C  15)          120.1550         0.438884   
    148. A(C  15,C  14,H  51)          121.0763         0.357134   
    149. A(C  14,C  15,H  52)          119.1498         0.356733   
    150. A(C  10,C  15,H  52)          119.7796         0.356632   
    151. A(C  10,C  15,C  14)          121.0648         0.438023   
    152. A(O  37,C  16,H  54)          110.7210         0.339790   
    153. A(C   7,C  16,H  54)          108.6884         0.321353   
    154. A(O  37,C  16,H  53)          105.8049         0.340956   
    155. A(C   7,C  16,H  53)          110.8120         0.322434   
    156. A(C   7,C  16,O  37)          112.4441         0.381968   
    157. A(H  53,C  16,H  54)          108.2833         0.288826   
    158. A(O  38,C  17,H  56)          109.9631         0.339028   
    159. A(C   8,C  17,O  38)          112.2268         0.381435   
    160. A(H  55,C  17,H  56)          108.4935         0.289078   
    161. A(C   8,C  17,H  56)          110.1193         0.321757   
    162. A(O  38,C  17,H  55)          105.1517         0.340376   
    163. A(C   8,C  17,H  55)          110.7241         0.323012   
    164. A(C   2,O  18,C  34)          118.8902         0.414357   
    165. A(C   0,O  19,C  33)          119.7384         0.413431   
    166. A(C   1,O  20,C  23)          117.7227         0.405494   
    167. A(C  13,O  21,H  57)          107.6943         0.368534   
    168. A(C  12,O  22,C  35)          118.0252         0.411269   
    169. A(C  26,C  23,H  58)          108.4773         0.322929   
    170. A(C  24,C  23,H  58)          108.7909         0.319143   
    171. A(O  20,C  23,H  58)          110.5572         0.336339   
    172. A(C  24,C  23,C  26)          111.6475         0.358352   
    173. A(O  20,C  23,C  26)          105.6400         0.378478   
    174. A(O  20,C  23,C  24)          111.6676         0.373793   
    175. A(C  23,C  24,O  36)          110.4205         0.377352   
    176. A(O  36,C  24,H  59)          104.8409         0.339574   
    177. A(C  25,C  24,H  59)          110.1325         0.326950   
    178. A(C  23,C  24,H  59)          108.5386         0.319275   
    179. A(C  25,C  24,O  36)          112.3241         0.386963   
    180. A(C  23,C  24,C  25)          110.3900         0.362825   
    181. A(C  28,C  25,C  32)          119.3661         0.436125   
    182. A(C  24,C  25,C  32)          120.4629         0.402848   
    183. A(C  24,C  25,C  28)          120.1704         0.401953   
    184. A(O  27,C  26,H  61)          110.8180         0.340121   
    185. A(H  60,C  26,H  61)          109.1276         0.288989   
    186. A(C  23,C  26,H  61)          108.3210         0.322171   
    187. A(O  27,C  26,H  60)          107.1780         0.341898   
    188. A(C  23,C  26,H  60)          110.0541         0.323822   
    189. A(C  23,C  26,O  27)          111.3243         0.383859   
    190. A(C  26,O  27,H  62)          107.2334         0.359618   
    191. A(C  29,C  28,H  63)          120.2172         0.357749   
    192. A(C  25,C  28,H  63)          119.2136         0.356099   
    193. A(C  25,C  28,C  29)          120.5673         0.437274   
    194. A(C  30,C  29,O  39)          114.6950         0.426685   
    195. A(C  28,C  29,O  39)          125.8153         0.432519   
    196. A(C  28,C  29,C  30)          119.4859         0.433475   
    197. A(C  31,C  30,O  40)          120.4861         0.432771   
    198. A(C  29,C  30,O  40)          119.5519         0.426580   
    199. A(C  29,C  30,C  31)          119.9617         0.433835   
    200. A(C  32,C  31,H  64)          120.8182         0.357146   
    201. A(C  30,C  31,H  64)          119.2306         0.357826   
    202. A(C  30,C  31,C  32)          119.9510         0.439271   
    203. A(C  31,C  32,H  65)          118.7197         0.356592   
    204. A(C  25,C  32,H  65)          120.6531         0.356107   
    205. A(C  25,C  32,C  31)          120.6272         0.437751   
    206. A(H  67,C  33,H  68)          108.8443         0.290346   
    207. A(H  66,C  33,H  68)          109.5898         0.290460   
    208. A(O  19,C  33,H  68)          111.2664         0.339519   
    209. A(H  66,C  33,H  67)          109.5383         0.290363   
    210. A(O  19,C  33,H  67)          112.0535         0.339399   
    211. A(O  19,C  33,H  66)          105.4859         0.339541   
    212. A(H  69,C  34,H  71)          109.4391         0.290228   
    213. A(O  18,C  34,H  71)          105.3413         0.341422   
    214. A(H  69,C  34,H  70)          109.4842         0.289377   
    215. A(O  18,C  34,H  70)          111.4737         0.340355   
    216. A(O  18,C  34,H  69)          111.5834         0.340249   
    217. A(H  70,C  34,H  71)          109.4189         0.290312   
    218. A(H  73,C  35,H  74)          109.2614         0.290338   
    219. A(H  72,C  35,H  74)          109.6862         0.289445   
    220. A(O  22,C  35,H  74)          111.3723         0.340321   
    221. A(H  72,C  35,H  73)          109.4596         0.290335   
    222. A(O  22,C  35,H  73)          105.6357         0.341438   
    223. A(O  22,C  35,H  72)          111.3252         0.340318   
    224. A(C  24,O  36,H  75)          108.7446         0.358315   
    225. A(C  16,O  37,H  76)          107.7995         0.357995   
    226. A(C  17,O  38,H  77)          108.3562         0.358540   
    227. A(C  29,O  39,C  41)          117.9785         0.413591   
    228. A(C  30,O  40,H  78)          107.3371         0.366649   
    229. A(H  80,C  41,H  81)          110.2170         0.290704   
    230. A(H  79,C  41,H  81)          109.4202         0.290477   
    231. A(O  39,C  41,H  81)          105.3813         0.340707   
    232. A(H  79,C  41,H  80)          110.0075         0.289686   
    233. A(O  39,C  41,H  80)          110.5584         0.339719   
    234. A(O  39,C  41,H  79)          111.1625         0.339436   
    235. D(O  20,C   1,C   0,O  19)      0.6503         0.025630   
    236. D(C   2,C   1,C   0,O  19)   -175.1918         0.025630   
    237. D(C   2,C   1,C   0,C   5)      5.3883         0.025630   
    238. D(O  20,C   1,C   0,C   5)   -178.7696         0.025630   
    239. D(O  18,C   2,C   1,C   0)    175.1266         0.023601   
    240. D(C   3,C   2,C   1,C   0)     -4.7885         0.023601   
    241. D(C   3,C   2,C   1,O  20)    179.3386         0.023601   
    242. D(O  18,C   2,C   1,O  20)     -0.7463         0.023601   
    243. D(C   4,C   3,C   2,C   1)      1.1625         0.028177   
    244. D(H  42,C   3,C   2,O  18)      0.6146         0.028177   
    245. D(C   4,C   3,C   2,O  18)   -178.7449         0.028177   
    246. D(H  42,C   3,C   2,C   1)   -179.4780         0.028177   
    247. D(C   6,C   4,C   3,H  42)      2.3516         0.027276   
    248. D(C   5,C   4,C   3,H  42)   -177.5132         0.027276   
    249. D(C   5,C   4,C   3,C   2)      1.8552         0.027276   
    250. D(C   6,C   4,C   3,C   2)   -178.2800         0.027276   
    251. D(H  43,C   5,C   4,C   6)     -1.5166         0.028966   
    252. D(H  43,C   5,C   4,C   3)    178.3489         0.028966   
    253. D(C   0,C   5,C   4,C   3)     -1.2084         0.028966   
    254. D(C   4,C   5,C   0,O  19)    178.0561         0.026281   
    255. D(H  43,C   5,C   0,C   1)    177.9651         0.026281   
    256. D(H  43,C   5,C   0,O  19)     -1.5149         0.026281   
    257. D(C   0,C   5,C   4,C   6)    178.9261         0.028966   
    258. D(C   4,C   5,C   0,C   1)     -2.4639         0.026281   
    259. D(H  45,C   6,C   4,C   3)   -136.4958         0.012666   
    260. D(H  44,C   6,C   4,C   5)    162.2050         0.012666   
    261. D(H  44,C   6,C   4,C   3)    -17.6581         0.012666   
    262. D(C   7,C   6,C   4,C   5)    -76.1756         0.012666   
    263. D(C   7,C   6,C   4,C   3)    103.9613         0.012666   
    264. D(C   8,C   7,C   6,H  44)    -73.3396         0.010756   
    265. D(C   8,C   7,C   6,C   4)    164.8845         0.010756   
    266. D(C  16,C   7,C   6,H  45)    170.5272         0.010756   
    267. D(C  16,C   7,C   6,H  44)     51.9451         0.010756   
    268. D(C   8,C   7,C   6,H  45)     45.2426         0.010756   
    269. D(C  16,C   7,C   6,C   4)    -69.8308         0.010756   
    270. D(C  17,C   8,C   7,H  46)    167.2869         0.010555   
    271. D(C  17,C   8,C   7,C  16)    -76.8942         0.010555   
    272. D(C  17,C   8,C   7,C   6)     48.5950         0.010555   
    273. D(C   9,C   8,C   7,C  16)    158.6184         0.010555   
    274. D(C   9,C   8,C   7,H  46)     42.7995         0.010555   
    275. D(C   9,C   8,C   7,C   6)    -75.8924         0.010555   
    276. D(H  48,C   9,C   8,C  17)     57.7829         0.010622   
    277. D(H  48,C   9,C   8,C   7)   -175.2946         0.010622   
    278. D(C  10,C   9,C   8,H  47)     63.0370         0.010622   
    279. D(C  10,C   9,C   8,C  17)    179.5260         0.010622   
    280. D(H  48,C   9,C   8,H  47)    -58.7061         0.010622   
    281. D(C  10,C   9,C   8,C   7)    -53.5515         0.010622   
    282. D(C  15,C  10,C   9,H  48)   -115.5743         0.012693   
    283. D(C  15,C  10,C   9,C   8)    123.7296         0.012693   
    284. D(C  11,C  10,C   9,H  49)   -178.7170         0.012693   
    285. D(C  11,C  10,C   9,H  48)     64.2230         0.012693   
    286. D(C  11,C  10,C   9,C   8)    -56.4731         0.012693   
    287. D(H  50,C  11,C  10,C  15)   -179.9953         0.026326   
    288. D(H  50,C  11,C  10,C   9)      0.2034         0.026326   
    289. D(C  12,C  11,C  10,C  15)     -0.0309         0.026326   
    290. D(C  12,C  11,C  10,C   9)   -179.8322         0.026326   
    291. D(O  22,C  12,C  11,H  50)      1.4284         0.028714   
    292. D(C  13,C  12,C  11,H  50)   -178.6171         0.028714   
    293. D(O  22,C  12,C  11,C  10)   -178.5357         0.028714   
    294. D(C  13,C  12,C  11,C  10)      1.4188         0.028714   
    295. D(O  21,C  13,C  12,C  11)    178.4644         0.024070   
    296. D(C  14,C  13,C  12,O  22)    178.3022         0.024070   
    297. D(C  14,C  13,C  12,C  11)     -1.6571         0.024070   
    298. D(O  21,C  13,C  12,O  22)     -1.5763         0.024070   
    299. D(H  51,C  14,C  13,O  21)      0.2032         0.028671   
    300. D(H  51,C  14,C  13,C  12)   -179.6753         0.028671   
    301. D(C  15,C  14,C  13,O  21)   -179.6053         0.028671   
    302. D(C  15,C  14,C  13,C  12)      0.5162         0.028671   
    303. D(H  52,C  15,C  14,H  51)      0.2015         0.028113   
    304. D(H  52,C  15,C  14,C  13)   -179.9945         0.028113   
    305. D(C  10,C  15,C  14,H  51)   -178.9173         0.028113   
    306. D(C  10,C  15,C  14,C  13)      0.8867         0.028113   
    307. D(H  52,C  15,C  10,C  11)    179.7554         0.028013   
    308. D(H  52,C  15,C  10,C   9)     -0.4441         0.028013   
    309. D(C  14,C  15,C  10,C  11)     -1.1313         0.028013   
    310. D(C  14,C  15,C  10,C   9)    178.6692         0.028013   
    311. D(H  53,C  16,C   7,H  46)    174.4381         0.010660   
    312. D(H  53,C  16,C   7,C   8)     58.5692         0.010660   
    313. D(H  53,C  16,C   7,C   6)    -68.7374         0.010660   
    314. D(O  37,C  16,C   7,H  46)     56.2567         0.010660   
    315. D(O  37,C  16,C   7,C   8)    -59.6121         0.010660   
    316. D(O  37,C  16,C   7,C   6)    173.0813         0.010660   
    317. D(H  55,C  17,C   8,H  47)    169.1574         0.010791   
    318. D(H  55,C  17,C   8,C   9)     51.8228         0.010791   
    319. D(H  55,C  17,C   8,C   7)    -74.2752         0.010791   
    320. D(O  38,C  17,C   8,H  47)     51.9960         0.010791   
    321. D(O  38,C  17,C   8,C   9)    -65.3387         0.010791   
    322. D(O  38,C  17,C   8,C   7)    168.5634         0.010791   
    323. D(C  34,O  18,C   2,C   3)      0.6747         0.026840   
    324. D(C  34,O  18,C   2,C   1)   -179.2369         0.026840   
    325. D(C  33,O  19,C   0,C   5)   -153.9006         0.030448   
    326. D(C  33,O  19,C   0,C   1)     26.6557         0.030448   
    327. D(C  23,O  20,C   1,C   2)    -61.5525         0.023764   
    328. D(C  23,O  20,C   1,C   0)    122.6669         0.023764   
    329. D(H  57,O  21,C  13,C  14)   -179.8462         0.031123   
    330. D(H  57,O  21,C  13,C  12)      0.0311         0.031123   
    331. D(C  35,O  22,C  12,C  13)   -177.0360         0.027088   
    332. D(C  35,O  22,C  12,C  11)      2.9206         0.027088   
    333. D(H  58,C  23,O  20,C   1)     37.5537         0.019231   
    334. D(C  26,C  23,O  20,C   1)    154.7144         0.019231   
    335. D(C  24,C  23,O  20,C   1)    -83.7230         0.019231   
    336. D(O  36,C  24,C  23,H  58)     64.8592         0.010000   
    337. D(O  36,C  24,C  23,C  26)    -54.8247         0.010000   
    338. D(O  36,C  24,C  23,O  20)   -172.8449         0.010000   
    339. D(C  25,C  24,C  23,H  58)    -59.9465         0.010000   
    340. D(C  25,C  24,C  23,C  26)   -179.6304         0.010000   
    341. D(C  25,C  24,C  23,O  20)     62.3494         0.010000   
    342. D(C  32,C  25,C  24,O  36)    -59.1396         0.011871   
    343. D(C  32,C  25,C  24,C  23)     64.5723         0.011871   
    344. D(C  28,C  25,C  24,H  59)      4.1266         0.011871   
    345. D(C  28,C  25,C  24,O  36)    120.5779         0.011871   
    346. D(C  28,C  25,C  24,C  23)   -115.7102         0.011871   
    347. D(H  60,C  26,C  23,H  58)    -73.2258         0.011048   
    348. D(H  60,C  26,C  23,C  24)     46.6429         0.011048   
    349. D(H  60,C  26,C  23,O  20)    168.2185         0.011048   
    350. D(O  27,C  26,C  23,H  58)     45.4604         0.011048   
    351. D(O  27,C  26,C  23,C  24)    165.3291         0.011048   
    352. D(O  27,C  26,C  23,O  20)    -73.0953         0.011048   
    353. D(H  62,O  27,C  26,H  61)    -75.7999         0.022770   
    354. D(H  62,O  27,C  26,H  60)    165.2226         0.022770   
    355. D(H  62,O  27,C  26,C  23)     44.8267         0.022770   
    356. D(H  63,C  28,C  25,C  32)    178.3899         0.026988   
    357. D(H  63,C  28,C  25,C  24)     -1.3307         0.026988   
    358. D(C  29,C  28,C  25,C  32)     -2.1119         0.026988   
    359. D(C  29,C  28,C  25,C  24)    178.1676         0.026988   
    360. D(C  30,C  29,C  28,H  63)   -178.7484         0.028599   
    361. D(C  30,C  29,C  28,C  25)      1.7584         0.028599   
    362. D(O  39,C  29,C  28,H  63)      0.5037         0.028599   
    363. D(O  39,C  29,C  28,C  25)   -178.9895         0.028599   
    364. D(O  40,C  30,C  29,O  39)      0.4819         0.024360   
    365. D(O  40,C  30,C  29,C  28)    179.8144         0.024360   
    366. D(C  31,C  30,C  29,O  39)   -179.3304         0.024360   
    367. D(C  31,C  30,C  29,C  28)      0.0020         0.024360   
    368. D(H  64,C  31,C  30,O  40)     -1.3852         0.028882   
    369. D(H  64,C  31,C  30,C  29)    178.4253         0.028882   
    370. D(C  32,C  31,C  30,O  40)    178.7987         0.028882   
    371. D(C  32,C  31,C  30,C  29)     -1.3907         0.028882   
    372. D(H  65,C  32,C  31,H  64)      1.3010         0.028200   
    373. D(H  65,C  32,C  31,C  30)   -178.8859         0.028200   
    374. D(C  25,C  32,C  31,H  64)   -178.7750         0.028200   
    375. D(C  25,C  32,C  31,C  30)      1.0381         0.028200   
    376. D(H  65,C  32,C  25,C  28)   -179.3709         0.027722   
    377. D(H  65,C  32,C  25,C  24)      0.3488         0.027722   
    378. D(C  31,C  32,C  25,C  28)      0.7066         0.027722   
    379. D(C  31,C  32,C  25,C  24)   -179.5737         0.027722   
    380. D(H  68,C  33,O  19,C   0)     40.7977         0.022631   
    381. D(H  67,C  33,O  19,C   0)    -81.3183         0.022631   
    382. D(H  66,C  33,O  19,C   0)    159.5596         0.022631   
    383. D(H  71,C  34,O  18,C   2)    179.5247         0.021990   
    384. D(H  70,C  34,O  18,C   2)     60.9441         0.021990   
    385. D(H  69,C  34,O  18,C   2)    -61.8126         0.021990   
    386. D(H  74,C  35,O  22,C  12)    -63.7390         0.023850   
    387. D(H  73,C  35,O  22,C  12)    177.7468         0.023850   
    388. D(H  72,C  35,O  22,C  12)     59.0201         0.023850   
    389. D(H  75,O  36,C  24,H  59)    173.1996         0.021544   
    390. D(H  75,O  36,C  24,C  25)     53.6140         0.021544   
    391. D(H  75,O  36,C  24,C  23)    -70.0809         0.021544   
    392. D(H  76,O  37,C  16,H  54)     60.1884         0.022328   
    393. D(H  76,O  37,C  16,H  53)    177.2964         0.022328   
    394. D(H  76,O  37,C  16,C   7)    -61.6091         0.022328   
    395. D(H  77,O  38,C  17,H  56)     63.2039         0.021659   
    396. D(H  77,O  38,C  17,H  55)    179.8188         0.021659   
    397. D(H  77,O  38,C  17,C   8)    -59.7372         0.021659   
    398. D(C  41,O  39,C  29,C  30)   -172.7975         0.029982   
    399. D(C  41,O  39,C  29,C  28)      7.9191         0.029982   
    400. D(H  78,O  40,C  30,C  31)   -179.3527         0.029894   
    401. D(H  78,O  40,C  30,C  29)      0.8359         0.029894   
    402. D(H  81,C  41,O  39,C  29)    176.0977         0.023077   
    403. D(H  80,C  41,O  39,C  29)     57.0219         0.023077   
    404. D(H  79,C  41,O  39,C  29)    -65.4597         0.023077   
    -----------------------------------------------------------------

Number of atoms                         .... 82
Number of degrees of freedom            .... 404


         *************************************************************
         *                GEOMETRY OPTIMIZATION CYCLE   1            *
         *************************************************************
---------------------------------
CARTESIAN COORDINATES (ANGSTROEM)
---------------------------------
  C     21.676958  -32.083304   -1.495009
  C     21.226936  -32.253332   -2.806427
  C     19.840607  -32.267949   -3.049369
  C     18.942990  -32.215652   -1.996274
  C     19.395254  -32.123796   -0.686313
  C     20.754114  -32.046288   -0.451345
  C     18.426018  -32.105490    0.461289
  C     18.403116  -33.464668    1.174536
  C     17.733169  -33.434650    2.558502
  C     18.636140  -32.798480    3.627226
  C     20.000381  -33.420591    3.714895
  C     20.138934  -34.787599    3.946689
  C     21.391791  -35.365439    4.031848
  C     22.541389  -34.566410    3.913741
  C     22.403066  -33.211115    3.678437
  C     21.141918  -32.648665    3.571574
  C     17.750646  -34.535501    0.286714
  C     16.369175  -32.731354    2.566978
  O     19.475172  -32.333904   -4.366416
  O     22.981023  -31.955105   -1.113058
  O     22.119673  -32.319584   -3.861932
  O     23.779529  -35.122654    4.027571
  O     21.643873  -36.707550    4.229063
  C     22.087683  -33.481646   -4.684810
  C     22.920429  -34.638760   -4.074221
  C     22.343478  -35.056305   -2.741093
  C     22.642641  -33.041546   -6.042402
  O     21.720585  -32.245074   -6.736219
  C     23.084074  -34.890027   -1.576348
  C     22.549876  -35.234155   -0.348169
  C     21.262650  -35.789847   -0.285988
  C     20.540231  -35.988882   -1.446693
  C     21.075585  -35.613256   -2.667132
  C     23.929806  -31.433359   -2.021822
  C     18.106894  -32.336197   -4.692749
  C     20.545318  -37.583924    4.293613
  O     23.006398  -35.714349   -4.980827
  O     17.849886  -35.823254    0.838922
  O     15.668798  -32.941470    3.770963
  O     23.172235  -35.098287    0.861147
  O     20.734679  -36.134112    0.927265
  C     24.401881  -34.407183    0.898887
  H     17.881571  -32.235351   -2.182798
  H     21.137294  -31.947414    0.552187
  H     17.425958  -31.859057    0.102977
  H     18.736171  -31.340893    1.173801
  H     19.443413  -33.773087    1.330800
  H     17.558498  -34.483445    2.829617
  H     18.127786  -32.890729    4.591054
  H     18.741996  -31.732260    3.420081
  H     19.255102  -35.393919    4.059055
  H     23.291290  -32.607618    3.584132
  H     21.052748  -31.588420    3.387550
  H     16.680825  -34.343546    0.169207
  H     18.218157  -34.501561   -0.707108
  H     16.492135  -31.648753    2.493488
  H     15.763233  -33.071760    1.716288
  H     23.662974  -36.069159    4.186280
  H     21.056592  -33.825012   -4.825870
  H     23.952709  -34.295617   -3.947370
  H     22.846360  -33.914847   -6.664310
  H     23.581053  -32.494179   -5.871278
  H     21.362242  -31.607148   -6.105890
  H     24.078940  -34.481306   -1.639625
  H     19.562690  -36.440224   -1.387653
  H     20.485801  -35.761356   -3.560649
  H     24.762481  -31.087811   -1.407244
  H     24.283988  -32.190346   -2.724297
  H     23.518316  -30.594514   -2.585468
  H     17.593947  -33.206662   -4.271582
  H     17.612472  -31.421349   -4.352603
  H     18.070096  -32.384836   -5.780065
  H     19.951892  -37.546440    3.375100
  H     20.970567  -38.579456    4.410351
  H     19.907270  -37.360811    5.154023
  H     22.139124  -36.130013   -5.051658
  H     18.792396  -36.041209    0.915865
  H     15.531795  -33.889347    3.881047
  H     21.391105  -35.905335    1.603509
  H     25.176422  -34.948700    0.347567
  H     24.288379  -33.399502    0.491656
  H     24.673667  -34.358999    1.951329

----------------------------
CARTESIAN COORDINATES (A.U.)
----------------------------
  NO LB      ZA    FRAG     MASS         X           Y           Z
   0 C     6.0000    0    12.011   40.963514  -60.628658   -2.825157
   1 C     6.0000    0    12.011   40.113096  -60.949964   -5.303378
   2 C     6.0000    0    12.011   37.493313  -60.977586   -5.762472
   3 C     6.0000    0    12.011   35.797064  -60.878759   -3.772411
   4 C     6.0000    0    12.011   36.651718  -60.705176   -1.296943
   5 C     6.0000    0    12.011   39.219592  -60.558709   -0.852917
   6 C     6.0000    0    12.011   34.820128  -60.670583    0.871710
   7 C     6.0000    0    12.011   34.776849  -63.239057    2.219552
   8 C     6.0000    0    12.011   33.510834  -63.182331    4.834868
   9 C     6.0000    0    12.011   35.217201  -61.980145    6.854464
  10 C     6.0000    0    12.011   37.795242  -63.155764    7.020134
  11 C     6.0000    0    12.011   38.057069  -65.739035    7.458162
  12 C     6.0000    0    12.011   40.424626  -66.830995    7.619089
  13 C     6.0000    0    12.011   42.597052  -65.321048    7.395899
  14 C     6.0000    0    12.011   42.335659  -62.759912    6.951238
  15 C     6.0000    0    12.011   39.952436  -61.697035    6.749297
  16 C     6.0000    0    12.011   33.543859  -65.262639    0.541810
  17 C     6.0000    0    12.011   30.933259  -61.853295    4.850886
  18 O     8.0000    0    15.999   36.802742  -61.102223   -8.251330
  19 O     8.0000    0    15.999   43.427839  -60.386396   -2.103375
  20 O     8.0000    0    15.999   41.800125  -61.075163   -7.297994
  21 O     8.0000    0    15.999   44.936798  -66.372197    7.611007
  22 O     8.0000    0    15.999   40.900992  -69.367216    7.991770
  23 C     6.0000    0    12.011   41.739672  -63.271142   -8.853009
  24 C     6.0000    0    12.011   43.313334  -65.457771   -7.699162
  25 C     6.0000    0    12.011   42.223054  -66.246816   -5.179914
  26 C     6.0000    0    12.011   42.788390  -62.439473  -11.418485
  27 O     8.0000    0    15.999   41.045957  -60.934359  -12.729609
  28 C     6.0000    0    12.011   43.622578  -65.932595   -2.978866
  29 C     6.0000    0    12.011   42.613090  -66.582904   -0.657944
  30 C     6.0000    0    12.011   40.180585  -67.633010   -0.540439
  31 C     6.0000    0    12.011   38.815412  -68.009131   -2.733854
  32 C     6.0000    0    12.011   39.827083  -67.299301   -5.040149
  33 C     6.0000    0    12.011   45.220779  -59.400441   -3.820691
  34 C     6.0000    0    12.011   34.217070  -61.106557   -8.868010
  35 C     6.0000    0    12.011   38.825024  -71.023323    8.113752
  36 O     8.0000    0    15.999   43.475791  -67.490339   -9.412399
  37 O     8.0000    0    15.999   33.731396  -67.696140    1.585334
  38 O     8.0000    0    15.999   29.609737  -62.250356    7.126088
  39 O     8.0000    0    15.999   43.789178  -66.326150    1.627332
  40 O     8.0000    0    15.999   39.182865  -68.283577    1.752277
  41 C     6.0000    0    12.011   46.112872  -65.020153    1.698650
  42 H     1.0000    0     1.008   33.791272  -60.915985   -4.124891
  43 H     1.0000    0     1.008   39.943696  -60.371863    1.043482
  44 H     1.0000    0     1.008   32.930288  -60.204893    0.194599
  45 H     1.0000    0     1.008   35.406232  -59.225705    2.218162
  46 H     1.0000    0     1.008   36.742725  -63.821885    2.514847
  47 H     1.0000    0     1.008   33.180752  -65.164267    5.347201
  48 H     1.0000    0     1.008   34.256551  -62.154471    8.675835
  49 H     1.0000    0     1.008   35.417240  -59.965280    6.463016
  50 H     1.0000    0     1.008   36.386869  -66.884815    7.670502
  51 H     1.0000    0     1.008   44.014159  -61.619468    6.773027
  52 H     1.0000    0     1.008   39.783928  -59.693463    6.401542
  53 H     1.0000    0     1.008   31.522191  -64.899896    0.319755
  54 H     1.0000    0     1.008   34.427326  -65.198502   -1.336240
  55 H     1.0000    0     1.008   31.165618  -59.807475    4.712010
  56 H     1.0000    0     1.008   29.788193  -62.496569    3.243315
  57 H     1.0000    0     1.008   44.716540  -68.160832    7.910923
  58 H     1.0000    0     1.008   39.791192  -63.920009   -9.119574
  59 H     1.0000    0     1.008   45.264060  -64.809325   -7.459449
  60 H     1.0000    0     1.008   43.173363  -64.089773  -12.593721
  61 H     1.0000    0     1.008   44.561732  -61.405099  -11.095107
  62 H     1.0000    0     1.008   40.368786  -59.728853  -11.538460
  63 H     1.0000    0     1.008   45.502602  -65.160225   -3.098443
  64 H     1.0000    0     1.008   36.968126  -68.862043   -2.622285
  65 H     1.0000    0     1.008   38.712553  -67.579170   -6.728652
  66 H     1.0000    0     1.008   46.794307  -58.747449   -2.659305
  67 H     1.0000    0     1.008   45.890087  -60.830939   -5.148174
  68 H     1.0000    0     1.008   44.443177  -57.815252   -4.885826
  69 H     1.0000    0     1.008   33.247742  -62.751496   -8.072121
  70 H     1.0000    0     1.008   33.282749  -59.377745   -8.225229
  71 H     1.0000    0     1.008   34.147533  -61.198472  -10.922739
  72 H     1.0000    0     1.008   37.703611  -70.952489    6.378015
  73 H     1.0000    0     1.008   39.628629  -72.904606    8.334356
  74 H     1.0000    0     1.008   37.619289  -70.601702    9.739693
  75 H     1.0000    0     1.008   41.836882  -68.275830   -9.546250
  76 H     1.0000    0     1.008   35.512482  -68.108015    1.730734
  77 H     1.0000    0     1.008   29.350839  -64.041585    7.334116
  78 H     1.0000    0     1.008   40.423331  -67.851250    3.030193
  79 H     1.0000    0     1.008   47.576542  -66.043472    0.656807
  80 H     1.0000    0     1.008   45.898384  -63.115912    0.929095
  81 H     1.0000    0     1.008   46.626474  -64.929099    3.687477

--------------------------------
INTERNAL COORDINATES (ANGSTROEM)
--------------------------------
 C      0   0   0     0.000000000000     0.00000000     0.00000000
 C      1   0   0     1.396870377459     0.00000000     0.00000000
 C      2   1   0     1.407530766597   118.72582400     0.00000000
 C      3   2   1     1.384723261124   120.45133937   355.21146011
 C      4   3   2     1.388876511801   120.57802188     1.16248617
 C      5   4   3     1.381202189391   118.98161850     1.85515069
 C      5   4   3     1.502245921154   120.74574830   181.71995570
 C      7   5   4     1.535125266688   110.71804988   103.96132182
 C      8   7   5     1.537885206951   114.03746848   164.88452509
 C      9   8   7     1.536957821995   112.20374839   284.10760920
 C     10   9   8     1.501952217591   113.75215051   306.44853762
 C     11  10   9     1.393425943398   120.42266644   303.52689526
 C     12  11  10     1.382317611993   120.69490007   180.16784051
 C     13  12  11     1.404981739887   119.91309580     1.41880092
 C     14  13  12     1.382506909015   119.33789570   358.34292793
 C     15  14  13     1.385013700002   120.15498117     0.51624864
 C      8   7   5     1.536434516034   110.78955096   290.16919048
 C      9   8   7     1.534658313227   113.64690821    48.59499032
 O      3   2   1     1.368395260573   115.44573679   175.12657116
 O      1   2   3     1.364883005129   125.58880093   184.80818666
 O      2   1   3     1.384001833490   120.93134189   175.84210314
 O     14  13  12     1.362114415733   120.29747020   178.46440747
 O     13  12  11     1.379746194384   125.52209837   181.46427352
 C     21   2   1     1.424268664452   117.72268780   122.66690476
 C     24  21   2     1.550870041084   111.66763817   276.27699032
 C     25  24  21     1.511439006146   110.39003447    62.34943635
 C     24  21   2     1.531248362547   105.63998492   154.71441332
 O     27  24  21     1.402118150192   111.32431809   286.90472223
 C     26  25  24     1.390237841200   120.17039688   244.28976784
 C     29  26  25     1.382829309905   120.56733182   178.16755007
 C     30  29  26     1.403428526012   119.48592217     1.75844694
 C     31  30  29     1.381571839203   119.96166457     0.00000000
 C     32  31  30     1.384618402425   119.95099456   358.60930489
 C     20   1   2     1.413597876939   119.73840063    26.65572311
 C     19   3   2     1.406657111812   118.89017421   180.76312583
 C     23  13  12     1.406777053499   118.02518100     2.92063865
 O     25  24  21     1.409331808226   110.42052326   187.15513954
 O     17   8   7     1.404667524419   112.44412227   173.08125584
 O     18   9   8     1.408636480103   112.22678479   168.56338823
 O     30  29  26     1.366834224948   125.81533457   181.01054316
 O     31  30  29     1.367207027666   119.55192381   179.81438352
 C     40  30  29     1.411055497982   117.97845847     7.91909891
 H      4   3   2     1.077864207395   120.40053759   180.52203585
 H      6   5   4     1.078739215559   120.85495586   178.34889194
 H      7   5   4     1.090521451633   110.08551638   342.34193222
 H      7   5   4     1.090172255764   108.92157690   223.50417994
 H      8   7   5     1.096247395841   107.52768383    46.55379982
 H      9   8   7     1.097262436403   105.84548811   165.93344167
 H     10   9   8     1.093571244603   107.74797027   184.70542100
 H     10   9   8     1.091302127363   109.23247794    68.63392197
 H     12  11  10     1.077687080849   119.19236975     0.20343566
 H     15  14  13     1.077981103193   118.76838737   180.32472656
 H     16  15  14     1.079784376323   119.14977644   180.00545736
 H     17   8   7     1.093238742027   110.81200621   291.26257931
 H     17   8   7     1.098817412731   108.68844624    50.13539707
 H     18   9   8     1.092037354967   110.72411662   285.72480017
 H     18   9   8     1.098506331145   110.11928140    45.71035445
 H     22  14  13     0.966770327406   107.69427877     0.03107308
 H     24  21   2     1.095877182809   110.55723253    37.55374060
 H     25  24  21     1.095189162988   108.53858358   301.55607440
 H     27  24  21     1.091295858010   110.05406331   168.21849514
 H     27  24  21     1.099778056542   108.32095451    48.98820808
 H     28  27  24     0.965750734568   107.23335109    44.82666601
 H     29  26  25     1.077411023743   119.21356718   358.66933259
 H     32  31  30     1.078323601360   119.23058537   178.42532243
 H     33  32  31     1.080810783109   118.71966565   181.11408572
 H     34  20   1     1.091081294140   105.48586586   159.55960336
 H     34  20   1     1.091762101193   112.05351741   278.68167399
 H     34  20   1     1.091183645918   111.26641857    40.79765047
 H     35  19   3     1.094625038559   111.58339807   298.18737933
 H     35  19   3     1.094119968123   111.47374940    60.94408022
 H     35  19   3     1.089025163613   105.34129237   179.52474173
 H     36  23  13     1.094177789443   111.32523846    59.02008639
 H     36  23  13     1.088829093701   105.63568530   177.74681101
 H     36  23  13     1.094162068158   111.37225602   296.26103224
 H     37  25  24     0.964342712659   108.74462889   289.91907432
 H     38  17   8     0.970437691147   107.79953754   298.39094093
 H     39  18   9     0.964032911681   108.35617381   300.26278430
 H     41  31  30     0.969814608189   107.33714862     0.83594961
 H     42  40  30     1.094123738731   111.16253099   294.54029278
 H     42  40  30     1.092767801427   110.55839423    57.02189558
 H     42  40  30     1.088036501773   105.38130296   176.09769999

---------------------------
INTERNAL COORDINATES (A.U.)
---------------------------
 C      0   0   0     0.000000000000     0.00000000     0.00000000
 C      1   0   0     2.639702457984     0.00000000     0.00000000
 C      2   1   0     2.659847673937   118.72582400     0.00000000
 C      3   2   1     2.616747734795   120.45133937   355.21146011
 C      4   3   2     2.624596241140   120.57802188     1.16248617
 C      5   4   3     2.610093873521   118.98161850     1.85515069
 C      5   4   3     2.838833376782   120.74574830   181.71995570
 C      7   5   4     2.900966335302   110.71804988   103.96132182
 C      8   7   5     2.906181866547   114.03746848   164.88452509
 C      9   8   7     2.904429362959   112.20374839   284.10760920
 C     10   9   8     2.838278357484   113.75215051   306.44853762
 C     11  10   9     2.633193420924   120.42266644   303.52689526
 C     12  11  10     2.612201716763   120.69490007   180.16784051
 C     13  12  11     2.655030711546   119.91309580     1.41880092
 C     14  13  12     2.612559436292   119.33789570   358.34292793
 C     15  14  13     2.617296584733   120.15498117     0.51624864
 C      8   7   5     2.903440458008   110.78955096   290.16919048
 C      9   8   7     2.900083921144   113.64690821    48.59499032
 O      3   2   1     2.585892285439   115.44573679   175.12657116
 O      1   2   3     2.579255084537   125.58880093   184.80818666
 O      2   1   3     2.615384434141   120.93134189   175.84210314
 O     14  13  12     2.574023208801   120.29747020   178.46440747
 O     13  12  11     2.607342441706   125.52209837   181.46427352
 C     21   2   1     2.691477716941   117.72268780   122.66690476
 C     24  21   2     2.930719646953   111.66763817   276.27699032
 C     25  24  21     2.856205789742   110.39003447    62.34943635
 C     24  21   2     2.893640048229   105.63998492   154.71441332
 O     27  24  21     2.649619311264   111.32431809   286.90472223
 C     26  25  24     2.627168780882   120.17039688   244.28976784
 C     29  26  25     2.613168685681   120.56733182   178.16755007
 C     30  29  26     2.652095562696   119.48592217     1.75844694
 C     31  30  29     2.610792410432   119.96166457     0.00000000
 C     32  31  30     2.616549580572   119.95099456   358.60930489
 C     20   1   2     2.671312850907   119.73840063    26.65572311
 C     19   3   2     2.658196705658   118.89017421   180.76312583
 C     23  13  12     2.658423362598   118.02518100     2.92063865
 O     25  24  21     2.663251149371   110.42052326   187.15513954
 O     17   8   7     2.654436930365   112.44412227   173.08125584
 O     18   9   8     2.661937169646   112.22678479   168.56338823
 O     30  29  26     2.582942355621   125.81533457   181.01054316
 O     31  30  29     2.583646850661   119.55192381   179.81438352
 C     40  30  29     2.666508450950   117.97845847     7.91909891
 H      4   3   2     2.036868161532   120.40053759   180.52203585
 H      6   5   4     2.038521687328   120.85495586   178.34889194
 H      7   5   4     2.060786886753   110.08551638   342.34193222
 H      7   5   4     2.060127002193   108.92157690   223.50417994
 H      8   7   5     2.071607353164   107.52768383    46.55379982
 H      9   8   7     2.073525501841   105.84548811   165.93344167
 H     10   9   8     2.066550160232   107.74797027   184.70542100
 H     10   9   8     2.062262150082   109.23247794    68.63392197
 H     12  11  10     2.036533440869   119.19236975     0.20343566
 H     15  14  13     2.037089062577   118.76838737   180.32472656
 H     16  15  14     2.040496754937   119.14977644   180.00545736
 H     17   8   7     2.065921821423   110.81200621   291.26257931
 H     17   8   7     2.076463981245   108.68844624    50.13539707
 H     18   9   8     2.063651528900   110.72411662   285.72480017
 H     18   9   8     2.075876122243   110.11928140    45.71035445
 H     22  14  13     1.826931153199   107.69427877     0.03107308
 H     24  21   2     2.070907751922   110.55723253    37.55374060
 H     25  24  21     2.069607582885   108.53858358   301.55607440
 H     27  24  21     2.062250302722   110.05406331   168.21849514
 H     27  24  21     2.078279334961   108.32095451    48.98820808
 H     28  27  24     1.825004401968   107.23335109    44.82666601
 H     29  26  25     2.036011768542   119.21356718   358.66933259
 H     32  31  30     2.037736290315   119.23058537   178.42532243
 H     33  32  31     2.042436382665   118.71966565   181.11408572
 H     34  20   1     2.061844835769   105.48586586   159.55960336
 H     34  20   1     2.063131374649   112.05351741   278.68167399
 H     34  20   1     2.062038252598   111.26641857    40.79765047
 H     35  19   3     2.068541542210   111.58339807   298.18737933
 H     35  19   3     2.067587097407   111.47374940    60.94408022
 H     35  19   3     2.057959312177   105.34129237   179.52474173
 H     36  23  13     2.067696363866   111.32523846    59.02008639
 H     36  23  13     2.057588793740   105.63568530   177.74681101
 H     36  23  13     2.067666654943   111.37225602   296.26103224
 H     37  25  24     1.822343626168   108.74462889   289.91907432
 H     38  17   8     1.833861466304   107.79953754   298.39094093
 H     39  18   9     1.821758187163   108.35617381   300.26278430
 H     41  31  30     1.832684010154   107.33714862     0.83594961
 H     42  40  30     2.067594222824   111.16253099   294.54029278
 H     42  40  30     2.065031872665   110.55839423    57.02189558
 H     42  40  30     2.056091012060   105.38130296   176.09769999

---------------------
BASIS SET INFORMATION
---------------------
There are 3 groups of distinct atoms

 Group   1 Type C   : 11s6p2d1f contracted to 5s3p2d1f pattern {62111/411/11/1}
 Group   2 Type O   : 11s6p2d1f contracted to 5s3p2d1f pattern {62111/411/11/1}
 Group   3 Type H   : 5s1p contracted to 3s1p pattern {311/1}

Atom   0C    basis set group =>   1
Atom   1C    basis set group =>   1
Atom   2C    basis set group =>   1
Atom   3C    basis set group =>   1
Atom   4C    basis set group =>   1
Atom   5C    basis set group =>   1
Atom   6C    basis set group =>   1
Atom   7C    basis set group =>   1
Atom   8C    basis set group =>   1
Atom   9C    basis set group =>   1
Atom  10C    basis set group =>   1
Atom  11C    basis set group =>   1
Atom  12C    basis set group =>   1
Atom  13C    basis set group =>   1
Atom  14C    basis set group =>   1
Atom  15C    basis set group =>   1
Atom  16C    basis set group =>   1
Atom  17C    basis set group =>   1
Atom  18O    basis set group =>   2
Atom  19O    basis set group =>   2
Atom  20O    basis set group =>   2
Atom  21O    basis set group =>   2
Atom  22O    basis set group =>   2
Atom  23C    basis set group =>   1
Atom  24C    basis set group =>   1
Atom  25C    basis set group =>   1
Atom  26C    basis set group =>   1
Atom  27O    basis set group =>   2
Atom  28C    basis set group =>   1
Atom  29C    basis set group =>   1
Atom  30C    basis set group =>   1
Atom  31C    basis set group =>   1
Atom  32C    basis set group =>   1
Atom  33C    basis set group =>   1
Atom  34C    basis set group =>   1
Atom  35C    basis set group =>   1
Atom  36O    basis set group =>   2
Atom  37O    basis set group =>   2
Atom  38O    basis set group =>   2
Atom  39O    basis set group =>   2
Atom  40O    basis set group =>   2
Atom  41C    basis set group =>   1
Atom  42H    basis set group =>   3
Atom  43H    basis set group =>   3
Atom  44H    basis set group =>   3
Atom  45H    basis set group =>   3
Atom  46H    basis set group =>   3
Atom  47H    basis set group =>   3
Atom  48H    basis set group =>   3
Atom  49H    basis set group =>   3
Atom  50H    basis set group =>   3
Atom  51H    basis set group =>   3
Atom  52H    basis set group =>   3
Atom  53H    basis set group =>   3
Atom  54H    basis set group =>   3
Atom  55H    basis set group =>   3
Atom  56H    basis set group =>   3
Atom  57H    basis set group =>   3
Atom  58H    basis set group =>   3
Atom  59H    basis set group =>   3
Atom  60H    basis set group =>   3
Atom  61H    basis set group =>   3
Atom  62H    basis set group =>   3
Atom  63H    basis set group =>   3
Atom  64H    basis set group =>   3
Atom  65H    basis set group =>   3
Atom  66H    basis set group =>   3
Atom  67H    basis set group =>   3
Atom  68H    basis set group =>   3
Atom  69H    basis set group =>   3
Atom  70H    basis set group =>   3
Atom  71H    basis set group =>   3
Atom  72H    basis set group =>   3
Atom  73H    basis set group =>   3
Atom  74H    basis set group =>   3
Atom  75H    basis set group =>   3
Atom  76H    basis set group =>   3
Atom  77H    basis set group =>   3
Atom  78H    basis set group =>   3
Atom  79H    basis set group =>   3
Atom  80H    basis set group =>   3
Atom  81H    basis set group =>   3
---------------------------------
AUXILIARY/J BASIS SET INFORMATION
---------------------------------
There are 3 groups of distinct atoms

 Group   1 Type C   : 12s5p4d2f1g contracted to 6s4p3d1f1g pattern {711111/2111/211/2/1}
 Group   2 Type O   : 12s5p4d2f1g contracted to 6s4p3d1f1g pattern {711111/2111/211/2/1}
 Group   3 Type H   : 5s2p1d contracted to 3s1p1d pattern {311/2/1}

Atom   0C    basis set group =>   1
Atom   1C    basis set group =>   1
Atom   2C    basis set group =>   1
Atom   3C    basis set group =>   1
Atom   4C    basis set group =>   1
Atom   5C    basis set group =>   1
Atom   6C    basis set group =>   1
Atom   7C    basis set group =>   1
Atom   8C    basis set group =>   1
Atom   9C    basis set group =>   1
Atom  10C    basis set group =>   1
Atom  11C    basis set group =>   1
Atom  12C    basis set group =>   1
Atom  13C    basis set group =>   1
Atom  14C    basis set group =>   1
Atom  15C    basis set group =>   1
Atom  16C    basis set group =>   1
Atom  17C    basis set group =>   1
Atom  18O    basis set group =>   2
Atom  19O    basis set group =>   2
Atom  20O    basis set group =>   2
Atom  21O    basis set group =>   2
Atom  22O    basis set group =>   2
Atom  23C    basis set group =>   1
Atom  24C    basis set group =>   1
Atom  25C    basis set group =>   1
Atom  26C    basis set group =>   1
Atom  27O    basis set group =>   2
Atom  28C    basis set group =>   1
Atom  29C    basis set group =>   1
Atom  30C    basis set group =>   1
Atom  31C    basis set group =>   1
Atom  32C    basis set group =>   1
Atom  33C    basis set group =>   1
Atom  34C    basis set group =>   1
Atom  35C    basis set group =>   1
Atom  36O    basis set group =>   2
Atom  37O    basis set group =>   2
Atom  38O    basis set group =>   2
Atom  39O    basis set group =>   2
Atom  40O    basis set group =>   2
Atom  41C    basis set group =>   1
Atom  42H    basis set group =>   3
Atom  43H    basis set group =>   3
Atom  44H    basis set group =>   3
Atom  45H    basis set group =>   3
Atom  46H    basis set group =>   3
Atom  47H    basis set group =>   3
Atom  48H    basis set group =>   3
Atom  49H    basis set group =>   3
Atom  50H    basis set group =>   3
Atom  51H    basis set group =>   3
Atom  52H    basis set group =>   3
Atom  53H    basis set group =>   3
Atom  54H    basis set group =>   3
Atom  55H    basis set group =>   3
Atom  56H    basis set group =>   3
Atom  57H    basis set group =>   3
Atom  58H    basis set group =>   3
Atom  59H    basis set group =>   3
Atom  60H    basis set group =>   3
Atom  61H    basis set group =>   3
Atom  62H    basis set group =>   3
Atom  63H    basis set group =>   3
Atom  64H    basis set group =>   3
Atom  65H    basis set group =>   3
Atom  66H    basis set group =>   3
Atom  67H    basis set group =>   3
Atom  68H    basis set group =>   3
Atom  69H    basis set group =>   3
Atom  70H    basis set group =>   3
Atom  71H    basis set group =>   3
Atom  72H    basis set group =>   3
Atom  73H    basis set group =>   3
Atom  74H    basis set group =>   3
Atom  75H    basis set group =>   3
Atom  76H    basis set group =>   3
Atom  77H    basis set group =>   3
Atom  78H    basis set group =>   3
Atom  79H    basis set group =>   3
Atom  80H    basis set group =>   3
Atom  81H    basis set group =>   3
--------------------------------------------------------------------------
WARNING: There was an error initializing an OpenFabrics device.

  Local host:   c09b01n05
  Local device: mlx5_0
--------------------------------------------------------------------------
--------------------------------------------------------------------------
WARNING: There is at least one non-excluded one OpenFabrics device found,
but there are no active ports detected (or Open MPI was unable to use
them).  This is most certainly not what you wanted.  Check your
cables, subnet manager configuration, etc.  The openib BTL will be
ignored for this job.

  Local host: c09b01n05
--------------------------------------------------------------------------
[c09b01n05:3653290] [[62807,0],0] ORTE_ERROR_LOG: Data unpack would read past end of buffer in file util/show_help.c at line 501


           ************************************************************
           *        Program running with 64 parallel MPI-processes    *
           *              working on a common directory               *
           ************************************************************
------------------------------------------------------------------------------
                             ORCA STARTUP CALCULATIONS
                           -- RI-GTO INTEGRALS CHOSEN --
------------------------------------------------------------------------------
------------------------------------------------------------------------------
                   ___                                                        
                  /   \      - P O W E R E D   B Y -                         
                 /     \                                                     
                 |  |  |   _    _      __       _____    __    __             
                 |  |  |  | |  | |    /  \     |  _  \  |  |  /  |          
                  \  \/   | |  | |   /    \    | | | |  |  | /  /          
                 / \  \   | |__| |  /  /\  \   | |_| |  |  |/  /          
                |  |  |   |  __  | /  /__\  \  |    /   |      \           
                |  |  |   | |  | | |   __   |  |    \   |  |\   \          
                \     /   | |  | | |  |  |  |  | |\  \  |  | \   \       
                 \___/    |_|  |_| |__|  |__|  |_| \__\ |__|  \__/        
                                                                              
                      - O R C A' S   B I G   F R I E N D -                    
                                      &                                       
                       - I N T E G R A L  F E E D E R -                       
                                                                              
 v1 FN, 2020, v2 2021, v3 2022-2024                                           
------------------------------------------------------------------------------


[c09b01n05:3653290] 59 more processes have sent help message help-mpi-btl-openib.txt / error in device init
[c09b01n05:3653290] Set MCA parameter "orte_base_help_aggregate" to 0 to see all help / error messages
[c09b01n05:3653290] 2 more processes have sent help message help-mpi-btl-openib.txt / no active ports found
----------------------
SHARK INTEGRAL PACKAGE
----------------------

Number of atoms                             ...     82
Number of basis functions                   ...   1542
Number of shells                            ...    622
Maximum angular momentum                    ...      3
Integral batch strategy                     ... SHARK/LIBINT Hybrid
RI-J (if used) integral strategy            ... SPLIT-RIJ (Revised 2003 algorithm where possible)
Printlevel                                  ...      1
Contraction scheme used                     ... SEGMENTED contraction
Prescreening option                         ... SCHWARTZ
   Thresh                                   ... 2.500e-11
   Tcut                                     ... 2.500e-12
   Tpresel                                  ... 2.500e-12 
Coulomb Range Separation                    ... NOT USED
Exchange Range Separation                   ... NOT USED
Multipole approximations                    ... NOT USED
Finite Nucleus Model                        ... NOT USED
CABS basis                                  ... NOT available
Auxiliary Coulomb fitting basis             ... AVAILABLE
   # of basis functions in Aux-J            ...   2498
   # of shells in Aux-J                     ...    830
   Maximum angular momentum in Aux-J        ...      4
Auxiliary J/K fitting basis                 ... NOT available
Auxiliary Correlation fitting basis         ... NOT available
Auxiliary 'external' fitting basis          ... NOT available

Checking pre-screening integrals            ... done (  0.3 sec) Dimension = 622
   => SHARK Basis and OBASIS are compatible. Storing Pre-screening
Shell pair information
Shell pair cut-off parameter TPreSel        ...   2.5e-12
Total number of shell pairs                 ...    193753
Shell pairs after pre-screening             ...    115164
Total number of primitive shell pairs       ...    584784
Primitive shell pairs kept                  ...    217231
          la=0 lb=0:  31997 shell pairs
          la=1 lb=0:  34357 shell pairs
          la=1 lb=1:   9314 shell pairs
          la=2 lb=0:  15657 shell pairs
          la=2 lb=1:   8583 shell pairs
          la=2 lb=2:   1970 shell pairs
          la=3 lb=0:   7113 shell pairs
          la=3 lb=1:   3997 shell pairs
          la=3 lb=2:   1755 shell pairs
          la=3 lb=3:    421 shell pairs

Checking whether 4 symmetric matrices of dimension 1542 fit in memory
:Max Core in MB      =   6000.00
 MB in use           =    138.01
 MB left             =   5861.99
 MB needed           =     36.31
 Data fit in memory  = YES
Calculating RI/J V-Matrix + Cholesky decomp.... done (  2.4 sec)
Calculating Nuclear repulsion               ... done (  0.0 sec) ENN=   5730.771132867219 Eh

Diagonalization of the overlap matrix:
Smallest eigenvalue                        ... 3.869e-06
Time for diagonalization                   ...   33.780 sec
Threshold for overlap eigenvalues          ... 1.000e-07
Number of eigenvalues below threshold      ... 0
Time for construction of square roots      ...    1.584 sec
Total time needed                          ...   35.661 sec

-------------------
DFT GRID GENERATION
-------------------

General Integration Accuracy     IntAcc      ... 4.388
Radial Grid Type                 RadialGrid  ... OptM3 with GC (2021)
Angular Grid (max. ang.)         AngularGrid ... 4 (Lebedev-302)
Angular grid pruning method      GridPruning ... 4 (adaptive)
Weight generation scheme         WeightScheme... mBecke (2022)
Basis function cutoff            BFCut       ... 1.0000e-11
Integration weight cutoff        WCut        ... 1.0000e-14
Partially contracted basis set               ... off
Rotationally invariant grid construction     ... off
Angular grids for H and He will be reduced by one unit

Total number of grid points                  ...   373531
Total number of batches                      ...     5881
Average number of points per batch           ...       63
Average number of grid points per atom       ...     4555

--------------------
COSX GRID GENERATION
--------------------

GRIDX 1
-------
General Integration Accuracy     IntAcc      ... 3.816
Radial Grid Type                 RadialGrid  ... OptM3 with GC (2021)
Angular Grid (max. ang.)         AngularGrid ... 1 (Lebedev-50)
Angular grid pruning method      GridPruning ... 4 (adaptive)
Weight generation scheme         WeightScheme... mBecke (2022)
Basis function cutoff            BFCut       ... 1.0000e-11
Integration weight cutoff        WCut        ... 1.0000e-14
Partially contracted basis set               ... on
Rotationally invariant grid construction     ... off
Angular grids for H and He will be reduced by one unit

Total number of grid points                  ...    47331
Total number of batches                      ...      417
Average number of points per batch           ...      113
Average number of grid points per atom       ...      577
UseSFitting                                  ... on

GRIDX 2
-------
General Integration Accuracy     IntAcc      ... 4.020
Radial Grid Type                 RadialGrid  ... OptM3 with GC (2021)
Angular Grid (max. ang.)         AngularGrid ... 2 (Lebedev-110)
Angular grid pruning method      GridPruning ... 4 (adaptive)
Weight generation scheme         WeightScheme... mBecke (2022)
Basis function cutoff            BFCut       ... 1.0000e-11
Integration weight cutoff        WCut        ... 1.0000e-14
[...]
freq.     631.23  E(vib)   ...       0.09 
freq.     636.53  E(vib)   ...       0.09 
freq.     654.51  E(vib)   ...       0.08 
freq.     664.47  E(vib)   ...       0.08 
freq.     710.04  E(vib)   ...       0.07 
freq.     728.28  E(vib)   ...       0.06 
freq.     747.59  E(vib)   ...       0.06 
freq.     749.10  E(vib)   ...       0.06 
freq.     759.90  E(vib)   ...       0.06 
freq.     776.93  E(vib)   ...       0.05 
freq.     791.05  E(vib)   ...       0.05 
freq.     803.47  E(vib)   ...       0.05 
freq.     809.43  E(vib)   ...       0.05 
freq.     814.33  E(vib)   ...       0.05 
freq.     832.16  E(vib)   ...       0.04 
freq.     840.07  E(vib)   ...       0.04 
freq.     853.82  E(vib)   ...       0.04 
freq.     867.94  E(vib)   ...       0.04 
freq.     878.67  E(vib)   ...       0.04 
freq.     881.20  E(vib)   ...       0.04 
freq.     882.19  E(vib)   ...       0.04 
freq.     900.08  E(vib)   ...       0.03 
freq.     903.36  E(vib)   ...       0.03 
freq.     928.64  E(vib)   ...       0.03 
freq.     934.82  E(vib)   ...       0.03 
freq.     940.02  E(vib)   ...       0.03 
freq.     947.94  E(vib)   ...       0.03 
freq.     958.87  E(vib)   ...       0.03 
freq.     962.29  E(vib)   ...       0.03 
freq.     968.80  E(vib)   ...       0.03 
freq.     983.76  E(vib)   ...       0.02 
freq.    1006.87  E(vib)   ...       0.02 
freq.    1028.07  E(vib)   ...       0.02 
freq.    1031.52  E(vib)   ...       0.02 
freq.    1038.31  E(vib)   ...       0.02 
freq.    1047.77  E(vib)   ...       0.02 
freq.    1048.38  E(vib)   ...       0.02 
freq.    1053.26  E(vib)   ...       0.02 
freq.    1064.03  E(vib)   ...       0.02 
freq.    1069.77  E(vib)   ...       0.02 
freq.    1078.61  E(vib)   ...       0.02 
freq.    1090.73  E(vib)   ...       0.02 
freq.    1102.54  E(vib)   ...       0.02 
freq.    1104.52  E(vib)   ...       0.02 
freq.    1122.36  E(vib)   ...       0.01 
freq.    1131.73  E(vib)   ...       0.01 
freq.    1142.48  E(vib)   ...       0.01 
freq.    1149.32  E(vib)   ...       0.01 
freq.    1167.39  E(vib)   ...       0.01 
freq.    1169.81  E(vib)   ...       0.01 
freq.    1170.77  E(vib)   ...       0.01 
freq.    1171.06  E(vib)   ...       0.01 
freq.    1171.58  E(vib)   ...       0.01 
freq.    1174.43  E(vib)   ...       0.01 
freq.    1176.05  E(vib)   ...       0.01 
freq.    1183.35  E(vib)   ...       0.01 
freq.    1198.33  E(vib)   ...       0.01 
freq.    1200.83  E(vib)   ...       0.01 
freq.    1203.41  E(vib)   ...       0.01 
freq.    1206.23  E(vib)   ...       0.01 
freq.    1215.94  E(vib)   ...       0.01 
freq.    1219.16  E(vib)   ...       0.01 
freq.    1220.77  E(vib)   ...       0.01 
freq.    1224.06  E(vib)   ...       0.01 
freq.    1228.89  E(vib)   ...       0.01 
freq.    1237.99  E(vib)   ...       0.01 
freq.    1246.10  E(vib)   ...       0.01 
freq.    1250.09  E(vib)   ...       0.01 
freq.    1250.86  E(vib)   ...       0.01 
freq.    1258.45  E(vib)   ...       0.01 
freq.    1269.69  E(vib)   ...       0.01 
freq.    1274.93  E(vib)   ...       0.01 
freq.    1288.38  E(vib)   ...       0.01 
freq.    1297.62  E(vib)   ...       0.01 
freq.    1304.53  E(vib)   ...       0.01 
freq.    1314.39  E(vib)   ...       0.01 
freq.    1321.10  E(vib)   ...       0.01 
freq.    1331.74  E(vib)   ...       0.01 
freq.    1340.06  E(vib)   ...       0.01 
freq.    1347.37  E(vib)   ...       0.01 
freq.    1347.83  E(vib)   ...       0.01 
freq.    1359.41  E(vib)   ...       0.01 
freq.    1365.11  E(vib)   ...       0.01 
freq.    1372.43  E(vib)   ...       0.01 
freq.    1375.34  E(vib)   ...       0.01 
freq.    1385.12  E(vib)   ...       0.00 
freq.    1391.28  E(vib)   ...       0.00 
freq.    1396.63  E(vib)   ...       0.00 
freq.    1397.30  E(vib)   ...       0.00 
freq.    1406.09  E(vib)   ...       0.00 
freq.    1410.66  E(vib)   ...       0.00 
freq.    1411.68  E(vib)   ...       0.00 
freq.    1419.28  E(vib)   ...       0.00 
freq.    1426.29  E(vib)   ...       0.00 
freq.    1429.51  E(vib)   ...       0.00 
freq.    1447.42  E(vib)   ...       0.00 
freq.    1460.09  E(vib)   ...       0.00 
freq.    1467.45  E(vib)   ...       0.00 
freq.    1474.28  E(vib)   ...       0.00 
freq.    1478.25  E(vib)   ...       0.00 
freq.    1479.05  E(vib)   ...       0.00 
freq.    1479.70  E(vib)   ...       0.00 
freq.    1480.65  E(vib)   ...       0.00 
freq.    1482.88  E(vib)   ...       0.00 
freq.    1486.30  E(vib)   ...       0.00 
freq.    1487.13  E(vib)   ...       0.00 
freq.    1487.96  E(vib)   ...       0.00 
freq.    1488.22  E(vib)   ...       0.00 
freq.    1490.82  E(vib)   ...       0.00 
freq.    1491.08  E(vib)   ...       0.00 
freq.    1492.15  E(vib)   ...       0.00 
freq.    1493.34  E(vib)   ...       0.00 
freq.    1494.35  E(vib)   ...       0.00 
freq.    1498.35  E(vib)   ...       0.00 
freq.    1508.49  E(vib)   ...       0.00 
freq.    1524.02  E(vib)   ...       0.00 
freq.    1541.97  E(vib)   ...       0.00 
freq.    1549.84  E(vib)   ...       0.00 
freq.    1617.16  E(vib)   ...       0.00 
freq.    1639.39  E(vib)   ...       0.00 
freq.    1642.71  E(vib)   ...       0.00 
freq.    1644.75  E(vib)   ...       0.00 
freq.    1648.54  E(vib)   ...       0.00 
freq.    1651.77  E(vib)   ...       0.00 
freq.    2989.68  E(vib)   ...       0.00 
freq.    3014.94  E(vib)   ...       0.00 
freq.    3017.40  E(vib)   ...       0.00 
freq.    3019.32  E(vib)   ...       0.00 
freq.    3021.52  E(vib)   ...       0.00 
freq.    3021.78  E(vib)   ...       0.00 
freq.    3025.92  E(vib)   ...       0.00 
freq.    3026.85  E(vib)   ...       0.00 
freq.    3029.53  E(vib)   ...       0.00 
freq.    3034.62  E(vib)   ...       0.00 
freq.    3038.07  E(vib)   ...       0.00 
freq.    3060.19  E(vib)   ...       0.00 
freq.    3065.65  E(vib)   ...       0.00 
freq.    3068.33  E(vib)   ...       0.00 
freq.    3074.35  E(vib)   ...       0.00 
freq.    3076.04  E(vib)   ...       0.00 
freq.    3081.02  E(vib)   ...       0.00 
freq.    3084.04  E(vib)   ...       0.00 
freq.    3086.30  E(vib)   ...       0.00 
freq.    3091.02  E(vib)   ...       0.00 
freq.    3109.52  E(vib)   ...       0.00 
freq.    3123.33  E(vib)   ...       0.00 
freq.    3125.05  E(vib)   ...       0.00 
freq.    3137.30  E(vib)   ...       0.00 
freq.    3142.55  E(vib)   ...       0.00 
freq.    3163.85  E(vib)   ...       0.00 
freq.    3170.44  E(vib)   ...       0.00 
freq.    3172.45  E(vib)   ...       0.00 
freq.    3182.00  E(vib)   ...       0.00 
freq.    3188.03  E(vib)   ...       0.00 
freq.    3193.63  E(vib)   ...       0.00 
freq.    3202.81  E(vib)   ...       0.00 
freq.    3210.71  E(vib)   ...       0.00 
freq.    3218.00  E(vib)   ...       0.00 
freq.    3637.53  E(vib)   ...       0.00 
freq.    3705.79  E(vib)   ...       0.00 
freq.    3725.29  E(vib)   ...       0.00 
freq.    3746.79  E(vib)   ...       0.00 
freq.    3762.41  E(vib)   ...       0.00 
freq.    3770.13  E(vib)   ...       0.00 

------------
INNER ENERGY
------------

The inner energy is: U= E(el) + E(ZPE) + E(vib) + E(rot) + E(trans)
    E(el)   - is the total energy from the electronic structure calculation
              = E(kin-el) + E(nuc-el) + E(el-el) + E(nuc-nuc)
    E(ZPE)  - the the zero temperature vibrational energy from the frequency calculation
    E(vib)  - the the finite temperature correction to E(ZPE) due to population
              of excited vibrational states
    E(rot)  - is the rotational thermal energy
    E(trans)- is the translational thermal energy

Summary of contributions to the inner energy U:
Electronic energy                ...  -2032.63041599 Eh
Zero point energy                ...      0.67807904 Eh     425.50 kcal/mol
Thermal vibrational correction   ...      0.04088787 Eh      25.66 kcal/mol
Thermal rotational correction    ...      0.00141627 Eh       0.89 kcal/mol
Thermal translational correction ...      0.00141627 Eh       0.89 kcal/mol
-----------------------------------------------------------------------
Total thermal energy                  -2031.90861654 Eh


Summary of corrections to the electronic energy:
(perhaps to be used in another calculation)
Total thermal correction                  0.04372041 Eh      27.43 kcal/mol
Non-thermal (ZPE) correction              0.67807904 Eh     425.50 kcal/mol
-----------------------------------------------------------------------
Total correction                          0.72179945 Eh     452.94 kcal/mol


--------
ENTHALPY
--------

The enthalpy is H = U + kB*T
                kB is Boltzmann's constant
Total thermal energy              ...  -2031.90861654 Eh 
Thermal Enthalpy correction       ...      0.00094421 Eh       0.59 kcal/mol
-----------------------------------------------------------------------
Total Enthalpy                    ...  -2031.90767233 Eh


Note: Only C1 symmetry has been detected, increase convergence thresholds 
      if your molecule has a higher symmetry. Symmetry factor of 1.0 is   
      used for the rotational entropy correction. 
 

Note: Rotational entropy computed according to Herzberg 
Infrared and Raman Spectra, Chapter V,1, Van Nostrand Reinhold, 1945 
Point Group:  C1, Symmetry Number:   1  
Rotational constants in cm-1:     0.004208     0.002076     0.001719 

Vibrational entropy computed according to the QRRHO of S. Grimme
Chem.Eur.J. 2012 18 9955 using a reference frequency of 100.0 cm-1


-------
ENTROPY
-------

The entropy contributions are T*S = T*(S(el)+S(vib)+S(rot)+S(trans))
     S(el)   - electronic entropy
     S(vib)  - vibrational entropy
     S(rot)  - rotational entropy
     S(trans)- translational entropy
The entropies will be listed as multiplied by the temperature to get
units of energy

Electronic entropy                ...      0.00000000 Eh      0.00 kcal/mol
Vibrational entropy               ...      0.07350145 Eh     46.12 kcal/mol
Rotational entropy                ...      0.01801499 Eh     11.30 kcal/mol
Translational entropy             ...      0.02138181 Eh     13.42 kcal/mol
-----------------------------------------------------------------------
Final entropy term                ...      0.11289825 Eh     70.84 kcal/mol

In case the symmetry of your molecule has not been determined correctly
or in case you have a reason to use a different symmetry number we print 
out the resulting rotational entropy values for sn=1,12:

 non-linear molecules -----------------------------------
|  sn= 1 | S(rot)=       0.01801499 Eh     11.30 kcal/mol|
|  sn= 2 | S(rot)=       0.01736053 Eh     10.89 kcal/mol|
|  sn= 3 | S(rot)=       0.01697770 Eh     10.65 kcal/mol|
|  sn= 4 | S(rot)=       0.01670608 Eh     10.48 kcal/mol|
|  sn= 5 | S(rot)=       0.01649539 Eh     10.35 kcal/mol|
|  sn= 6 | S(rot)=       0.01632325 Eh     10.24 kcal/mol|
|  sn= 7 | S(rot)=       0.01617770 Eh     10.15 kcal/mol|
|  sn= 8 | S(rot)=       0.01605162 Eh     10.07 kcal/mol|
|  sn= 9 | S(rot)=       0.01594041 Eh     10.00 kcal/mol|
|  sn=10 | S(rot)=       0.01584093 Eh      9.94 kcal/mol|
|  sn=11 | S(rot)=       0.01575094 Eh      9.88 kcal/mol|
|  sn=12 | S(rot)=       0.01566879 Eh      9.83 kcal/mol|
 linear molecules ---------------------------------------
|  Dinfh | S(rot)=       0.01133642 Eh      7.11 kcal/mol|
|  Cinfv | S(rot)=       0.01199088 Eh      7.52 kcal/mol|
 --------------------------------------------------------


-------------------
GIBBS FREE ENERGY
-------------------

The Gibbs free energy is G = H - T*S

Total enthalpy                    ...  -2031.90767233 Eh 
Total entropy correction          ...     -0.11289825 Eh    -70.84 kcal/mol
-----------------------------------------------------------------------
Final Gibbs free energy         ...  -2032.02057058 Eh

For completeness - the Gibbs free energy minus the electronic energy
G-E(el)                           ...      0.60984541 Eh    382.68 kcal/mol


Maximum memory used throughout the entire PROP-calculation: 1819.4 MB
--------------------------------------------------------------------------
WARNING: There was an error initializing an OpenFabrics device.

  Local host:   c09b01n05
  Local device: mlx5_0
--------------------------------------------------------------------------
--------------------------------------------------------------------------
WARNING: There is at least one non-excluded one OpenFabrics device found,
but there are no active ports detected (or Open MPI was unable to use
them).  This is most certainly not what you wanted.  Check your
cables, subnet manager configuration, etc.  The openib BTL will be
ignored for this job.

  Local host: c09b01n05
--------------------------------------------------------------------------
[c09b01n05:3744002] 58 more processes have sent help message help-mpi-btl-openib.txt / error in device init
[c09b01n05:3744002] Set MCA parameter "orte_base_help_aggregate" to 0 to see all help / error messages
[c09b01n05:3744002] 4 more processes have sent help message help-mpi-btl-openib.txt / no active ports found

--------------------------------
SUGGESTED CITATIONS FOR THIS RUN
--------------------------------

Below you find a list of papers that are relevant to this ORCA run
We neither can nor want to force you to cite these papers, but we appreciate if you do
You receive ORCA, which is the product of decades of hard work by many enthusiastic individuals, for free
The only thing we kindly ask in return is that you cite our papers,
We deeply appreciate it, if you show your appreciation for ORCA by not just citing the generic ORCA reference.

Please note that relegating all ORCA citations to the supporting information does *not* help us.
SI sections are not indexed - citations you put there will not count into any citation statistics
But we need these citations in order to attract the funding resources that allow us to do what we are doing

Therefore, if you are a happy ORCA user, please consider citing a few of the papers listed below in the main body of your paper

In addition to the list printed below, the program has created the file opt-conf-11.bibtex that contains the list in bibtex format
You can import this file easily into all common literature databanks and citation aid programs


List of essential papers. We consider these as the minimum necessary citations

  1. Neese, F.
     Software update: the ORCA program system, version 6.0
     WIRES Comput. Molec. Sci. 2025 15(1), e70019
     doi.org/10.1002/wcms.7019

List of papers to cite with high priority. The work reported in these papers was absolutely
necessary for this run to complete.
Our perspective: the developers of density functionals and basis sets usually get cited in chemistry papers
Good! But without the algorithms to do something with them, the functionals or basis sets would not do anything.
Hence, in our opinion, the algorithm design and method developments papers are equally worthy of getting cited

  1. Neese, F.
     An improvement of the resolution of the identity approximation for the formation of the Coulomb matrix
     J. Comp. Chem. 2003 24(14), 1740-1747
     doi.org/10.1002/jcc.10318
  2. Neese, F.; Wennmohs, F.; Hansen, A.; Becker, U.
     Efficient, approximate and parallel Hartree-Fock and hybrid DFT calculations. A 'chain-of-spheres' algorithm for the Hartree-Fock exchange
     Chem. Phys. 2009 356(1-3), 98-109
     doi.org/10.1016/j.chemphys.2008.10.036
  3. Bykov, D.; Petrenko, T.; Izsak, R.; Kossmann, S.; Becker, U.; Valeev, E.; Neese, F.
     Efficient implementation of the analytic second derivatives of Hartree-Fock and hybrid DFT energies: a detailed analysis of different approximations
     Molec. Phys. 2015 113 , 1961-1977
     doi.org/10.1080/00268976.2015.1025114
  4. Caldeweyher, E.; Bannwarth, C.; Grimme, S.
     Extension of the D3 dispersion coefficient model
     J. Chem. Phys. 2017 147 , 034112
     doi.org/10.1063/1.4993215
  5. Caldeweyher, E.; Ehlert, S.; Hansen, A.; Neugebauer, H.; Spicher, S.; Bannwarth, C.; Grimme, S.
     A generally applicable atomic-charge dependent London dispersion correction
     J. Chem. Phys. 2019 150 , 154122
     doi.org/10.1063/1.5090222
  6. Garcia-Rates, M.; Neese, F.
     Efficient implementation of the analytical second derivatives of hartree-fock and hybrid DFT energies within the framework of the conductor-like polarizable continuum model
     J. Comput. Chem. 2019 40 , 1816-1828
     doi.org/10.1002/jcc.25833
  7. Caldeweyher, E.; Mewes, J.; Ehlert, S.; Grimme, S.
     Extension and evaluation of the D4 London-dispersion model for periodic systems
     Phys. Chem. Chem. Phys. 2020 22(16), 8499-8512
     doi.org/10.1039/D0CP00502A
  8. Garcia-Rates, M.; Neese, F.
     Effect of the Solute Cavity on the Solvation Energy and its Derivatives within the Framework of the Gaussian Charge Scheme
     J. Comput. Chem. 2020 41 , 922-939
     doi.org/10.1002/jcc.26139
  9. Helmich-Paris, B.; de Souza, B.; Neese, F.; Izsák, R.
     An improved chain of spheres for exchange algorithm
     J. Chem. Phys. 2021 155(10), 104109
     doi.org/10.1063/5.0058766
 10. Neese, F.
     The SHARK Integral Generation and Digestion System
     J. Comp. Chem. 2022 44(3), 381
     doi.org/10.1002/jcc.26942
 11. Wittmann, L.; Gordiy, I.; Friede, M.; Helmich-Paris, B.; Grimme, S.; Hansen, A.; Bursch, M.
     Extension of the D3 and D4 London Dispersion Corrections to the full Actinides Series
     Phys. Chem. Chem. Phys. 2024 26(32), 21379-21394
     doi.org/10.1039/D4CP01514B

List of suggested additional citations. These are papers that are important in the 'surrounding' of 
of this run, or papers that preceded the highly important papers. If you like your results we are grateful for a citation.

  1. Izsak, R.; Neese, F.
     An overlap fitted chain of spheres exchange method
     J. Chem. Phys. 2011 135 , 144105
     doi.org/10.1063/1.3646921
  2. Izsak, R.; Hansen, A.; Neese, F.
     The resolution of identity and chain of spheres approximations for the LPNO-CCSD singles Fock term
     Molec. Phys. 2012 110 , 2413-2417
     doi.org/10.1080/00268976.2012.687466
  3. Neese, F.
     The ORCA program system
     WIRES Comput. Molec. Sci. 2012 2(1), 73-78
     doi.org/10.1002/wcms.81
  4. Izsak, R.; Neese, F.; Klopper, W.
     Robust fitting techniques in the chain of spheres approximation to the Fock exchange: The role of the complementary space
     J. Chem. Phys. 2013 139 , 
     doi.org/10.1063/1.4819264
  5. Neese, F.
     Software update: the ORCA program system, version 4.0
     WIRES Comput. Molec. Sci. 2018 8(1), 1-6
     doi.org/10.1002/wcms.1327
  6. Neese, F.; Wennmohs, F.; Becker, U.; Riplinger, C.
     The ORCA quantum chemistry program package
     J. Chem. Phys. 2020 152(22), 224108
     doi.org/10.1063/5.0004608
  7. Neese, F.
     Software update: The ORCA program system—Version 5.0
     WIRES Comput. Molec. Sci. 2022 12(1), e1606
     doi.org/10.1002/wcms.1606

List of optional additional citations

  1. Neese, F.
     Approximate second-order SCF convergence for spin unrestricted wavefunctions
     Chem. Phys. Lett. 2000 325(1-3), 93-98
     doi.org/10.1016/s0009-2614(00)00662-x

Timings for individual modules:

Sum of individual times          ...    19241.570 sec (= 320.693 min)
Startup calculation              ...     1875.316 sec (=  31.255 min)   9.7 %
SCF iterations                   ...    10727.533 sec (= 178.792 min)  55.8 %
Property integrals               ...     1533.231 sec (=  25.554 min)   8.0 %
SCF Response                     ...     3117.715 sec (=  51.962 min)  16.2 %
Property calculations            ...      758.126 sec (=  12.635 min)   3.9 %
SCF Gradient evaluation          ...     1221.041 sec (=  20.351 min)   6.3 %
Geometry relaxation              ...        8.609 sec (=   0.143 min)   0.0 %
                             ****ORCA TERMINATED NORMALLY****
TOTAL RUN TIME: 0 days 5 hours 28 minutes 7 seconds 230 msec
