
                                 *****************
                                 * O   R   C   A *
                                 *****************

                                            #,                                       
                                            ###                                      
                                            ####                                     
                                            #####                                    
                                            ######                                   
                                           ########,                                 
                                     ,,################,,,,,                         
                               ,,#################################,,                 
                          ,,##########################################,,             
                       ,#########################################, ''#####,          
                    ,#############################################,,   '####,        
                  ,##################################################,,,,####,       
                ,###########''''           ''''###############################       
              ,#####''   ,,,,##########,,,,          '''####'''          '####       
            ,##' ,,,,###########################,,,                        '##       
           ' ,,###''''                  '''############,,,                           
         ,,##''                                '''############,,,,        ,,,,,,###''
      ,#''                                            '''#######################'''  
     '                                                          ''''####''''         
             ,#######,   #######,   ,#######,      ##                                
            ,#'     '#,  ##    ##  ,#'     '#,    #''#        ,####,    ,#,          
            ##       ##  ##   ,#'  ##            #'  '#       #'       ,# #          
            ##       ##  #######   ##           ,######,      #####,      #          
            '#,     ,#'  ##    ##  '#,     ,#' ,#      #,     #,   #      #          
             '#######'   ##     ##  '#######'  #'      '#     '####' #    #          



                #########################################################
                #                        -***-                          #
                #          Department of theory and spectroscopy        #
                #                                                       #
                #                      Frank Neese                      #
                #                                                       #
                #     Directorship, Architecture, Infrastructure        #
                #                    SHARK, DRIVERS                     #
                #        Core code/Algorithms in most modules           #
                #                                                       #
                #        Max Planck Institute fuer Kohlenforschung      #
                #                Kaiser Wilhelm Platz 1                 #
                #                 D-45470 Muelheim/Ruhr                 #
                #                      Germany                          #
                #                                                       #
                #                  All rights reserved                  #
                #                        -***-                          #
                #########################################################


                         Program Version 6.1.0-f.0  -   RELEASE   -


 With contributions from (in alphabetic order):
[Max-Planck-Institut fuer Kohlenforschung]                               
  Daniel Aravena         : Magnetic Suceptibility                        
  Michael Atanasov       : Ab Initio Ligand Field Theory (pilot matlab implementation)
  Alexander A. Auer      : GIAO ZORA, VPT2 properties, NMR spectrum      
  Ute Becker             : All parallelization in ORCA, NUMFREQ, NUMCALC 
  Giovanni Bistoni       : ED, misc. LED, open-shell LED, HFLD           
  Dmytro Bykov           : pre 5.0 version of the SCF Hessian            
  Marcos Casanova-Páez   : Triplet and SCS-CIS(D). UHF-(DLPNO)-IP/EA/STEOM-CCSD. UHF-CVS-IP/STEOM-CCSD   
  Vijay G. Chilkuri      : MRCI spin determinant printing, contributions to CSF-ICE 
  Pauline Colinet        : FMM embedding                                 
  Dipayan Datta          : RHF DLPNO-CCSD density                        
  Achintya Kumar Dutta   : EOM-CC, STEOM-CC                              
  Nicolas Foglia         : Exact transition moments, OPA infrastructure, MCD improvements    
  Dmitry Ganyushin       : Spin-Orbit,Spin-Spin,Magnetic field MRCI      
  Miquel Garcia-Rates    : C-PCM and meta-GGA Hessian, CCSD/C-PCM, Gaussian charge scheme 
  Tiago L. C. Gouveia    : GS-ROHF, GS-ROCIS                             
  Yang Guo               : DLPNO-NEVPT2, F12-NEVPT2, CIM, IAO-localization        
  Andreas Hansen         : Spin unrestricted coupled pair/coupled cluster methods 
  Ingolf Harden          : AUTO-CI MPn and infrastructure                
  Benjamin Helmich-Paris : MC-RPA, TRAH-(SCF,CASSCF), AVAS, COSX integrals, SCF dyn. polar., MC-PDFT, srDFT 
  Lee Huntington         : MR-EOM, pCC                                   
  Robert Izsak           : Overlap fitted RIJCOSX, COSX-SCS-MP3, EOM     
  Riya Kayal             : Wick's Theorem for AUTO-CI, AUTO-CI UHF-CCSDT 
  Emily Kempfer          : AUTO-CI RHF CISDT and CCSDT, approximate NEVPT4
  Christian Kollmar      : KDIIS, OOCD, Brueckner-CCSD(T), CCSD density, CASPT2, CASPT2-K, improved NEVPT2 
  Axel Koslowski         : Symmetry handling                             
  Simone Kossmann        : meta-GGA functionals, TD-DFT gradient, OOMP2, (MP2 Hessian; deprecated post 5.0) 
  Lucas Lang             : DCDCAS, Hyperfine gauge corrections, ICE-SOC+SSC
  Marvin Lechner         : AUTO-CI (C++ implementation), FIC-MRCC        
  Spencer Leger          : CASSCF response                               
  Dagmar Lenk            : GEPOL surface, SMD, ORCA-2-JSON               
  Dimitrios Liakos       : Extrapolation schemes; Compound Job, Property file
  Dimitrios Manganas     : Further ROCIS development; embedding schemes. LFT, Crystal Embedding 
  Dimitrios Pantazis     : SARC Basis sets                               
  Anastasios Papadopoulos: AUTO-CI, single reference methods and gradients 
  Taras Petrenko         : pre 6.0 DFT Hessian and TD-DFT gradient,  ECA, NRVS 
  Petra Pikulova         : Analytic Raman intensities                    
  Peter Pinski           : DLPNO-MP2, DLPNO-MP2 Gradient                 
  Shashank Vittal Rao    : ES-AILFT, MagRelax                            
  Christoph Reimann      : Effective Core Potentials                     
  Marius Retegan         : Local ZFS, SOC                                
  Christoph Riplinger    : Optimizer, TS searches, QM/MM, DLPNO-CCSD(T), (RO)-DLPNO pert. Triples 
  Michael Roemelt        : Original ROCIS implementation, recursive CI coupling coefficients
  Masaaki Saitow         : Open-shell DLPNO-CCSD energy and density      
  Barbara Sandhoefer     : DKH picture change effects                    
  Yorick L. A. Schmerwitz: GMF and freeze-and-release deltaSCF, NEB S-IDPP initial path                    
  Kantharuban Sivalingam : CASSCF convergence/infrastructure, NEVPT2, NEVPT3, NEVPT4(SD), FIC-MRCI and CEPA variants
  Bernardo de Souza      : ESD, SOC TD-DFT                               
  Georgi L. Stoychev     : AutoAux, RI-MP2 NMR, DLPNO-MP2 response, X2C  
  Van Anh Tran           : RI-MP2 g-tensors                              
  Willem Van den Heuvel  : Paramagnetic NMR                              
  Zikuan Wang            : NOTCH, Electric field optimization            
  Frank Wennmohs         : Technical directorship and infrastructure     
  Hang Xu                : AUTO-CI-Response properties                   
                                                                         
[FACCTs GmbH]                                                            
  Markus Bursch, Nicolas Foglia, Miquel Garcia-Rates, Ingolf Harden, Hagen Neugebauer, Anastasios Papadopoulos, 
  Christoph Riplinger, Bernardo de Souza, Georgi L. Stoychev                                                    
                                                                 
  APM, various basis sets, CI-OPT, improved COSX, DLPNO-Multilevel,           
  DOCKER, DRACO, updates on ESD, Fragmentator, GOAT, IRC, LR-CPCM, L-BFGS, MBIS, meta-GGA TD-DFT gradient, ML-optimized integration grids, 
  MM, NACMEs, nearIR, NEB, NEB-TS, NL-DFT gradient (VV10), 2- and 3-layer-ONIOM, interface openCOSMO-RS, QMMM,   
  Crystal-QMMM, RESP, rigid body optimization, SF, symmetry and pop. for TD-DFT, various functionals, SOLVATOR                                   
                                                                         
[Other institutions]                                                     
  V. Asgeirsson          : NEB                                           
  Christoph Bannwarth    : sTDA-DFT, sTD-DFT, PBEh-3c, B97-3c, D3        
  Giovanni Bistoni       : ETS/NOCV, ADLD/ADEX, COVALED                  
  Martin Brehm           : Molecular dynamics                            
  Ronald Cardenas        : ETS/NOCV                                      
  Martina Colucci        : COVALED                                       
  Sebastian Ehlert       : rSCAN, r2SCAN, r2SCAN-3c, D4, dhf basis sets  
  Marvin Friede          : D4 for Fr, Ra, Ac-Lr                          
  Lars Goerigk           : TD-DFT with DH, B97 family of functionals     
  Stefan Grimme          : VdW corrections, initial TS optimization, DFT functionals, gCP, sTDA/sTD-DF 
  Waldemar Hujo          : DFT-NL                                        
  H. Jonsson             : NEB                                           
  Holger Kruse           : gCP                                           
  Marcel Mueller         : wB97X-3c, vDZP basis set                      
  Hagen Neugebauer       : wr2SCAN, Native XTB                           
  Gianluca Regni         : ADLD/ADEX                                     
  Tobias Risthaus        : pre 6.0 range-separated hybrid DFT and stability analysis
  Lukas Wittmann         : regularized MP2, r2SCAN double-hybrids, wr2SCAN        
                                                                         
We gratefully acknowledge several colleagues who have allowed us to      
interface, adapt or use parts of their codes:                            
  Ed Valeev, F. Pavosevic, A. Kumar             : LibInt (2-el integral package), F12 methods 
  Garnet Chan, S. Sharma, J. Yang, R. Olivares  : DMRG                   
  Ulf Ekstrom                                   : XCFun DFT Library      
  Mihaly Kallay                                 : mrcc  (arbitrary order and MRCC methods)
  Frank Weinhold                                : gennbo (NPA and NBO analysis)           
  Simon Mueller                                 : openCOSMO-RS                            
  Christopher J. Cramer and Donald G. Truhlar   : smd solvation model                     
  S Lehtola, MJT Oliveira, MAL Marques          : LibXC Library                           
  Liviu Ungur et al                             : ANISO software                          


 Your calculation uses the libint2 library for the computation of 2-el integrals
 For citations please refer to: http://libint.valeyev.net

 Your ORCA version has been built with support for libXC version: 7.0.0
 For citations please refer to: https://libxc.gitlab.io

 This ORCA versions uses:
   CBLAS   interface :  Fast vector & matrix operations
   LAPACKE interface :  Fast linear algebra routines
   SCALAPACK package :  Parallel linear algebra routines
   Shared memory     :  Shared parallel matrices
   BLAS/LAPACK       :  OpenBLAS 0.3.29  USE64BITINT DYNAMIC_ARCH NO_AFFINITY Cooperlake SINGLE_THREADED
        Core in use  :  Cooperlake
   Copyright (c) 2011-2014, The OpenBLAS Project


  ***********************************
  * Starting time: Wed Mar  4 00:26:54 2026
  * Host name:     c03b01n01
  * Process ID:    86522
  * Working dir.:  /lustre1/jiangy/jiangy_liuxy/NMR/B9D7C2-RSSR
  ***********************************

NOTE: MaxCore=6000 MB was set to SCF,MP2,MDCI,CIPSI,MRCI,RASCI and CIS
      => If you want to overwrite this, your respective input block should be placed after the MaxCore statement


***************************************
The coordinates will be read from file: conf-1.xyz
***************************************


Your calculation utilizes the atom-pairwise dispersion correction
based on EEQ partial charges (D4)


Warning: RI is on but no J-basis has been assigned. Assigning Def2/J (nothing to worry about!)
================================================================================

----- Orbital basis set information -----
Your calculation utilizes the basis: def2-TZVP
   F. Weigend and R. Ahlrichs, Phys. Chem. Chem. Phys. 7, 3297 (2005).

----- AuxJ basis set information -----
Your calculation utilizes the auxiliary basis: def2/J
   H-Rn: F. Weigend, Phys. Chem. Chem. Phys. 8, 1057 (2006).
   Fr-Lr: K. Eichkorn, F. Weigend, O. Treutler, R. Ahlrichs; Theor. Chem. Acc. 97, 119 (1997).

================================================================================
                                        WARNINGS
                       Please study these warnings very carefully!
================================================================================


WARNING: Geometry Optimization
  ===> : Switching off AutoStart
         For restart on a previous wavefunction, please use MOREAD

================================================================================
                                       INPUT FILE
================================================================================
NAME = opt-conf-1.inp
|  1> ! B3LYP OPT FREQ DEF2-TZVP D4 CPCM(Methanol) 
|  2> ! TightOpt
|  3> %pal nprocs 64 end
|  4> %maxcore 6000
|  5> 
|  6> %cpcm
|  7> end
|  8> 
|  9> %freq
| 10>    Temp 298.15
| 11> end
| 12> 
| 13> * xyzfile 0 1 conf-1.xyz
| 14> 
| 15> 
| 16>                          ****END OF INPUT****
================================================================================

                       *****************************
                       * Geometry Optimization Run *
                       *****************************

Geometry optimization settings:
Update method            Update   .... BFGS
Choice of coordinates    CoordSys .... (2022) Redundant Internals
Initial Hessian          InHess   .... Almloef's Model
Max. no of cycles        MaxIter  .... 246

Convergence Tolerances:
Energy Change            TolE     ....  1.0000e-06 Eh
Max. Gradient            TolMAXG  ....  1.0000e-04 Eh/bohr
RMS Gradient             TolRMSG  ....  3.0000e-05 Eh/bohr
Max. Displacement        TolMAXD  ....  1.0000e-03 bohr
RMS Displacement         TolRMSD  ....  6.0000e-04 bohr
Strict Convergence                .... False

------------------------------------------------------------------------------
                        ORCA OPTIMIZATION COORDINATE SETUP
------------------------------------------------------------------------------

The optimization will be done in redundant internal coordinates (2022)
Making redundant internal coordinates   ...  (2022 redundants) done
Evaluating the initial hessian          ...  (Almloef) done
Evaluating the coordinates              ...  done
Calculating the B-matrix                .... done
Calculating the G-matrix                .... done
The number of degrees of freedom        ....  405

    -----------------------------------------------------------------
                    Redundant Internal Coordinates


    -----------------------------------------------------------------
         Definition                    Initial Value    Approx d2E/dq
    -----------------------------------------------------------------
      1. B(C   1,C   0)                  1.4082         0.584444   
      2. B(C   2,C   1)                  1.3966         0.609811   
      3. B(C   3,C   2)                  1.3921         0.619966   
      4. B(C   4,C   3)                  1.3828         0.641489   
      5. B(C   5,C   4)                  1.3884         0.628408   
      6. B(C   5,C   0)                  1.3815         0.644676   
      7. B(C   6,C   4)                  1.5025         0.413221   
      8. B(C   7,C   6)                  1.5378         0.363056   
      9. B(C   8,C   7)                  1.5379         0.362877   
     10. B(C   9,C   8)                  1.5374         0.363498   
     11. B(C  10,C   9)                  1.5035         0.411813   
     12. B(C  11,C  10)                  1.3938         0.616242   
     13. B(C  12,C  11)                  1.3818         0.643940   
     14. B(C  13,C  12)                  1.4046         0.592118   
     15. B(C  14,C  13)                  1.3825         0.642263   
     16. B(C  15,C  10)                  1.3859         0.634228   
     17. B(C  15,C  14)                  1.3861         0.633847   
     18. B(C  16,C   7)                  1.5361         0.365284   
     19. B(C  17,C   8)                  1.5345         0.367507   
     20. B(O  18,C   2)                  1.3793         0.581960   
     21. B(O  19,C   0)                  1.3660         0.611167   
     22. B(O  20,C   1)                  1.3676         0.607573   
     23. B(O  21,C  13)                  1.3615         0.621315   
     24. B(O  22,C  12)                  1.3801         0.580374   
     25. B(C  23,O  20)                  1.4137         0.513001   
     26. B(C  24,C  23)                  1.5671         0.326005   
     27. B(C  25,C  24)                  1.5137         0.396591   
     28. B(C  26,C  23)                  1.5396         0.360584   
     29. B(O  27,C  26)                  1.4015         0.536357   
     30. B(C  28,C  25)                  1.3931         0.617809   
     31. B(C  29,C  28)                  1.3812         0.645223   
     32. B(C  30,C  29)                  1.4035         0.594480   
     33. B(C  31,C  30)                  1.3803         0.647424   
     34. B(C  32,C  31)                  1.3850         0.636327   
     35. B(C  32,C  25)                  1.3838         0.639254   
     36. B(C  33,O  19)                  1.4094         0.521178   
     37. B(C  34,O  18)                  1.4088         0.522197   
     38. B(C  35,O  22)                  1.4085         0.522824   
     39. B(O  36,C  24)                  1.4033         0.532974   
     40. B(O  37,C  16)                  1.4050         0.529672   
     41. B(O  38,C  17)                  1.4086         0.522673   
     42. B(O  39,C  29)                  1.3730         0.595582   
     43. B(O  40,C  30)                  1.3693         0.603794   
     44. B(C  41,O  39)                  1.4095         0.520817   
     45. B(H  42,C   3)                  1.0775         0.377013   
     46. B(H  43,C   5)                  1.0776         0.376889   
     47. B(H  44,C   6)                  1.0905         0.359478   
     48. B(H  45,C   6)                  1.0902         0.359847   
     49. B(H  46,C   7)                  1.0962         0.351996   
     50. B(H  47,C   8)                  1.0970         0.350949   
     51. B(H  48,C   9)                  1.0940         0.354839   
     52. B(H  49,C   9)                  1.0918         0.357671   
     53. B(H  50,C  11)                  1.0772         0.377485   
     54. B(H  51,C  14)                  1.0787         0.375396   
     55. B(H  52,C  15)                  1.0803         0.373171   
     56. B(H  53,C  16)                  1.0933         0.355699   
     57. B(H  54,C  16)                  1.0981         0.349501   
     58. B(H  55,C  17)                  1.0920         0.357499   
     59. B(H  56,C  17)                  1.0986         0.348866   
     60. B(H  57,O  21)                  0.9671         0.506646   
     61. B(H  57,O  22)                  2.1194         0.010000   
     62. B(H  58,C  23)                  1.0970         0.350955   
     63. B(H  59,C  24)                  1.0961         0.352132   
     64. B(H  60,C  26)                  1.0995         0.347760   
     65. B(H  61,C  26)                  1.0910         0.358800   
     66. B(H  62,O  20)                  2.1982         0.010000   
     67. B(H  62,O  27)                  0.9677         0.505444   
     68. B(H  63,C  28)                  1.0776         0.376861   
     69. B(H  64,C  31)                  1.0785         0.375670   
     70. B(H  65,C  32)                  1.0787         0.375347   
     71. B(H  66,C  33)                  1.0894         0.360864   
     72. B(H  67,C  33)                  1.0942         0.354548   
     73. B(H  68,H  51)                  2.4255         0.010000   
     74. B(H  68,C  33)                  1.0943         0.354510   
     75. B(H  69,C  34)                  1.0947         0.353984   
     76. B(H  70,C  34)                  1.0937         0.355257   
     77. B(H  71,C  34)                  1.0899         0.360235   
     78. B(H  72,C  35)                  1.0888         0.361689   
     79. B(H  73,C  35)                  1.0939         0.355015   
     80. B(H  74,C  35)                  1.0935         0.355441   
     81. B(H  75,O  18)                  2.1921         0.010000   
     82. B(H  75,O  36)                  0.9667         0.507251   
     83. B(H  76,O  40)                  1.9460         0.013895   
     84. B(H  76,O  37)                  0.9705         0.500239   
     85. B(H  77,O  38)                  0.9640         0.512337   
     86. B(H  78,O  22)                  2.4643         0.010000   
     87. B(H  78,O  39)                  2.0901         0.010000   
     88. B(H  78,O  40)                  0.9689         0.503260   
     89. B(H  79,O  19)                  2.6107         0.010000   
     90. B(H  79,C  41)                  1.0919         0.357619   
     91. B(H  80,C  41)                  1.0892         0.361210   
     92. B(H  81,C  41)                  1.0942         0.354524   
     93. A(C   1,C   0,O  19)          114.7737         0.425588   
     94. A(C   5,C   0,O  19)          124.6330         0.433144   
     95. A(C   1,C   0,C   5)          120.5915         0.432505   
     96. A(C   0,C   1,O  20)          113.0985         0.425139   
     97. A(C   0,C   1,C   2)          118.9946         0.428210   
     98. A(C   2,C   1,O  20)          127.8495         0.428387   
     99. A(C   3,C   2,O  18)          122.8327         0.426353   
    100. A(C   1,C   2,C   3)          119.3887         0.432770   
    101. A(C   1,C   2,O  18)          117.7703         0.425094   
    102. A(C   4,C   3,H  42)          118.5846         0.357729   
    103. A(C   2,C   3,H  42)          120.0363         0.355661   
    104. A(C   2,C   3,C   4)          121.3789         0.436733   
    105. A(C   5,C   4,C   6)          118.7933         0.404750   
    106. A(C   3,C   4,C   6)          121.7752         0.406226   
    107. A(C   3,C   4,C   5)          119.3631         0.437799   
    108. A(C   4,C   5,H  43)          118.9706         0.356459   
    109. A(C   0,C   5,H  43)          120.7608         0.358011   
    110. A(C   0,C   5,C   4)          120.2566         0.438191   
    111. A(C   4,C   6,H  44)          110.7715         0.329659   
    112. A(C   7,C   6,H  45)          109.0963         0.322765   
    113. A(C   4,C   6,C   7)          109.6115         0.367878   
    114. A(H  44,C   6,H  45)          108.3804         0.290728   
    115. A(C   4,C   6,H  45)          108.9276         0.329714   
    116. A(C   7,C   6,H  44)          110.0166         0.322711   
    117. A(C   6,C   7,C  16)          110.7198         0.360203   
    118. A(C   8,C   7,C  16)          110.4924         0.360172   
    119. A(C  16,C   7,H  46)          106.4222         0.321923   
    120. A(C   8,C   7,H  46)          106.6963         0.321575   
    121. A(C   6,C   7,H  46)          107.4306         0.321601   
    122. A(C   6,C   7,C   8)          114.6227         0.359797   
    123. A(C   7,C   8,C  17)          113.4589         0.360545   
    124. A(C  17,C   8,H  47)          107.0298         0.322086   
    125. A(C   7,C   8,C   9)          112.2386         0.359872   
    126. A(C   9,C   8,H  47)          108.5937         0.321508   
    127. A(C   7,C   8,H  47)          105.9145         0.321418   
    128. A(C   9,C   8,C  17)          109.3176         0.360650   
    129. A(H  48,C   9,H  49)          106.8942         0.289860   
    130. A(C  10,C   9,H  48)          109.5290         0.328767   
    131. A(C  10,C   9,H  49)          108.8226         0.329199   
    132. A(C   8,C   9,C  10)          114.3892         0.367739   
    133. A(C   8,C   9,H  48)          107.8120         0.322089   
    134. A(C   8,C   9,H  49)          109.1323         0.322509   
    135. A(C   9,C  10,C  11)          120.9389         0.403113   
    136. A(C  11,C  10,C  15)          118.6421         0.435366   
    137. A(C   9,C  10,C  15)          120.4190         0.405165   
    138. A(C  10,C  11,C  12)          120.7462         0.436559   
    139. A(C  10,C  11,H  50)          119.3664         0.355373   
    140. A(C  12,C  11,H  50)          119.8804         0.358037   
    141. A(C  11,C  12,C  13)          120.0512         0.433432   
    142. A(C  13,C  12,O  22)          114.5230         0.422656   
    143. A(C  11,C  12,O  22)          125.4240         0.429052   
    144. A(C  12,C  13,O  21)          120.4396         0.427844   
    145. A(C  12,C  13,C  14)          119.2072         0.433229   
    146. A(C  14,C  13,O  21)          120.3532         0.434136   
    147. A(C  13,C  14,H  51)          118.6164         0.357541   
    148. A(C  13,C  14,C  15)          120.1724         0.438576   
    149. A(C  15,C  14,H  51)          121.2102         0.356741   
    150. A(C  14,C  15,H  52)          119.0716         0.356381   
    151. A(C  10,C  15,H  52)          119.7754         0.356417   
    152. A(C  10,C  15,C  14)          121.1489         0.437581   
    153. A(O  37,C  16,H  54)          110.6889         0.339871   
    154. A(C   7,C  16,H  54)          108.6832         0.321549   
    155. A(O  37,C  16,H  53)          105.8922         0.340872   
    156. A(C   7,C  16,H  53)          110.8387         0.322476   
    157. A(C   7,C  16,O  37)          112.2827         0.381976   
    158. A(H  53,C  16,H  54)          108.3788         0.288922   
    159. A(O  38,C  17,H  56)          110.0650         0.339014   
    160. A(C   8,C  17,O  38)          112.3239         0.381497   
    161. A(H  55,C  17,H  56)          108.3391         0.289068   
    162. A(C   8,C  17,H  56)          109.9771         0.321772   
    163. A(O  38,C  17,H  55)          105.1270         0.340401   
    164. A(C   8,C  17,H  55)          110.8458         0.323064   
    165. A(C   2,O  18,C  34)          118.3425         0.410830   
    166. A(C   0,O  19,C  33)          117.6597         0.414273   
    167. A(C   1,O  20,C  23)          123.6834         0.412678   
    168. A(C  13,O  21,H  57)          107.6040         0.368605   
    169. A(C  12,O  22,C  35)          118.1687         0.410719   
    170. A(C  26,C  23,H  58)          108.6640         0.321086   
    171. A(C  24,C  23,H  58)          107.4941         0.315850   
    172. A(O  20,C  23,H  58)          110.6341         0.338296   
    173. A(C  24,C  23,C  26)          110.9897         0.352900   
    174. A(O  20,C  23,C  26)          103.0804         0.379012   
    175. A(O  20,C  23,C  24)          115.8008         0.372469   
    176. A(C  23,C  24,O  36)          109.0835         0.374931   
    177. A(O  36,C  24,H  59)          105.3459         0.340651   
    178. A(C  25,C  24,H  59)          107.9697         0.326320   
    179. A(C  23,C  24,H  59)          107.8469         0.316022   
    180. A(C  25,C  24,O  36)          113.2500         0.387900   
    181. A(C  23,C  24,C  25)          112.9251         0.358647   
    182. A(C  28,C  25,C  32)          119.5984         0.436184   
    183. A(C  24,C  25,C  32)          121.7901         0.403042   
    184. A(C  24,C  25,C  28)          118.6110         0.400626   
    185. A(O  27,C  26,H  61)          107.4371         0.342084   
    186. A(H  60,C  26,H  61)          109.1007         0.289089   
    187. A(C  23,C  26,H  61)          110.2543         0.322250   
    188. A(O  27,C  26,H  60)          110.3694         0.340300   
    189. A(C  23,C  26,H  60)          108.6360         0.320606   
    190. A(C  23,C  26,O  27)          111.0248         0.381949   
    191. A(C  26,O  27,H  62)          105.9788         0.359307   
    192. A(C  29,C  28,H  63)          120.9139         0.358058   
    193. A(C  25,C  28,H  63)          118.8398         0.355427   
    194. A(C  25,C  28,C  29)          120.2407         0.436916   
    195. A(C  30,C  29,O  39)          114.4007         0.424917   
    196. A(C  28,C  29,O  39)          125.9919         0.431203   
    197. A(C  28,C  29,C  30)          119.6071         0.433898   
    198. A(C  31,C  30,O  40)          120.3658         0.432530   
    199. A(C  29,C  30,O  40)          119.6760         0.425960   
    200. A(C  29,C  30,C  31)          119.9508         0.434164   
    201. A(C  32,C  31,H  64)          120.8365         0.357022   
    202. A(C  30,C  31,H  64)          119.1964         0.358073   
    203. A(C  30,C  31,C  32)          119.9655         0.439519   
    204. A(C  31,C  32,H  65)          119.1822         0.356970   
    205. A(C  25,C  32,H  65)          120.3118         0.357248   
    206. A(C  25,C  32,C  31)          120.4913         0.438513   
    207. A(H  67,C  33,H  68)          109.4248         0.289420   
    208. A(H  66,C  33,H  68)          109.5192         0.290222   
    209. A(O  19,C  33,H  68)          111.5773         0.339761   
    210. A(H  66,C  33,H  67)          109.1628         0.290227   
    211. A(O  19,C  33,H  67)          111.3159         0.339768   
    212. A(O  19,C  33,H  66)          105.7510         0.340772   
    213. A(H  69,C  34,H  71)          109.3582         0.290076   
    214. A(O  18,C  34,H  71)          105.6735         0.340784   
    215. A(H  69,C  34,H  70)          109.5148         0.289443   
    216. A(O  18,C  34,H  70)          111.4775         0.339992   
    217. A(O  18,C  34,H  69)          111.6762         0.339788   
    218. A(H  70,C  34,H  71)          109.0320         0.290239   
    219. A(H  73,C  35,H  74)          109.7306         0.289599   
    220. A(H  72,C  35,H  74)          109.3991         0.290446   
    221. A(O  22,C  35,H  74)          111.4820         0.340089   
    222. A(H  72,C  35,H  73)          109.3646         0.290391   
    223. A(O  22,C  35,H  73)          111.2140         0.340021   
    224. A(O  22,C  35,H  72)          105.5462         0.341082   
    225. A(C  24,O  36,H  75)          106.9716         0.359139   
    226. A(C  16,O  37,H  76)          107.7387         0.357910   
    227. A(C  17,O  38,H  77)          108.4037         0.358556   
    228. A(C  29,O  39,C  41)          118.1535         0.412326   
    229. A(C  30,O  40,H  78)          107.2091         0.366379   
    230. A(H  80,C  41,H  81)          109.9068         0.290268   
    231. A(H  79,C  41,H  81)          109.4091         0.289813   
    232. A(O  39,C  41,H  81)          111.0351         0.339724   
    233. A(H  79,C  41,H  80)          109.7508         0.290664   
    234. A(O  39,C  41,H  80)          105.3893         0.340787   
    235. A(O  39,C  41,H  79)          111.2822         0.340218   
    236. D(O  20,C   1,C   0,O  19)     -1.2766         0.023484   
    237. D(C   2,C   1,C   0,O  19)   -178.7370         0.023484   
    238. D(C   2,C   1,C   0,C   5)      1.7227         0.023484   
    239. D(O  20,C   1,C   0,C   5)    179.1831         0.023484   
    240. D(O  18,C   2,C   1,C   0)    179.3243         0.025682   
    241. D(C   3,C   2,C   1,C   0)     -1.6984         0.025682   
    242. D(C   3,C   2,C   1,O  20)   -178.7397         0.025682   
    243. D(O  18,C   2,C   1,O  20)      2.2830         0.025682   
    244. D(C   4,C   3,C   2,C   1)      0.4901         0.026596   
    245. D(H  42,C   3,C   2,O  18)     -0.7257         0.026596   
    246. D(C   4,C   3,C   2,O  18)    179.4131         0.026596   
    247. D(H  42,C   3,C   2,C   1)   -179.6488         0.026596   
    248. D(C   6,C   4,C   3,H  42)      3.9204         0.028600   
    249. D(C   5,C   4,C   3,H  42)   -179.1237         0.028600   
    250. D(C   5,C   4,C   3,C   2)      0.7394         0.028600   
    251. D(C   6,C   4,C   3,C   2)   -176.2165         0.028600   
    252. D(H  43,C   5,C   4,C   6)     -2.4300         0.027371   
    253. D(H  43,C   5,C   4,C   3)   -179.4771         0.027371   
    254. D(C   0,C   5,C   4,C   3)     -0.7277         0.027371   
    255. D(C   4,C   5,C   0,O  19)   -179.9985         0.028904   
    256. D(H  43,C   5,C   0,C   1)    178.2210         0.028904   
    257. D(H  43,C   5,C   0,O  19)     -1.2717         0.028904   
    258. D(C   0,C   5,C   4,C   6)    176.3194         0.027371   
    259. D(C   4,C   5,C   0,C   1)     -0.5057         0.028904   
    260. D(H  45,C   6,C   4,C   3)   -139.5492         0.012639   
    261. D(H  44,C   6,C   4,C   5)    162.5948         0.012639   
    262. D(H  44,C   6,C   4,C   3)    -20.4326         0.012639   
    263. D(C   7,C   6,C   4,C   5)    -75.8191         0.012639   
    264. D(C   7,C   6,C   4,C   3)    101.1535         0.012639   
    265. D(C   8,C   7,C   6,H  44)    -82.6615         0.010563   
    266. D(C   8,C   7,C   6,C   4)    155.2999         0.010563   
    267. D(C  16,C   7,C   6,H  45)    161.9161         0.010563   
    268. D(C  16,C   7,C   6,H  44)     43.1482         0.010563   
    269. D(C   8,C   7,C   6,H  45)     36.1064         0.010563   
    270. D(C  16,C   7,C   6,C   4)    -78.8904         0.010563   
    271. D(C  17,C   8,C   7,H  46)    166.0725         0.010553   
    272. D(C  17,C   8,C   7,C  16)    -78.6378         0.010553   
    273. D(C  17,C   8,C   7,C   6)     47.2901         0.010553   
    274. D(C   9,C   8,C   7,C  16)    156.8191         0.010553   
    275. D(C   9,C   8,C   7,H  46)     41.5294         0.010553   
    276. D(C   9,C   8,C   7,C   6)    -77.2530         0.010553   
    277. D(H  48,C   9,C   8,C  17)     59.5806         0.010587   
    278. D(H  48,C   9,C   8,C   7)   -173.6161         0.010587   
    279. D(C  10,C   9,C   8,H  47)     65.2203         0.010587   
    280. D(C  10,C   9,C   8,C  17)   -178.3334         0.010587   
    281. D(H  48,C   9,C   8,H  47)    -56.8657         0.010587   
    282. D(C  10,C   9,C   8,C   7)    -51.5302         0.010587   
    283. D(C  15,C  10,C   9,H  48)   -106.0236         0.012556   
    284. D(C  15,C  10,C   9,C   8)    132.8330         0.012556   
    285. D(C  11,C  10,C   9,H  49)   -169.6276         0.012556   
    286. D(C  11,C  10,C   9,H  48)     73.8423         0.012556   
    287. D(C  11,C  10,C   9,C   8)    -47.3011         0.012556   
    288. D(H  50,C  11,C  10,C  15)    179.3152         0.026259   
    289. D(H  50,C  11,C  10,C   9)     -0.5530         0.026259   
    290. D(C  12,C  11,C  10,C  15)     -1.6442         0.026259   
    291. D(C  12,C  11,C  10,C   9)    178.4875         0.026259   
    292. D(O  22,C  12,C  11,H  50)      1.0397         0.028834   
    293. D(C  13,C  12,C  11,H  50)   -179.4722         0.028834   
    294. D(O  22,C  12,C  11,C  10)   -177.9959         0.028834   
    295. D(C  13,C  12,C  11,C  10)      1.4922         0.028834   
    296. D(O  21,C  13,C  12,C  11)   -179.9958         0.024136   
    297. D(C  14,C  13,C  12,O  22)    179.5876         0.024136   
    298. D(C  14,C  13,C  12,C  11)      0.0460         0.024136   
    299. D(O  21,C  13,C  12,O  22)     -0.4542         0.024136   
    300. D(H  51,C  14,C  13,O  21)     -1.7202         0.028674   
    301. D(H  51,C  14,C  13,C  12)    178.2381         0.028674   
    302. D(C  15,C  14,C  13,O  21)    178.6412         0.028674   
    303. D(C  15,C  14,C  13,C  12)     -1.4005         0.028674   
    304. D(H  52,C  15,C  14,H  51)      0.8802         0.027878   
    305. D(H  52,C  15,C  14,C  13)   -179.4907         0.027878   
    306. D(C  10,C  15,C  14,H  51)   -178.3789         0.027878   
    307. D(C  10,C  15,C  14,C  13)      1.2502         0.027878   
    308. D(H  52,C  15,C  10,C  11)   -178.9787         0.027914   
    309. D(H  52,C  15,C  10,C   9)      0.8903         0.027914   
    310. D(C  14,C  15,C  10,C  11)      0.2753         0.027914   
    311. D(C  14,C  15,C  10,C   9)   -179.8558         0.027914   
    312. D(H  53,C  16,C   7,H  46)    171.0113         0.010684   
    313. D(H  53,C  16,C   7,C   8)     55.5498         0.010684   
    314. D(H  53,C  16,C   7,C   6)    -72.5415         0.010684   
    315. D(O  37,C  16,C   7,H  46)     52.8070         0.010684   
    316. D(O  37,C  16,C   7,C   8)    -62.6545         0.010684   
    317. D(O  37,C  16,C   7,C   6)    169.2543         0.010684   
    318. D(H  55,C  17,C   8,H  47)    169.9103         0.010806   
    319. D(H  55,C  17,C   8,C   9)     52.4753         0.010806   
    320. D(H  55,C  17,C   8,C   7)    -73.6319         0.010806   
    321. D(O  38,C  17,C   8,H  47)     52.6383         0.010806   
    322. D(O  38,C  17,C   8,C   9)    -64.7968         0.010806   
    323. D(O  38,C  17,C   8,C   7)    169.0961         0.010806   
    324. D(C  34,O  18,C   2,C   3)      2.9588         0.027176   
    325. D(C  34,O  18,C   2,C   1)   -178.1017         0.027176   
    326. D(C  33,O  19,C   0,C   5)     -6.8008         0.030180   
    327. D(C  33,O  19,C   0,C   1)    173.6801         0.030180   
    328. D(C  23,O  20,C   1,C   2)    -24.5882         0.029799   
    329. D(C  23,O  20,C   1,C   0)    158.2251         0.029799   
    330. D(H  57,O  21,C  13,C  14)    178.3592         0.028331   
    331. D(H  57,O  21,C  13,C  12)     -1.5985         0.028331   
    332. D(C  35,O  22,C  12,C  13)    175.7877         0.029362   
    333. D(C  35,O  22,C  12,C  11)     -4.6992         0.029362   
    334. D(H  58,C  23,O  20,C   1)     61.9921         0.022619   
    335. D(C  26,C  23,O  20,C   1)    178.0038         0.022619   
    336. D(C  24,C  23,O  20,C   1)    -60.6113         0.022619   
    337. D(O  36,C  24,C  23,H  58)      9.9799         0.010000   
    338. D(O  36,C  24,C  23,C  26)   -108.7256         0.010000   
    339. D(O  36,C  24,C  23,O  20)    134.2276         0.010000   
    340. D(C  25,C  24,C  23,H  58)   -116.8784         0.010000   
    341. D(C  25,C  24,C  23,C  26)    124.4161         0.010000   
    342. D(C  25,C  24,C  23,O  20)      7.3693         0.010000   
    343. D(C  32,C  25,C  24,O  36)    -10.6006         0.011682   
    344. D(C  32,C  25,C  24,C  23)    114.0149         0.011682   
    345. D(C  28,C  25,C  24,H  59)     52.8905         0.011682   
    346. D(C  28,C  25,C  24,O  36)    169.1319         0.011682   
    347. D(C  28,C  25,C  24,C  23)    -66.2526         0.011682   
    348. D(H  60,C  26,C  23,H  58)     51.4441         0.010429   
    349. D(H  60,C  26,C  23,C  24)    169.4418         0.010429   
    350. D(H  60,C  26,C  23,O  20)    -65.9656         0.010429   
    351. D(O  27,C  26,C  23,H  58)    172.9880         0.010429   
    352. D(O  27,C  26,C  23,C  24)    -69.0142         0.010429   
    353. D(O  27,C  26,C  23,O  20)     55.5783         0.010429   
    354. D(H  62,O  27,C  26,H  61)   -172.7137         0.022871   
    355. D(H  62,O  27,C  26,H  60)     68.4382         0.022871   
    356. D(H  62,O  27,C  26,C  23)    -52.0853         0.022871   
    357. D(H  63,C  28,C  25,C  32)    176.7258         0.026400   
    358. D(H  63,C  28,C  25,C  24)     -3.0127         0.026400   
    359. D(C  29,C  28,C  25,C  32)     -4.1277         0.026400   
    360. D(C  29,C  28,C  25,C  24)    176.1338         0.026400   
    361. D(C  30,C  29,C  28,H  63)   -178.8121         0.028957   
    362. D(C  30,C  29,C  28,C  25)      2.0592         0.028957   
    363. D(O  39,C  29,C  28,H  63)      0.9843         0.028957   
    364. D(O  39,C  29,C  28,C  25)   -178.1443         0.028957   
    365. D(O  40,C  30,C  29,O  39)      0.6325         0.024339   
    366. D(O  40,C  30,C  29,C  28)   -179.5483         0.024339   
    367. D(C  31,C  30,C  29,O  39)   -178.3795         0.024339   
    368. D(C  31,C  30,C  29,C  28)      1.4397         0.024339   
    369. D(H  64,C  31,C  30,O  40)     -2.3195         0.029168   
    370. D(H  64,C  31,C  30,C  29)    176.6856         0.029168   
    371. D(C  32,C  31,C  30,O  40)    178.1387         0.029168   
    372. D(C  32,C  31,C  30,C  29)     -2.8562         0.029168   
    373. D(H  65,C  32,C  31,H  64)     -0.1522         0.028111   
    374. D(H  65,C  32,C  31,C  30)    179.3820         0.028111   
    375. D(C  25,C  32,C  31,H  64)   -178.7588         0.028111   
    376. D(C  25,C  32,C  31,C  30)      0.7753         0.028111   
    377. D(H  65,C  32,C  25,C  28)   -175.8780         0.028388   
    378. D(H  65,C  32,C  25,C  24)      3.8519         0.028388   
    379. D(C  31,C  32,C  25,C  28)      2.7128         0.028388   
    380. D(C  31,C  32,C  25,C  24)   -177.5573         0.028388   
    381. D(H  68,C  33,O  19,C   0)     65.7446         0.023380   
    382. D(H  67,C  33,O  19,C   0)    -56.8171         0.023380   
    383. D(H  66,C  33,O  19,C   0)   -175.2520         0.023380   
    384. D(H  71,C  34,O  18,C   2)    177.4880         0.023475   
    385. D(H  70,C  34,O  18,C   2)     59.1702         0.023475   
    386. D(H  69,C  34,O  18,C   2)    -63.6961         0.023475   
    387. D(H  74,C  35,O  22,C  12)     63.4657         0.025277   
    388. D(H  73,C  35,O  22,C  12)    -59.3495         0.025277   
    389. D(H  72,C  35,O  22,C  12)   -177.8502         0.025277   
    390. D(H  75,O  36,C  24,H  59)   -174.9044         0.022570   
    391. D(H  75,O  36,C  24,C  25)     67.3140         0.022570   
    392. D(H  75,O  36,C  24,C  23)    -59.3589         0.022570   
    393. D(H  76,O  37,C  16,H  54)     57.0577         0.022278   
    394. D(H  76,O  37,C  16,H  53)    174.3123         0.022278   
    395. D(H  76,O  37,C  16,C   7)    -64.5972         0.022278   
    396. D(H  77,O  38,C  17,H  56)     63.2492         0.021668   
    397. D(H  77,O  38,C  17,H  55)    179.7194         0.021668   
    398. D(H  77,O  38,C  17,C   8)    -59.6505         0.021668   
    399. D(C  41,O  39,C  29,C  30)    176.1525         0.028553   
    400. D(C  41,O  39,C  29,C  28)     -3.6532         0.028553   
    401. D(H  78,O  40,C  30,C  31)    176.1926         0.029403   
    402. D(H  78,O  40,C  30,C  29)     -2.8153         0.029403   
    403. D(H  81,C  41,O  39,C  29)    -65.1272         0.023346   
    404. D(H  80,C  41,O  39,C  29)    175.9115         0.023346   
    405. D(H  79,C  41,O  39,C  29)     57.0062         0.023346   
    -----------------------------------------------------------------

Number of atoms                         .... 82
Number of degrees of freedom            .... 405


         *************************************************************
         *                GEOMETRY OPTIMIZATION CYCLE   1            *
         *************************************************************
---------------------------------
CARTESIAN COORDINATES (ANGSTROEM)
---------------------------------
  C     21.527192  -32.090581   -1.420801
  C     21.194818  -32.469470   -2.735687
  C     19.854009  -32.690335   -3.058121
  C     18.883778  -32.566270   -2.067547
  C     19.218254  -32.218796   -0.771558
  C     20.547424  -31.973502   -0.453942
  C     18.190535  -32.163741    0.323156
  C     18.284599  -33.434642    1.183804
  C     17.759992  -33.275714    2.620707
  C     18.758587  -32.536494    3.526298
  C     20.151803  -33.101230    3.504987
  C     20.371417  -34.471840    3.630467
  C     21.651435  -34.989777    3.579243
  C     22.752514  -34.130448    3.430431
  C     22.537233  -32.767973    3.337641
  C     21.246501  -32.263357    3.362216
  C     17.593018  -34.615718    0.486375
  C     16.393736  -32.581604    2.698915
  O     19.555582  -33.046572   -4.356812
  O     22.858459  -31.870952   -1.207587
  O     22.277753  -32.520344   -3.569365
  O     24.017137  -34.632260    3.378941
  O     21.975973  -36.329115    3.653125
  C     22.310667  -33.270746   -4.766972
  C     22.109920  -34.816845   -4.608838
  C     21.736350  -35.221774   -3.198930
  C     23.703430  -32.951235   -5.340206
  O     24.709796  -33.247663   -4.410857
  C     22.672906  -35.043124   -2.183269
  C     22.340476  -35.326096   -0.872830
  C     21.067232  -35.836105   -0.575069
  C     20.167128  -36.079648   -1.592798
  C     20.499354  -35.765261   -2.900114
  C     23.244200  -31.358010    0.047161
  C     18.203297  -33.232624   -4.705395
  C     20.939540  -37.252138    3.893364
  O     21.193598  -35.261611   -5.574084
  O     17.862983  -35.840532    1.119512
  O     15.823805  -32.665462    3.984313
  O     23.154845  -35.160103    0.220090
  O     20.732924  -36.108393    0.724585
  C     24.479719  -34.730579    0.003183
  H     17.846847  -32.739865   -2.303469
  H     20.802039  -31.711502    0.559833
  H     17.187095  -32.068110   -0.092883
  H     18.387353  -31.293436    0.949533
  H     19.345312  -33.699619    1.263300
  H     17.625602  -34.293925    3.006208
  H     18.368175  -32.564588    4.547884
  H     18.799689  -31.486118    3.231103
  H     19.529649  -35.132636    3.753196
  H     23.391289  -32.114605    3.252547
  H     21.098366  -31.196420    3.280131
  H     16.506144  -34.499394    0.510481
  H     17.915210  -34.642176   -0.563095
  H     16.489053  -31.512390    2.498663
  H     15.710375  -33.013093    1.954726
  H     23.955796  -35.591393    3.486194
  H     21.550242  -32.909717   -5.470410
  H     23.057648  -35.306205   -4.861332
  H     23.735505  -31.886469   -5.612470
  H     23.892722  -33.553158   -6.230209
  H     24.458548  -32.795716   -3.592889
  H     23.650825  -34.668839   -2.437908
  H     19.212357  -36.521794   -1.356086
  H     19.790328  -35.970207   -3.686815
  H     24.316526  -31.179185   -0.023430
  H     22.736057  -30.413504    0.264039
  H     23.044783  -32.071769    0.852259
  H     17.755241  -34.066784   -4.156113
  H     17.617086  -32.325379   -4.533896
  H     18.202593  -33.460036   -5.771303
  H     21.423292  -38.225939    3.949806
  H     20.434570  -37.042539    4.840797
  H     20.209761  -37.255760    3.078962
  H     20.368548  -34.781102   -5.422502
  H     18.813804  -36.014834    1.033062
  H     15.713903  -33.596622    4.208354
  H     21.515344  -35.925870    1.266102
  H     24.505436  -33.782978   -0.538664
  H     24.906970  -34.598407    0.996290
  H     25.050456  -35.481940   -0.550979

----------------------------
CARTESIAN COORDINATES (A.U.)
----------------------------
  NO LB      ZA    FRAG     MASS         X           Y           Z
   0 C     6.0000    0    12.011   40.680498  -60.642410   -2.684924
   1 C     6.0000    0    12.011   40.052402  -61.358406   -5.169698
   2 C     6.0000    0    12.011   37.518640  -61.775781   -5.779012
   3 C     6.0000    0    12.011   35.685169  -61.541331   -3.907098
   4 C     6.0000    0    12.011   36.317237  -60.884700   -1.458034
   5 C     6.0000    0    12.011   38.829003  -60.421161   -0.857826
   6 C     6.0000    0    12.011   34.375129  -60.780663    0.610677
   7 C     6.0000    0    12.011   34.552884  -63.182316    2.237065
   8 C     6.0000    0    12.011   33.561521  -62.881987    4.952419
   9 C     6.0000    0    12.011   35.448592  -61.485063    6.663737
  10 C     6.0000    0    12.011   38.081388  -62.552260    6.623465
  11 C     6.0000    0    12.011   38.496399  -65.142337    6.860588
  12 C     6.0000    0    12.011   40.915282  -66.121096    6.763789
  13 C     6.0000    0    12.011   42.996019  -64.497199    6.482575
  14 C     6.0000    0    12.011   42.589198  -61.922496    6.307227
  15 C     6.0000    0    12.011   40.150067  -60.968908    6.353668
  16 C     6.0000    0    12.011   33.245986  -65.414227    0.919115
  17 C     6.0000    0    12.011   30.979671  -61.570309    5.100210
  18 O     8.0000    0    15.999   36.954694  -62.448970   -8.233181
  19 O     8.0000    0    15.999   43.196227  -60.227371   -2.282009
  20 O     8.0000    0    15.999   42.098852  -61.454543   -6.745122
  21 O     8.0000    0    15.999   45.385811  -65.445487    6.385273
  22 O     8.0000    0    15.999   41.528570  -68.652078    6.903406
  23 C     6.0000    0    12.011   42.161050  -62.872599   -9.008272
  24 C     6.0000    0    12.011   41.781694  -65.794302   -8.709441
  25 C     6.0000    0    12.011   41.075748  -66.559507   -6.045101
  26 C     6.0000    0    12.011   44.792991  -62.268810  -10.091528
  27 O     8.0000    0    15.999   46.694748  -62.828978   -8.335312
  28 C     6.0000    0    12.011   42.845583  -66.221907   -4.125780
  29 C     6.0000    0    12.011   42.217382  -66.756646   -1.649410
  30 C     6.0000    0    12.011   39.811298  -67.720425   -1.086724
  31 C     6.0000    0    12.011   38.110348  -68.180653   -3.009953
  32 C     6.0000    0    12.011   38.738164  -67.586548   -5.480421
  33 C     6.0000    0    12.011   43.925173  -59.258052    0.089121
  34 C     6.0000    0    12.011   34.399246  -62.800558   -8.891908
  35 C     6.0000    0    12.011   39.569996  -70.396339    7.357392
  36 O     8.0000    0    15.999   40.050096  -66.634787  -10.533493
  37 O     8.0000    0    15.999   33.756146  -67.728791    2.115571
  38 O     8.0000    0    15.999   29.902657  -61.728778    7.529260
  39 O     8.0000    0    15.999   43.756316  -66.442966    0.415910
  40 O     8.0000    0    15.999   39.179548  -68.234974    1.369267
  41 C     6.0000    0    12.011   46.259965  -65.631282    0.006014
  42 H     1.0000    0     1.008   33.725653  -61.869378   -4.352925
  43 H     1.0000    0     1.008   39.310157  -59.926055    1.057931
  44 H     1.0000    0     1.008   32.478902  -60.599945   -0.175524
  45 H     1.0000    0     1.008   34.747061  -59.136024    1.794357
  46 H     1.0000    0     1.008   36.557341  -63.683050    2.387291
  47 H     1.0000    0     1.008   33.307560  -64.806126    5.680910
  48 H     1.0000    0     1.008   34.710821  -61.538153    8.594256
  49 H     1.0000    0     1.008   35.526264  -59.500140    6.105899
  50 H     1.0000    0     1.008   36.905689  -66.391060    7.092512
  51 H     1.0000    0     1.008   44.203130  -60.687808    6.146423
  52 H     1.0000    0     1.008   39.870133  -58.952691    6.198550
  53 H     1.0000    0     1.008   31.192091  -65.194407    0.964669
  54 H     1.0000    0     1.008   33.854840  -65.464225   -1.064095
  55 H     1.0000    0     1.008   31.159794  -59.549786    4.721788
  56 H     1.0000    0     1.008   29.688306  -62.385705    3.693896
  57 H     1.0000    0     1.008   45.269894  -67.257986    6.587951
  58 H     1.0000    0     1.008   40.724055  -62.190353  -10.337577
  59 H     1.0000    0     1.008   43.572640  -66.719059   -9.186586
  60 H     1.0000    0     1.008   44.853605  -60.256695  -10.606032
  61 H     1.0000    0     1.008   45.150702  -63.406280  -11.773389
  62 H     1.0000    0     1.008   46.219957  -61.974921   -6.789577
  63 H     1.0000    0     1.008   44.693582  -65.514611   -4.606978
  64 H     1.0000    0     1.008   36.306092  -69.016188   -2.562631
  65 H     1.0000    0     1.008   37.398301  -67.973841   -6.967070
  66 H     1.0000    0     1.008   45.951574  -58.920121   -0.044276
  67 H     1.0000    0     1.008   42.964921  -57.473193    0.498961
  68 H     1.0000    0     1.008   43.548329  -60.606860    1.610536
  69 H     1.0000    0     1.008   33.552543  -64.376891   -7.853916
  70 H     1.0000    0     1.008   33.291469  -61.086113   -8.567822
  71 H     1.0000    0     1.008   34.397917  -63.230304  -10.906182
  72 H     1.0000    0     1.008   40.484155  -72.236555    7.464052
  73 H     1.0000    0     1.008   38.615741  -70.000254    9.147780
  74 H     1.0000    0     1.008   38.190914  -70.403183    5.818395
  75 H     1.0000    0     1.008   38.490977  -65.726757  -10.247044
  76 H     1.0000    0     1.008   35.552938  -68.058173    1.952203
  77 H     1.0000    0     1.008   29.694974  -63.488415    7.952636
  78 H     1.0000    0     1.008   40.658107  -67.890056    2.392587
  79 H     1.0000    0     1.008   46.308563  -63.840576   -1.017927
  80 H     1.0000    0     1.008   47.067351  -65.381514    1.882715
  81 H     1.0000    0     1.008   47.338501  -67.051148   -1.041199

--------------------------------
INTERNAL COORDINATES (ANGSTROEM)
--------------------------------
 C      0   0   0     0.000000000000     0.00000000     0.00000000
 C      1   0   0     1.408174006824     0.00000000     0.00000000
 C      2   1   0     1.396608202331   118.99464804     0.00000000
 C      3   2   1     1.392112827022   119.38865737   358.30159734
 C      4   3   2     1.382823065869   121.37894838     0.49011155
 C      1   2   3     1.381473814818   120.59152459     1.72268130
 C      5   4   3     1.502543893074   121.77523426   183.78350920
 C      7   5   4     1.537774314018   109.61152555   101.15351758
 C      8   7   5     1.537908496898   114.62274886   155.29994506
 C      9   8   7     1.537443590904   112.23857979   282.74702071
 C     10   9   8     1.503473056946   114.38917049   308.46977296
 C     11  10   9     1.393752778814   120.93885099   312.69893667
 C     12  11  10     1.381784633330   120.74618385   178.48749326
 C     13  12  11     1.404623053140   120.05120472     1.49223241
 C     14  13  12     1.382494832793   119.20724695     0.04603198
 C     11  10   9     1.385921676267   120.41895554   132.83299673
 C      8   7   5     1.536109471862   110.71977911   281.10960858
 C      9   8   7     1.534457955112   113.45889472    47.29005497
 O      3   2   1     1.379333398261   117.77026337   179.32431717
 O      1   2   3     1.366003832146   114.77371532   181.26303404
 O      2   1   3     1.367609118115   113.09845486   177.46038937
 O     14  13  12     1.361520823686   120.43958001   180.00423978
 O     13  12  11     1.380076216739   125.42402038   182.00407011
 C     21   2   1     1.413665793507   123.68342611   158.22514092
 C     24  21   2     1.567076183194   115.80083812   299.38870650
 C     25  24  21     1.513724930262   112.92513392     7.36934381
 C     24  21   2     1.539634331470   103.08044211   178.00379254
 O     27  24  21     1.401546273131   111.02479675    55.57833688
 C     26  25  24     1.393061400920   118.61098953   293.74735519
 C     29  26  25     1.381242760191   120.24066906   176.13384829
 C     30  29  26     1.403539590915   119.60713881     2.05921866
 C     31  30  29     1.380315929529   119.95075189     1.43968816
 C     26  25  24     1.383773129041   121.79010018   114.01488306
 C     20   1   2     1.409361048454   117.65968655   173.68005498
 C     19   3   2     1.408829521954   118.34250425   181.89827060
 C     23  13  12     1.408502530178   118.16871034   355.30075693
 O     25  24  21     1.403268799909   109.08346118   134.22762103
 O     17   8   7     1.404960253792   112.28268028   169.25427449
 O     18   9   8     1.408581322798   112.32387044   169.09606468
 O     30  29  26     1.373035246211   125.99185813   181.85570101
 O     31  30  29     1.369307764757   119.67599038   180.45171623
 C     40  30  29     1.409549746366   118.15346587   356.34677294
 H      4   3   2     1.077506402164   120.03629277   180.35122595
 H      6   1   2     1.077595643210   120.76077502   178.22102880
 H      7   5   4     1.090470586337   110.77154069   339.56742317
 H      7   5   4     1.090191145206   108.92764378   220.45082864
 H      8   7   5     1.096195781939   107.43059374    36.93137497
 H      9   8   7     1.097006810355   105.91453918   164.40112417
 H     10   9   8     1.094006525083   107.81204634   186.38385254
 H     10   9   8     1.091842100305   109.13234452    70.62748041
 H     12  11  10     1.077165754375   119.36644418   359.44697406
 H     15  14  13     1.078676367357   118.61644107   178.23807873
 H     16  11  10     1.080294113847   119.77544624     0.89028149
 H     17   8   7     1.093347285287   110.83865087   287.45850781
 H     17   8   7     1.098132181651   108.68318864    46.46090096
 H     18   9   8     1.091973405783   110.84576337   286.36812840
 H     18   9   8     1.098627719215   109.97709611    46.14693559
 H     22  14  13     0.967058835022   107.60402614   358.40147505
 H     24  21   2     1.097001926781   110.63405719    61.99209918
 H     25  24  21     1.096090904725   107.84687683   248.15506041
 H     27  24  21     1.099491937645   108.63604355   294.03439027
 H     27  24  21     1.090984735180   110.25432722   174.52678399
 H     28  27  24     0.967705566870   105.97878800   307.91468130
 H     29  26  25     1.077615733290   118.83981203   356.98727204
 H     32  31  30     1.078477649038   119.19639173   176.68563759
 H     33  26  25     1.078711606517   120.31175152     3.85185859
 H     34  20   1     1.089423273778   105.75103261   184.74797168
 H     34  20   1     1.094229626235   111.31589234   303.18291920
 H     34  20   1     1.094258488017   111.57728340    65.74461368
 H     35  19   3     1.094662725654   111.67622053   296.30394531
 H     35  19   3     1.093685602178   111.47745059    59.17021746
 H     35  19   3     1.089897677092   105.67354329   177.48802767
 H     36  23  13     1.088801788340   105.54620379   182.14977685
 H     36  23  13     1.093871561434   111.21396936   300.65050021
 H     36  23  13     1.093545098912   111.48202821    63.46567212
 H     37  25  24     0.966733957540   106.97155559   300.64109790
 H     38  17   8     0.970523478139   107.73870209   295.40284050
 H     39  18   9     0.964018484929   108.40371206   300.34949638
 H     41  31  30     0.968884208115   107.20910948   357.18469260
 H     42  40  30     1.091881890861   111.28219083    57.00622708
 H     42  40  30     1.089162173628   105.38926197   175.91150223
 H     42  40  30     1.094247998764   111.03511437   294.87275324

---------------------------
INTERNAL COORDINATES (A.U.)
---------------------------
 C      0   0   0     0.000000000000     0.00000000     0.00000000
 C      1   0   0     2.661063221804     0.00000000     0.00000000
 C      2   1   0     2.639207018794   118.99464804     0.00000000
 C      3   2   1     2.630711990591   119.38865737   358.30159734
 C      4   3   2     2.613156886162   121.37894838     0.49011155
 C      1   2   3     2.610607171190   120.59152459     1.72268130
 C      5   4   3     2.839396462105   121.77523426   183.78350920
 C      7   5   4     2.905972309273   109.61152555   101.15351758
 C      8   7   5     2.906225878169   114.62274886   155.29994506
 C      9   8   7     2.905347333161   112.23857979   282.74702071
 C     10   9   8     2.841152327357   114.38917049   308.46977296
 C     11  10   9     2.633811050350   120.93885099   312.69893667
 C     12  11  10     2.611194533055   120.74618385   178.48749326
 C     13  12  11     2.654352891826   120.05120472     1.49223241
 C     14  13  12     2.612536615540   119.20724695     0.04603198
 C     11  10   9     2.619012411209   120.41895554   132.83299673
 C      8   7   5     2.902826213542   110.71977911   281.10960858
 C      9   8   7     2.899705299179   113.45889472    47.29005497
 O      3   2   1     2.606562370084   117.77026337   179.32431717
 O      1   2   3     2.581373140643   114.77371532   181.26303404
 O      2   1   3     2.584406691492   113.09845486   177.46038937
 O     14  13  12     2.572901482398   120.43958001   180.00423978
 O     13  12  11     2.607966093574   125.42402038   182.00407011
 C     21   2   1     2.671441194620   123.68342611   158.22514092
 C     24  21   2     2.961344817227   115.80083812   299.38870650
 C     25  24  21     2.860525560284   112.92513392     7.36934381
 C     24  21   2     2.909487232861   103.08044211   178.00379254
 O     27  24  21     2.648538620236   111.02479675    55.57833688
 C     26  25  24     2.632504535475   118.61098953   293.74735519
 C     29  26  25     2.610170541223   120.24066906   176.13384829
 C     30  29  26     2.652305444945   119.60713881     2.05921866
 C     31  30  29     2.608419085100   119.95075189     1.43968816
 C     26  25  24     2.614952245367   121.79010018   114.01488306
 C     20   1   2     2.663306405393   117.65968655   173.68005498
 C     19   3   2     2.662301965877   118.34250425   181.89827060
 C     23  13  12     2.661684040972   118.16871034   355.30075693
 O     25  24  21     2.651793724104   109.08346118   134.22762103
 O     17   8   7     2.654990108711   112.28268028   169.25427449
 O     18   9   8     2.661832937444   112.32387044   169.09606468
 O     30  29  26     2.594660587560   125.99185813   181.85570101
 O     31  30  29     2.587616668442   119.67599038   180.45171623
 C     40  30  29     2.663662992770   118.15346587   356.34677294
 H      4   3   2     2.036192007636   120.03629277   180.35122595
 H      6   1   2     2.036360648773   120.76077502   178.22102880
 H      7   5   4     2.060690765273   110.77154069   339.56742317
 H      7   5   4     2.060162698066   108.92764378   220.45082864
 H      8   7   5     2.071509817025   107.43059374    36.93137497
 H      9   8   7     2.073042438617   105.91453918   164.40112417
 H     10   9   8     2.067372721130   107.81204634   186.38385254
 H     10   9   8     2.063282551063   109.13234452    70.62748041
 H     12  11  10     2.035548276607   119.36644418   359.44697406
 H     15  14  13     2.038402921439   118.61644107   178.23807873
 H     16  11  10     2.041460019258   119.77544624     0.89028149
 H     17   8   7     2.066126938458   110.83865087   287.45850781
 H     17   8   7     2.075169082166   108.68318864    46.46090096
 H     18   9   8     2.063530682455   110.84576337   286.36812840
 H     18   9   8     2.076105512450   109.97709611    46.14693559
 H     22  14  13     1.827476353581   107.60402614   358.40147505
 H     24  21   2     2.073033210001   110.63405719    61.99209918
 H     25  24  21     2.071311627812   107.84687683   248.15506041
 H     27  24  21     2.077738648603   108.63604355   294.03439027
 H     27  24  21     2.061662365780   110.25432722   174.52678399
 H     28  27  24     1.828698499655   105.97878800   307.91468130
 H     29  26  25     2.036398613522   118.83981203   356.98727204
 H     32  31  30     2.038027398237   119.19639173   176.68563759
 H     33  26  25     2.038469513799   120.31175152     3.85185859
 H     34  20   1     2.058711631360   105.75103261   184.74797168
 H     34  20   1     2.067794321207   111.31589234   303.18291920
 H     34  20   1     2.067848862071   111.57728340    65.74461368
 H     35  19   3     2.068612760497   111.67622053   296.30394531
 H     35  19   3     2.066766264730   111.47745059    59.17021746
 H     35  19   3     2.059608123700   105.67354329   177.48802767
 H     36  23  13     2.057537194086   105.54620379   182.14977685
 H     36  23  13     2.067117676795   111.21396936   300.65050021
 H     36  23  13     2.066500752036   111.48202821    63.46567212
 H     37  25  24     1.826862424113   106.97155559   300.64109790
 H     38  17   8     1.834023580224   107.73870209   295.40284050
 H     39  18   9     1.821730924553   108.40371206   300.34949638
 H     41  31  30     1.830925808818   107.20910948   357.18469260
 H     42  40  30     2.063357744316   111.28219083    57.00622708
 H     42  40  30     2.058218223584   105.38926197   175.91150223
 H     42  40  30     2.067829040255   111.03511437   294.87275324

---------------------
BASIS SET INFORMATION
---------------------
There are 3 groups of distinct atoms

 Group   1 Type C   : 11s6p2d1f contracted to 5s3p2d1f pattern {62111/411/11/1}
 Group   2 Type O   : 11s6p2d1f contracted to 5s3p2d1f pattern {62111/411/11/1}
 Group   3 Type H   : 5s1p contracted to 3s1p pattern {311/1}

Atom   0C    basis set group =>   1
Atom   1C    basis set group =>   1
Atom   2C    basis set group =>   1
Atom   3C    basis set group =>   1
Atom   4C    basis set group =>   1
Atom   5C    basis set group =>   1
Atom   6C    basis set group =>   1
Atom   7C    basis set group =>   1
Atom   8C    basis set group =>   1
Atom   9C    basis set group =>   1
Atom  10C    basis set group =>   1
Atom  11C    basis set group =>   1
Atom  12C    basis set group =>   1
Atom  13C    basis set group =>   1
Atom  14C    basis set group =>   1
Atom  15C    basis set group =>   1
Atom  16C    basis set group =>   1
Atom  17C    basis set group =>   1
Atom  18O    basis set group =>   2
Atom  19O    basis set group =>   2
Atom  20O    basis set group =>   2
Atom  21O    basis set group =>   2
Atom  22O    basis set group =>   2
Atom  23C    basis set group =>   1
Atom  24C    basis set group =>   1
Atom  25C    basis set group =>   1
Atom  26C    basis set group =>   1
Atom  27O    basis set group =>   2
Atom  28C    basis set group =>   1
Atom  29C    basis set group =>   1
Atom  30C    basis set group =>   1
Atom  31C    basis set group =>   1
Atom  32C    basis set group =>   1
Atom  33C    basis set group =>   1
Atom  34C    basis set group =>   1
Atom  35C    basis set group =>   1
Atom  36O    basis set group =>   2
Atom  37O    basis set group =>   2
Atom  38O    basis set group =>   2
Atom  39O    basis set group =>   2
Atom  40O    basis set group =>   2
Atom  41C    basis set group =>   1
Atom  42H    basis set group =>   3
Atom  43H    basis set group =>   3
Atom  44H    basis set group =>   3
Atom  45H    basis set group =>   3
Atom  46H    basis set group =>   3
Atom  47H    basis set group =>   3
Atom  48H    basis set group =>   3
Atom  49H    basis set group =>   3
Atom  50H    basis set group =>   3
Atom  51H    basis set group =>   3
Atom  52H    basis set group =>   3
Atom  53H    basis set group =>   3
Atom  54H    basis set group =>   3
Atom  55H    basis set group =>   3
Atom  56H    basis set group =>   3
Atom  57H    basis set group =>   3
Atom  58H    basis set group =>   3
Atom  59H    basis set group =>   3
Atom  60H    basis set group =>   3
Atom  61H    basis set group =>   3
Atom  62H    basis set group =>   3
Atom  63H    basis set group =>   3
Atom  64H    basis set group =>   3
Atom  65H    basis set group =>   3
Atom  66H    basis set group =>   3
Atom  67H    basis set group =>   3
Atom  68H    basis set group =>   3
Atom  69H    basis set group =>   3
Atom  70H    basis set group =>   3
Atom  71H    basis set group =>   3
Atom  72H    basis set group =>   3
Atom  73H    basis set group =>   3
Atom  74H    basis set group =>   3
Atom  75H    basis set group =>   3
Atom  76H    basis set group =>   3
Atom  77H    basis set group =>   3
Atom  78H    basis set group =>   3
Atom  79H    basis set group =>   3
Atom  80H    basis set group =>   3
Atom  81H    basis set group =>   3
---------------------------------
AUXILIARY/J BASIS SET INFORMATION
---------------------------------
There are 3 groups of distinct atoms

 Group   1 Type C   : 12s5p4d2f1g contracted to 6s4p3d1f1g pattern {711111/2111/211/2/1}
 Group   2 Type O   : 12s5p4d2f1g contracted to 6s4p3d1f1g pattern {711111/2111/211/2/1}
 Group   3 Type H   : 5s2p1d contracted to 3s1p1d pattern {311/2/1}

Atom   0C    basis set group =>   1
Atom   1C    basis set group =>   1
Atom   2C    basis set group =>   1
Atom   3C    basis set group =>   1
Atom   4C    basis set group =>   1
Atom   5C    basis set group =>   1
Atom   6C    basis set group =>   1
Atom   7C    basis set group =>   1
Atom   8C    basis set group =>   1
Atom   9C    basis set group =>   1
Atom  10C    basis set group =>   1
Atom  11C    basis set group =>   1
Atom  12C    basis set group =>   1
Atom  13C    basis set group =>   1
Atom  14C    basis set group =>   1
Atom  15C    basis set group =>   1
Atom  16C    basis set group =>   1
Atom  17C    basis set group =>   1
Atom  18O    basis set group =>   2
Atom  19O    basis set group =>   2
Atom  20O    basis set group =>   2
Atom  21O    basis set group =>   2
Atom  22O    basis set group =>   2
Atom  23C    basis set group =>   1
Atom  24C    basis set group =>   1
Atom  25C    basis set group =>   1
Atom  26C    basis set group =>   1
Atom  27O    basis set group =>   2
Atom  28C    basis set group =>   1
Atom  29C    basis set group =>   1
Atom  30C    basis set group =>   1
Atom  31C    basis set group =>   1
Atom  32C    basis set group =>   1
Atom  33C    basis set group =>   1
Atom  34C    basis set group =>   1
Atom  35C    basis set group =>   1
Atom  36O    basis set group =>   2
Atom  37O    basis set group =>   2
Atom  38O    basis set group =>   2
Atom  39O    basis set group =>   2
Atom  40O    basis set group =>   2
Atom  41C    basis set group =>   1
Atom  42H    basis set group =>   3
Atom  43H    basis set group =>   3
Atom  44H    basis set group =>   3
Atom  45H    basis set group =>   3
Atom  46H    basis set group =>   3
Atom  47H    basis set group =>   3
Atom  48H    basis set group =>   3
Atom  49H    basis set group =>   3
Atom  50H    basis set group =>   3
Atom  51H    basis set group =>   3
Atom  52H    basis set group =>   3
Atom  53H    basis set group =>   3
Atom  54H    basis set group =>   3
Atom  55H    basis set group =>   3
Atom  56H    basis set group =>   3
Atom  57H    basis set group =>   3
Atom  58H    basis set group =>   3
Atom  59H    basis set group =>   3
Atom  60H    basis set group =>   3
Atom  61H    basis set group =>   3
Atom  62H    basis set group =>   3
Atom  63H    basis set group =>   3
Atom  64H    basis set group =>   3
Atom  65H    basis set group =>   3
Atom  66H    basis set group =>   3
Atom  67H    basis set group =>   3
Atom  68H    basis set group =>   3
Atom  69H    basis set group =>   3
Atom  70H    basis set group =>   3
Atom  71H    basis set group =>   3
Atom  72H    basis set group =>   3
Atom  73H    basis set group =>   3
Atom  74H    basis set group =>   3
Atom  75H    basis set group =>   3
Atom  76H    basis set group =>   3
Atom  77H    basis set group =>   3
Atom  78H    basis set group =>   3
Atom  79H    basis set group =>   3
Atom  80H    basis set group =>   3
Atom  81H    basis set group =>   3
--------------------------------------------------------------------------
WARNING: There is at least one non-excluded one OpenFabrics device found,
but there are no active ports detected (or Open MPI was unable to use
them).  This is most certainly not what you wanted.  Check your
cables, subnet manager configuration, etc.  The openib BTL will be
ignored for this job.

  Local host: c03b01n01
--------------------------------------------------------------------------
--------------------------------------------------------------------------
WARNING: There was an error initializing an OpenFabrics device.

  Local host:   c03b01n01
  Local device: mlx5_0
--------------------------------------------------------------------------
[c03b01n01:86972] 5 more processes have sent help message help-mpi-btl-openib.txt / no active ports found
[c03b01n01:86972] Set MCA parameter "orte_base_help_aggregate" to 0 to see all help / error messages
[c03b01n01:86972] 57 more processes have sent help message help-mpi-btl-openib.txt / error in device init


           ************************************************************
           *        Program running with 64 parallel MPI-processes    *
           *              working on a common directory               *
           ************************************************************
------------------------------------------------------------------------------
                             ORCA STARTUP CALCULATIONS
                           -- RI-GTO INTEGRALS CHOSEN --
------------------------------------------------------------------------------
------------------------------------------------------------------------------
                   ___                                                        
                  /   \      - P O W E R E D   B Y -                         
                 /     \                                                     
                 |  |  |   _    _      __       _____    __    __             
                 |  |  |  | |  | |    /  \     |  _  \  |  |  /  |          
                  \  \/   | |  | |   /    \    | | | |  |  | /  /          
                 / \  \   | |__| |  /  /\  \   | |_| |  |  |/  /          
                |  |  |   |  __  | /  /__\  \  |    /   |      \           
                |  |  |   | |  | | |   __   |  |    \   |  |\   \          
                \     /   | |  | | |  |  |  |  | |\  \  |  | \   \       
                 \___/    |_|  |_| |__|  |__|  |_| \__\ |__|  \__/        
                                                                              
                      - O R C A' S   B I G   F R I E N D -                    
                                      &                                       
                       - I N T E G R A L  F E E D E R -                       
                                                                              
 v1 FN, 2020, v2 2021, v3 2022-2024                                           
------------------------------------------------------------------------------


----------------------
SHARK INTEGRAL PACKAGE
----------------------

Number of atoms                             ...     82
Number of basis functions                   ...   1542
Number of shells                            ...    622
Maximum angular momentum                    ...      3
Integral batch strategy                     ... SHARK/LIBINT Hybrid
RI-J (if used) integral strategy            ... SPLIT-RIJ (Revised 2003 algorithm where possible)
Printlevel                                  ...      1
Contraction scheme used                     ... SEGMENTED contraction
Prescreening option                         ... SCHWARTZ
   Thresh                                   ... 2.500e-11
   Tcut                                     ... 2.500e-12
   Tpresel                                  ... 2.500e-12 
Coulomb Range Separation                    ... NOT USED
Exchange Range Separation                   ... NOT USED
Multipole approximations                    ... NOT USED
Finite Nucleus Model                        ... NOT USED
CABS basis                                  ... NOT available
Auxiliary Coulomb fitting basis             ... AVAILABLE
   # of basis functions in Aux-J            ...   2498
   # of shells in Aux-J                     ...    830
   Maximum angular momentum in Aux-J        ...      4
Auxiliary J/K fitting basis                 ... NOT available
Auxiliary Correlation fitting basis         ... NOT available
Auxiliary 'external' fitting basis          ... NOT available

Checking pre-screening integrals            ... done (  1.5 sec) Dimension = 622
   => SHARK Basis and OBASIS are compatible. Storing Pre-screening
Shell pair information
Shell pair cut-off parameter TPreSel        ...   2.5e-12
Total number of shell pairs                 ...    193753
Shell pairs after pre-screening             ...    118302
Total number of primitive shell pairs       ...    584784
Primitive shell pairs kept                  ...    223114
          la=0 lb=0:  32810 shell pairs
          la=1 lb=0:  35252 shell pairs
          la=1 lb=1:   9554 shell pairs
          la=2 lb=0:  16089 shell pairs
          la=2 lb=1:   8845 shell pairs
          la=2 lb=2:   2046 shell pairs
          la=3 lb=0:   7342 shell pairs
          la=3 lb=1:   4120 shell pairs
          la=3 lb=2:   1817 shell pairs
          la=3 lb=3:    427 shell pairs

Checking whether 4 symmetric matrices of dimension 1542 fit in memory
:Max Core in MB      =   6000.00
 MB in use           =    141.73
 MB left             =   5858.27
 MB needed           =     36.31
 Data fit in memory  = YES
Calculating RI/J V-Matrix + Cholesky decomp.... done (  8.0 sec)
Calculating Nuclear repulsion               ... done (  0.1 sec) ENN=   5833.281175417485 Eh

Diagonalization of the overlap matrix:
Smallest eigenvalue                        ... 2.829e-06
Time for diagonalization                   ...   82.565 sec
Threshold for overlap eigenvalues          ... 1.000e-07
Number of eigenvalues below threshold      ... 0
Time for construction of square roots      ...    2.433 sec
Total time needed                          ...   85.356 sec

-------------------
DFT GRID GENERATION
-------------------

General Integration Accuracy     IntAcc      ... 4.388
Radial Grid Type                 RadialGrid  ... OptM3 with GC (2021)
Angular Grid (max. ang.)         AngularGrid ... 4 (Lebedev-302)
Angular grid pruning method      GridPruning ... 4 (adaptive)
Weight generation scheme         WeightScheme... mBecke (2022)
Basis function cutoff            BFCut       ... 1.0000e-11
Integration weight cutoff        WCut        ... 1.0000e-14
Partially contracted basis set               ... off
Rotationally invariant grid construction     ... off
Angular grids for H and He will be reduced by one unit

Total number of grid points                  ...   373037
Total number of batches                      ...     5871
Average number of points per batch           ...       63
Average number of grid points per atom       ...     4549

--------------------
COSX GRID GENERATION
--------------------

GRIDX 1
-------
General Integration Accuracy     IntAcc      ... 3.816
Radial Grid Type                 RadialGrid  ... OptM3 with GC (2021)
Angular Grid (max. ang.)         AngularGrid ... 1 (Lebedev-50)
Angular grid pruning method      GridPruning ... 4 (adaptive)
Weight generation scheme         WeightScheme... mBecke (2022)
Basis function cutoff            BFCut       ... 1.0000e-11
Integration weight cutoff        WCut        ... 1.0000e-14
Partially contracted basis set               ... on
Rotationally invariant grid construction     ... off
Angular grids for H and He will be reduced by one unit

Total number of grid points                  ...    47225
Total number of batches                      ...      416
Average number of points per batch           ...      113
Average number of grid points per atom       ...      576
UseSFitting                                  ... on

GRIDX 2
-------
General Integration Accuracy     IntAcc      ... 4.020
Radial Grid Type                 RadialGrid  ... OptM3 with GC (2021)
Angular Grid (max. ang.)         AngularGrid ... 2 (Lebedev-110)
Angular grid pruning method      GridPruning ... 4 (adaptive)
Weight generation scheme         WeightScheme... mBecke (2022)
Basis function cutoff            BFCut       ... 1.0000e-11
Integration weight cutoff        WCut        ... 1.0000e-14
Partially contracted basis set               ... on
Rotationally invariant grid construction     ... off
[...]
B( 39-O , 41-C ) :   0.9126 B( 40-O , 78-H ) :   0.8405 B( 41-C , 79-H ) :   0.9628 
B( 41-C , 80-H ) :   0.9638 B( 41-C , 81-H ) :   0.9667 

-------
TIMINGS
-------

Total SCF time: 0 days 0 hours 7 min 22 sec 

Total time                  ....     442.939 sec
Sum of individual times     ....     517.395 sec  (116.8%)

SCF preparation             ....      53.873 sec  ( 12.2%)
Fock matrix formation       ....     171.023 sec  ( 38.6%)
  Startup                   ....       4.255 sec  (  2.5% of F)
  Split-RI-J                ....      20.077 sec  ( 11.7% of F)
  Chain of spheres X        ....      98.855 sec  ( 57.8% of F)
  XC integration            ....      12.513 sec  (  7.3% of F)
    XC Preparation          ....       0.000 sec  (  0.0% of XC)
    Basis function eval.    ....       0.951 sec  (  7.6% of XC)
    Density eval.           ....       1.496 sec  ( 12.0% of XC)
    XC-Functional eval.     ....       0.060 sec  (  0.5% of XC)
    XC-Potential eval.      ....       1.005 sec  (  8.0% of XC)
  CPCM terms                ....      19.093 sec  ( 11.2% of F)
Diagonalization             ....       0.000 sec  (  0.0%)
Density matrix formation    ....       5.598 sec  (  1.3%)
Total Energy calculation    ....       7.082 sec  (  1.6%)
Population analysis         ....       3.056 sec  (  0.7%)
Orbital Transformation      ....      89.757 sec  ( 20.3%)
Orbital Orthonormalization  ....       0.000 sec  (  0.0%)
DIIS solution               ....     180.714 sec  ( 40.8%)
SOSCF solution              ....       6.290 sec  (  1.4%)
Finished LeanSCF after 447.2 sec

Maximum memory used throughout the entire LEANSCF-calculation: 350.2 MB
--------------------------------------------------------------------------
WARNING: There was an error initializing an OpenFabrics device.

  Local host:   c03b01n01
  Local device: mlx5_0
--------------------------------------------------------------------------
--------------------------------------------------------------------------
WARNING: There is at least one non-excluded one OpenFabrics device found,
but there are no active ports detected (or Open MPI was unable to use
them).  This is most certainly not what you wanted.  Check your
cables, subnet manager configuration, etc.  The openib BTL will be
ignored for this job.

  Local host: c03b01n01
--------------------------------------------------------------------------


           ************************************************************
           *        Program running with 64 parallel MPI-processes    *
           *              working on a common directory               *
           ************************************************************
[c03b01n01:88960] 61 more processes have sent help message help-mpi-btl-openib.txt / error in device init
[c03b01n01:88960] Set MCA parameter "orte_base_help_aggregate" to 0 to see all help / error messages
[c03b01n01:88960] 1 more process has sent help message help-mpi-btl-openib.txt / no active ports found

------------------------------------------------------------------------------
                         ORCA PROPERTY INTEGRAL CALCULATIONS
------------------------------------------------------------------------------

GBWName                                   ... opt-conf-1.gbw
Number of atoms                           ...     82
Number of basis functions                 ...   1542
Max core memory                           ...   6000 MB

Dipole integrals                          ... YES
Quadrupole integrals                      ...  NO
Linear momentum integrals                 ...  NO
Angular momentum integrals                ...  NO
Higher moments length integrals           ...  NO
Higher moments velocity integrals         ...  NO
Kinetic energy integrals                  ...  NO
GIAO right hand sides                     ...  NO
GIAO dipole derivative integrals          ...  NO
SOC integrals                             ...  NO
EPR diamagnetic integrals (GIAO)          ...  NO
EPR gauge integrals                       ...  NO
Field gradient integrals                  ...  NO (   0 nuclei)
Spin-dipole/Fermi contact integrals       ...  NO (   0 nuclei)
Contact density integrals                 ...  NO (   0 nuclei)
Nucleus-orbit integrals                   ...  NO (   0 nuclei)
Geometric perturbations                   ...  NO (  82 nuclei)

Choice of electric origin   ... Center of mass
Position of electric origin ... ( 39.3694,-64.0223, -0.5413) 
Choice of magnetic origin   ... GIAO
Position of magnetic origin ... (  0.0000,  0.0000,  0.0000) 

Calculating integrals                     ... Electric Dipole (Length)     done (  0.7 sec)

Property integrals calculated in   0.9 sec

Maximum memory used throughout the entire PROPINT-calculation: 221.0 MB


-------------------------------------------------------------------------------
                          DFT DISPERSION CORRECTION                            
                                                                               
                                DFTD4 V3.4.0                                   
-------------------------------------------------------------------------------
The B3LYP functional is recognized
Active option DFTDOPT                   ...         5   

-------------------------   ----------------
Dispersion correction           -0.202659621
-------------------------   ----------------


-------------------------   --------------------
FINAL SINGLE POINT ENERGY     -2032.620650160038
-------------------------   --------------------

--------------------------------------------------------------------------
WARNING: There was an error initializing an OpenFabrics device.

  Local host:   c03b01n01
  Local device: mlx5_0
--------------------------------------------------------------------------
--------------------------------------------------------------------------
WARNING: There is at least one non-excluded one OpenFabrics device found,
but there are no active ports detected (or Open MPI was unable to use
them).  This is most certainly not what you wanted.  Check your
cables, subnet manager configuration, etc.  The openib BTL will be
ignored for this job.

  Local host: c03b01n01
--------------------------------------------------------------------------
[c03b01n01:89467] 58 more processes have sent help message help-mpi-btl-openib.txt / error in device init
[c03b01n01:89467] Set MCA parameter "orte_base_help_aggregate" to 0 to see all help / error messages
[c03b01n01:89467] 4 more processes have sent help message help-mpi-btl-openib.txt / no active ports found


           ************************************************************
           *        Program running with 64 parallel MPI-processes    *
           *              working on a common directory               *
           ************************************************************
------------------------------------------------------------------------------
                         ORCA SCF GRADIENT CALCULATION
------------------------------------------------------------------------------

Nuc. rep. gradient        (SHARK) ... done (  0.1 sec)
HCore & Overlap gradient  (SHARK) ... done (  8.8 sec)
Split-RIJ-J gradient      (SHARK) ... done ( 28.7 sec)
done ( 47.3 sec)
XC gradient                       ... done ( 20.7 sec)
CPCM gradient                     ... done ( 10.0 sec)
Dispersion correction             ... done (  0.5 sec)

-------------------
DISPERSION GRADIENT
-------------------

   1   C   :    0.000243353    0.001551791    0.000154982
   2   C   :   -0.000093373    0.001302021   -0.000285307
   3   C   :   -0.000838510    0.001087440   -0.000536892
   4   C   :   -0.000924600    0.001029081   -0.000403931
   5   C   :   -0.000608532    0.001141748   -0.000161092
   6   C   :   -0.000100323    0.001471802   -0.000174213
   7   C   :   -0.000684616    0.000807676   -0.000331528
   8   C   :   -0.000928409    0.000033845   -0.000092903
   9   C   :   -0.000774561    0.000123930    0.000513520
  10   C   :   -0.000248841    0.000550839    0.000879744
  11   C   :    0.000141212    0.000480847    0.001103981
  12   C   :    0.000103342   -0.000131650    0.001139600
  13   C   :    0.000411781   -0.000374331    0.000901907
  14   C   :    0.000666780    0.000140953    0.000860264
  15   C   :    0.000610929    0.000590186    0.000866485
  16   C   :    0.000413746    0.000812595    0.000984916
  17   C   :   -0.001134929   -0.000563935   -0.000173589
  18   C   :   -0.000877932    0.000342217    0.000305248
  19   O   :   -0.000849309    0.000555944   -0.000782009
  20   O   :    0.000534597    0.001157116    0.000273186
  21   O   :    0.000443535    0.000891808   -0.000539325
  22   O   :    0.000914776   -0.000084470    0.000590199
  23   O   :    0.000177586   -0.000708273    0.000557212
  24   C   :    0.000547015    0.000253031   -0.001044106
  25   C   :    0.000399765   -0.000581482   -0.000940637
  26   C   :    0.000218489   -0.001333921   -0.000481002
  27   C   :    0.000663546    0.000427356   -0.000799927
  28   O   :    0.001053442    0.000254113   -0.000394162
  29   C   :    0.000756900   -0.001262517    0.000068197
  30   C   :    0.000676841   -0.001263264    0.000244935
  31   C   :    0.000234153   -0.001448494   -0.000091454
  32   C   :   -0.000210336   -0.001682015   -0.000172014
  33   C   :   -0.000230401   -0.001705347   -0.000307163
  34   C   :    0.000677762    0.001153179    0.000193219
  35   C   :   -0.001175410    0.000211088   -0.000675646
  36   C   :   -0.000199883   -0.000929633    0.000540341
  37   O   :   -0.000111122   -0.000787760   -0.001023842
  38   O   :   -0.000859345   -0.000923427   -0.000101307
  39   O   :   -0.000717119    0.000076939    0.000485415
  40   O   :    0.000842155   -0.000705013   -0.000206267
  41   O   :   -0.000020687   -0.001193816   -0.000357486
  42   C   :    0.001319520   -0.000403651   -0.000110744
  43   H   :   -0.000266213    0.000128420   -0.000170980
  44   H   :    0.000072681    0.000337719   -0.000136700
  45   H   :   -0.000176150    0.000175667   -0.000118206
  46   H   :   -0.000123517    0.000294368   -0.000117185
  47   H   :   -0.000291000   -0.000005404    0.000010963
  48   H   :   -0.000235648   -0.000063859    0.000099608
  49   H   :   -0.000096692    0.000092871    0.000247408
  50   H   :   -0.000033130    0.000223891    0.000244465
  51   H   :   -0.000036411   -0.000177050    0.000295755
  52   H   :    0.000171957    0.000145341    0.000167226
  53   H   :    0.000095863    0.000274893    0.000201513
  54   H   :   -0.000177920   -0.000247066   -0.000055579
  55   H   :   -0.000381768   -0.000239322    0.000128881
  56   H   :   -0.000265056    0.000114364    0.000157363
  57   H   :   -0.000306039    0.000065276    0.000159854
  58   H   :    0.000167181   -0.000062617    0.000098156
  59   H   :    0.000061647    0.000112682   -0.000260233
  60   H   :    0.000084031   -0.000173411   -0.000248011
  61   H   :    0.000152768    0.000084662   -0.000118685
  62   H   :    0.000180844    0.000068273   -0.000132783
  63   H   :    0.000301044    0.000096706   -0.000250312
  64   H   :    0.000342119   -0.000189038    0.000006669
  65   H   :   -0.000120732   -0.000325729   -0.000068563
  66   H   :   -0.000149842   -0.000375395   -0.000131831
  67   H   :    0.000144469    0.000206073    0.000011157
  68   H   :    0.000208169    0.000203449   -0.000035233
  69   H   :    0.000271354    0.000360729   -0.000135596
  70   H   :   -0.000273559    0.000037923   -0.000257808
  71   H   :   -0.000143585    0.000005453   -0.000193049
  72   H   :   -0.000200742    0.000035342   -0.000144481
  73   H   :   -0.000011034   -0.000152454    0.000063848
  74   H   :    0.000002361   -0.000217688    0.000099585
  75   H   :    0.000047835   -0.000316188    0.000178116
  76   H   :    0.000029219   -0.000179518   -0.000291362
  77   H   :   -0.000273647   -0.000238406   -0.000024802
  78   H   :   -0.000157263    0.000048076    0.000087169
  79   H   :    0.000121669   -0.000232408   -0.000008712
  80   H   :    0.000320454   -0.000114867    0.000136893
  81   H   :    0.000259373   -0.000102926   -0.000058335
  82   H   :    0.000221921   -0.000063380    0.000087015

Difference to translation invariance:
           :   -0.0000000000    0.0000000000    0.0000000000

Difference to rotation invariance:
           :   -0.0000000000   -0.0000000000   -0.0000000000

Norm of the Dispersion gradient    ...    0.0084780153
RMS gradient                       ...    0.0005405385
MAX gradient                       ...    0.0017053470

------------------
CARTESIAN GRADIENT
------------------

   1   C   :   -0.002286778    0.000658154    0.005126372
   2   C   :   -0.002865440   -0.004900224   -0.003098638
   3   C   :   -0.002760236   -0.000988988    0.004655373
   4   C   :    0.003900677   -0.000268577    0.001842799
   5   C   :    0.001675659   -0.003740299    0.001515270
   6   C   :   -0.002319806   -0.001201297   -0.002846954
   7   C   :   -0.004117420    0.002943104   -0.000769547
   8   C   :    0.005552448    0.005351410   -0.002342732
   9   C   :    0.000799920   -0.004423906   -0.000678459
  10   C   :    0.001439983    0.003019453   -0.000790083
  11   C   :    0.001114857   -0.003883111   -0.001642840
  12   C   :    0.000287801    0.003094091   -0.001375797
  13   C   :   -0.005027864    0.003565613   -0.001758154
  14   C   :    0.003160839    0.000643527   -0.000583524
  15   C   :   -0.004727037    0.004345454   -0.000811074
  16   C   :    0.001192099   -0.001732849   -0.000808438
  17   C   :   -0.000625563   -0.012114504    0.005278891
  18   C   :   -0.004848393    0.003609025    0.011387611
  19   O   :   -0.011074470   -0.003238049   -0.009158133
  20   O   :    0.007821199    0.002658501    0.007106482
  21   O   :    0.005674659   -0.003541712   -0.000631107
  22   O   :   -0.001138155   -0.000208117   -0.000919182
  23   O   :   -0.005763761   -0.015735069    0.003900791
  24   C   :   -0.007370742    0.001907724    0.016606132
  25   C   :   -0.006078680   -0.003586729   -0.008635457
  26   C   :   -0.001700542    0.006011565    0.003402989
  27   C   :    0.014089724   -0.004548826    0.005503295
  28   O   :   -0.009416524    0.002493298   -0.009441603
  29   C   :   -0.002394705    0.002678722   -0.001290634
  30   C   :   -0.001055790    0.001457600   -0.005267526
  31   C   :   -0.002223795   -0.000564657    0.001192348
  32   C   :   -0.000506249    0.000785903   -0.004753419
  33   C   :   -0.001476403    0.001881003    0.003487474
  34   C   :   -0.003768132   -0.002313847   -0.007835499
  35   C   :    0.010282295    0.001301458    0.003855975
  36   C   :    0.006317332    0.009468044   -0.002464731
  37   O   :    0.005544696    0.004405074    0.007670648
  38   O   :   -0.004127794    0.013714301   -0.003344530
  39   O   :    0.006400951   -0.000033325   -0.012579782
  40   O   :    0.014315920    0.002800952    0.005103551
  41   O   :   -0.001303739    0.001000616    0.003370379
  42   C   :   -0.010161610   -0.003150504   -0.001385932
  43   H   :    0.001275821    0.000994595    0.001203789
  44   H   :   -0.001533551   -0.000669587   -0.001496527
  45   H   :    0.001017750   -0.001671272    0.000122349
  46   H   :    0.001544105   -0.001597473    0.000116894
  47   H   :    0.003489537   -0.000714717    0.001326700
  48   H   :    0.000343396   -0.002001018   -0.000620711
  49   H   :    0.000160150   -0.001445044    0.000209148
  50   H   :   -0.000396031   -0.001011920   -0.000606172
  51   H   :    0.001242174    0.001832565    0.000212234
  52   H   :   -0.002045179   -0.001859076    0.000842262
  53   H   :    0.000788661   -0.001891388    0.000859707
  54   H   :   -0.000688649   -0.001770555    0.001840013
  55   H   :    0.002665662    0.000387256   -0.001592795
  56   H   :   -0.000585918    0.000660378    0.002197910
  57   H   :   -0.000963519   -0.001840803   -0.000348399
  58   H   :   -0.001759700    0.002423976    0.000123133
  59   H   :   -0.003833350    0.001780576   -0.003275593
  60   H   :    0.002266594   -0.001777681   -0.000837870
  61   H   :    0.000607394    0.002039591    0.001134938
  62   H   :    0.001951969   -0.000768190    0.000421299
  63   H   :   -0.002578150    0.000191174   -0.001296192
  64   H   :   -0.001214019   -0.001023444   -0.001557301
  65   H   :    0.002616696    0.000507344   -0.000644559
  66   H   :    0.001491279   -0.000593045    0.000499819
  67   H   :    0.000626034    0.000277667   -0.001109614
  68   H   :    0.000157827    0.000562550   -0.000454335
  69   H   :   -0.000234089   -0.001837386    0.001508833
  70   H   :   -0.000410196   -0.000942390    0.000211239
  71   H   :   -0.000219422    0.000564483   -0.000269643
  72   H   :    0.000617137    0.000164757   -0.000872763
  73   H   :    0.001467995    0.000099640    0.000012290
  74   H   :    0.000201667   -0.000195521    0.000654101
  75   H   :   -0.000115170   -0.000265257   -0.001183900
  76   H   :    0.001080627   -0.000811721    0.001334111
  77   H   :   -0.000210250    0.000457851   -0.002326208
  78   H   :    0.000525278    0.001436008   -0.000854128
  79   H   :    0.000505992    0.000126091   -0.003250051
  80   H   :   -0.000132974    0.000818065   -0.000203858
  81   H   :   -0.000489912   -0.000018880    0.002079751
  82   H   :    0.000334905   -0.000238200    0.000097493

Difference to translation invariance:
           :   -0.0000000003    0.0000000006    0.0000000000

Difference to rotation invariance:
           :    0.0007571902   -0.0015589769   -0.0000075137

Norm of the Cartesian gradient     ...    0.0625063972
RMS gradient                       ...    0.0039852623
MAX gradient                       ...    0.0166061319

-------
TIMINGS
-------

Total SCF gradient time     ....      117.537 sec

Densities                   ....       0.634 sec  (  0.5%)
One electron gradient       ....       8.779 sec  (  7.5%)
RI-J Coulomb gradient       ....      28.727 sec  ( 24.4%)
COSX gradient               ....      47.252 sec  ( 40.2%)
XC gradient                 ....      20.675 sec  ( 17.6%)
CPCM gradient               ....      10.030 sec  (  8.5%)
   A-Matrix (El+Nuc)        ....       0.168 sec  (  0.1%)
   Potential                ....       9.863 sec  (  8.4%)

Maximum memory used throughout the entire SCFGRAD-calculation: 388.9 MB
--------------------------------------------------------------------------
mpirun has exited due to process rank 24 with PID 89507 on
node c03b01n01 exiting improperly. There are three reasons this could occur:

1. this process did not call "init" before exiting, but others in
the job did. This can cause a job to hang indefinitely while it waits
for all processes to call "init". By rule, if one process calls "init",
then ALL processes must call "init" prior to termination.

2. this process called "init", but exited without calling "finalize".
By rule, all processes that call "init" MUST call "finalize" prior to
exiting or it will be considered an "abnormal termination"

3. this process called "MPI_Abort" or "orte_abort" and the mca parameter
orte_create_session_dirs is set to false. In this case, the run-time cannot
detect that the abort call was an abnormal termination. Hence, the only
error message you will receive is this one.

This may have caused other processes in the application to be
terminated by signals sent by mpirun (as reported here).

You can avoid this message by specifying -quiet on the mpirun command line.
--------------------------------------------------------------------------

ORCA finished by error termination in SCF gradient
Calling Command: mpirun -np 64  /home/jiangy/jiangy_liuxy/lustre1/orca-6.1.0-f.0_linux_x86-64/bin/orca_scfgrad_mpi opt-conf-1.scfgrad.inp opt-conf-1 
[file orca_tools/qcmsg.cpp, line 394]: 
  .... aborting the run

[file orca_tools/qcmsg.cpp, line 394]: 
  .... aborting the run

