
                                 *****************
                                 * O   R   C   A *
                                 *****************

                                            #,                                       
                                            ###                                      
                                            ####                                     
                                            #####                                    
                                            ######                                   
                                           ########,                                 
                                     ,,################,,,,,                         
                               ,,#################################,,                 
                          ,,##########################################,,             
                       ,#########################################, ''#####,          
                    ,#############################################,,   '####,        
                  ,##################################################,,,,####,       
                ,###########''''           ''''###############################       
              ,#####''   ,,,,##########,,,,          '''####'''          '####       
            ,##' ,,,,###########################,,,                        '##       
           ' ,,###''''                  '''############,,,                           
         ,,##''                                '''############,,,,        ,,,,,,###''
      ,#''                                            '''#######################'''  
     '                                                          ''''####''''         
             ,#######,   #######,   ,#######,      ##                                
            ,#'     '#,  ##    ##  ,#'     '#,    #''#        ,####,    ,#,          
            ##       ##  ##   ,#'  ##            #'  '#       #'       ,# #          
            ##       ##  #######   ##           ,######,      #####,      #          
            '#,     ,#'  ##    ##  '#,     ,#' ,#      #,     #,   #      #          
             '#######'   ##     ##  '#######'  #'      '#     '####' #    #          



                #########################################################
                #                        -***-                          #
                #          Department of theory and spectroscopy        #
                #                                                       #
                #                      Frank Neese                      #
                #                                                       #
                #     Directorship, Architecture, Infrastructure        #
                #                    SHARK, DRIVERS                     #
                #        Core code/Algorithms in most modules           #
                #                                                       #
                #        Max Planck Institute fuer Kohlenforschung      #
                #                Kaiser Wilhelm Platz 1                 #
                #                 D-45470 Muelheim/Ruhr                 #
                #                      Germany                          #
                #                                                       #
                #                  All rights reserved                  #
                #                        -***-                          #
                #########################################################


                         Program Version 6.1.0-f.0  -   RELEASE   -


 With contributions from (in alphabetic order):
[Max-Planck-Institut fuer Kohlenforschung]                               
  Daniel Aravena         : Magnetic Suceptibility                        
  Michael Atanasov       : Ab Initio Ligand Field Theory (pilot matlab implementation)
  Alexander A. Auer      : GIAO ZORA, VPT2 properties, NMR spectrum      
  Ute Becker             : All parallelization in ORCA, NUMFREQ, NUMCALC 
  Giovanni Bistoni       : ED, misc. LED, open-shell LED, HFLD           
  Dmytro Bykov           : pre 5.0 version of the SCF Hessian            
  Marcos Casanova-Páez   : Triplet and SCS-CIS(D). UHF-(DLPNO)-IP/EA/STEOM-CCSD. UHF-CVS-IP/STEOM-CCSD   
  Vijay G. Chilkuri      : MRCI spin determinant printing, contributions to CSF-ICE 
  Pauline Colinet        : FMM embedding                                 
  Dipayan Datta          : RHF DLPNO-CCSD density                        
  Achintya Kumar Dutta   : EOM-CC, STEOM-CC                              
  Nicolas Foglia         : Exact transition moments, OPA infrastructure, MCD improvements    
  Dmitry Ganyushin       : Spin-Orbit,Spin-Spin,Magnetic field MRCI      
  Miquel Garcia-Rates    : C-PCM and meta-GGA Hessian, CCSD/C-PCM, Gaussian charge scheme 
  Tiago L. C. Gouveia    : GS-ROHF, GS-ROCIS                             
  Yang Guo               : DLPNO-NEVPT2, F12-NEVPT2, CIM, IAO-localization        
  Andreas Hansen         : Spin unrestricted coupled pair/coupled cluster methods 
  Ingolf Harden          : AUTO-CI MPn and infrastructure                
  Benjamin Helmich-Paris : MC-RPA, TRAH-(SCF,CASSCF), AVAS, COSX integrals, SCF dyn. polar., MC-PDFT, srDFT 
  Lee Huntington         : MR-EOM, pCC                                   
  Robert Izsak           : Overlap fitted RIJCOSX, COSX-SCS-MP3, EOM     
  Riya Kayal             : Wick's Theorem for AUTO-CI, AUTO-CI UHF-CCSDT 
  Emily Kempfer          : AUTO-CI RHF CISDT and CCSDT, approximate NEVPT4
  Christian Kollmar      : KDIIS, OOCD, Brueckner-CCSD(T), CCSD density, CASPT2, CASPT2-K, improved NEVPT2 
  Axel Koslowski         : Symmetry handling                             
  Simone Kossmann        : meta-GGA functionals, TD-DFT gradient, OOMP2, (MP2 Hessian; deprecated post 5.0) 
  Lucas Lang             : DCDCAS, Hyperfine gauge corrections, ICE-SOC+SSC
  Marvin Lechner         : AUTO-CI (C++ implementation), FIC-MRCC        
  Spencer Leger          : CASSCF response                               
  Dagmar Lenk            : GEPOL surface, SMD, ORCA-2-JSON               
  Dimitrios Liakos       : Extrapolation schemes; Compound Job, Property file
  Dimitrios Manganas     : Further ROCIS development; embedding schemes. LFT, Crystal Embedding 
  Dimitrios Pantazis     : SARC Basis sets                               
  Anastasios Papadopoulos: AUTO-CI, single reference methods and gradients 
  Taras Petrenko         : pre 6.0 DFT Hessian and TD-DFT gradient,  ECA, NRVS 
  Petra Pikulova         : Analytic Raman intensities                    
  Peter Pinski           : DLPNO-MP2, DLPNO-MP2 Gradient                 
  Shashank Vittal Rao    : ES-AILFT, MagRelax                            
  Christoph Reimann      : Effective Core Potentials                     
  Marius Retegan         : Local ZFS, SOC                                
  Christoph Riplinger    : Optimizer, TS searches, QM/MM, DLPNO-CCSD(T), (RO)-DLPNO pert. Triples 
  Michael Roemelt        : Original ROCIS implementation, recursive CI coupling coefficients
  Masaaki Saitow         : Open-shell DLPNO-CCSD energy and density      
  Barbara Sandhoefer     : DKH picture change effects                    
  Yorick L. A. Schmerwitz: GMF and freeze-and-release deltaSCF, NEB S-IDPP initial path                    
  Kantharuban Sivalingam : CASSCF convergence/infrastructure, NEVPT2, NEVPT3, NEVPT4(SD), FIC-MRCI and CEPA variants
  Bernardo de Souza      : ESD, SOC TD-DFT                               
  Georgi L. Stoychev     : AutoAux, RI-MP2 NMR, DLPNO-MP2 response, X2C  
  Van Anh Tran           : RI-MP2 g-tensors                              
  Willem Van den Heuvel  : Paramagnetic NMR                              
  Zikuan Wang            : NOTCH, Electric field optimization            
  Frank Wennmohs         : Technical directorship and infrastructure     
  Hang Xu                : AUTO-CI-Response properties                   
                                                                         
[FACCTs GmbH]                                                            
  Markus Bursch, Nicolas Foglia, Miquel Garcia-Rates, Ingolf Harden, Hagen Neugebauer, Anastasios Papadopoulos, 
  Christoph Riplinger, Bernardo de Souza, Georgi L. Stoychev                                                    
                                                                 
  APM, various basis sets, CI-OPT, improved COSX, DLPNO-Multilevel,           
  DOCKER, DRACO, updates on ESD, Fragmentator, GOAT, IRC, LR-CPCM, L-BFGS, MBIS, meta-GGA TD-DFT gradient, ML-optimized integration grids, 
  MM, NACMEs, nearIR, NEB, NEB-TS, NL-DFT gradient (VV10), 2- and 3-layer-ONIOM, interface openCOSMO-RS, QMMM,   
  Crystal-QMMM, RESP, rigid body optimization, SF, symmetry and pop. for TD-DFT, various functionals, SOLVATOR                                   
                                                                         
[Other institutions]                                                     
  V. Asgeirsson          : NEB                                           
  Christoph Bannwarth    : sTDA-DFT, sTD-DFT, PBEh-3c, B97-3c, D3        
  Giovanni Bistoni       : ETS/NOCV, ADLD/ADEX, COVALED                  
  Martin Brehm           : Molecular dynamics                            
  Ronald Cardenas        : ETS/NOCV                                      
  Martina Colucci        : COVALED                                       
  Sebastian Ehlert       : rSCAN, r2SCAN, r2SCAN-3c, D4, dhf basis sets  
  Marvin Friede          : D4 for Fr, Ra, Ac-Lr                          
  Lars Goerigk           : TD-DFT with DH, B97 family of functionals     
  Stefan Grimme          : VdW corrections, initial TS optimization, DFT functionals, gCP, sTDA/sTD-DF 
  Waldemar Hujo          : DFT-NL                                        
  H. Jonsson             : NEB                                           
  Holger Kruse           : gCP                                           
  Marcel Mueller         : wB97X-3c, vDZP basis set                      
  Hagen Neugebauer       : wr2SCAN, Native XTB                           
  Gianluca Regni         : ADLD/ADEX                                     
  Tobias Risthaus        : pre 6.0 range-separated hybrid DFT and stability analysis
  Lukas Wittmann         : regularized MP2, r2SCAN double-hybrids, wr2SCAN        
                                                                         
We gratefully acknowledge several colleagues who have allowed us to      
interface, adapt or use parts of their codes:                            
  Ed Valeev, F. Pavosevic, A. Kumar             : LibInt (2-el integral package), F12 methods 
  Garnet Chan, S. Sharma, J. Yang, R. Olivares  : DMRG                   
  Ulf Ekstrom                                   : XCFun DFT Library      
  Mihaly Kallay                                 : mrcc  (arbitrary order and MRCC methods)
  Frank Weinhold                                : gennbo (NPA and NBO analysis)           
  Simon Mueller                                 : openCOSMO-RS                            
  Christopher J. Cramer and Donald G. Truhlar   : smd solvation model                     
  S Lehtola, MJT Oliveira, MAL Marques          : LibXC Library                           
  Liviu Ungur et al                             : ANISO software                          


 Your calculation uses the libint2 library for the computation of 2-el integrals
 For citations please refer to: http://libint.valeyev.net

 Your ORCA version has been built with support for libXC version: 7.0.0
 For citations please refer to: https://libxc.gitlab.io

 This ORCA versions uses:
   CBLAS   interface :  Fast vector & matrix operations
   LAPACKE interface :  Fast linear algebra routines
   SCALAPACK package :  Parallel linear algebra routines
   Shared memory     :  Shared parallel matrices
   BLAS/LAPACK       :  OpenBLAS 0.3.29  USE64BITINT DYNAMIC_ARCH NO_AFFINITY Cooperlake SINGLE_THREADED
        Core in use  :  Cooperlake
   Copyright (c) 2011-2014, The OpenBLAS Project


  ***********************************
  * Starting time: Wed Mar  4 01:28:56 2026
  * Host name:     c03b01n01
  * Process ID:    94585
  * Working dir.:  /lustre1/jiangy/jiangy_liuxy/NMR/B9D7C2-RSSR
  ***********************************

NOTE: MaxCore=6000 MB was set to SCF,MP2,MDCI,CIPSI,MRCI,RASCI and CIS
      => If you want to overwrite this, your respective input block should be placed after the MaxCore statement


***************************************
The coordinates will be read from file: conf-2.xyz
***************************************


Your calculation utilizes the atom-pairwise dispersion correction
based on EEQ partial charges (D4)


Warning: RI is on but no J-basis has been assigned. Assigning Def2/J (nothing to worry about!)
================================================================================

----- Orbital basis set information -----
Your calculation utilizes the basis: def2-TZVP
   F. Weigend and R. Ahlrichs, Phys. Chem. Chem. Phys. 7, 3297 (2005).

----- AuxJ basis set information -----
Your calculation utilizes the auxiliary basis: def2/J
   H-Rn: F. Weigend, Phys. Chem. Chem. Phys. 8, 1057 (2006).
   Fr-Lr: K. Eichkorn, F. Weigend, O. Treutler, R. Ahlrichs; Theor. Chem. Acc. 97, 119 (1997).

================================================================================
                                        WARNINGS
                       Please study these warnings very carefully!
================================================================================


WARNING: Geometry Optimization
  ===> : Switching off AutoStart
         For restart on a previous wavefunction, please use MOREAD

================================================================================
                                       INPUT FILE
================================================================================
NAME = opt-conf-2.inp
|  1> ! B3LYP OPT FREQ DEF2-TZVP D4 CPCM(Methanol) 
|  2> ! TightOpt
|  3> %pal nprocs 64 end
|  4> %maxcore 6000
|  5> 
|  6> %cpcm
|  7> end
|  8> 
|  9> %freq
| 10>    Temp 298.15
| 11> end
| 12> 
| 13> * xyzfile 0 1 conf-2.xyz
| 14> 
| 15> 
| 16>                          ****END OF INPUT****
================================================================================

                       *****************************
                       * Geometry Optimization Run *
                       *****************************

Geometry optimization settings:
Update method            Update   .... BFGS
Choice of coordinates    CoordSys .... (2022) Redundant Internals
Initial Hessian          InHess   .... Almloef's Model
Max. no of cycles        MaxIter  .... 246

Convergence Tolerances:
Energy Change            TolE     ....  1.0000e-06 Eh
Max. Gradient            TolMAXG  ....  1.0000e-04 Eh/bohr
RMS Gradient             TolRMSG  ....  3.0000e-05 Eh/bohr
Max. Displacement        TolMAXD  ....  1.0000e-03 bohr
RMS Displacement         TolRMSD  ....  6.0000e-04 bohr
Strict Convergence                .... False

------------------------------------------------------------------------------
                        ORCA OPTIMIZATION COORDINATE SETUP
------------------------------------------------------------------------------

The optimization will be done in redundant internal coordinates (2022)
Making redundant internal coordinates   ...  (2022 redundants) done
Evaluating the initial hessian          ...  (Almloef) done
Evaluating the coordinates              ...  done
Calculating the B-matrix                .... done
Calculating the G-matrix                .... done
The number of degrees of freedom        ....  405

    -----------------------------------------------------------------
                    Redundant Internal Coordinates


    -----------------------------------------------------------------
         Definition                    Initial Value    Approx d2E/dq
    -----------------------------------------------------------------
      1. B(C   1,C   0)                  1.4047         0.591929   
      2. B(C   2,C   1)                  1.4019         0.598173   
      3. B(C   3,C   2)                  1.3905         0.623603   
      4. B(C   4,C   3)                  1.3837         0.639378   
      5. B(C   5,C   4)                  1.3867         0.632401   
      6. B(C   5,C   0)                  1.3861         0.633887   
      7. B(C   6,C   4)                  1.5027         0.412915   
      8. B(C   7,C   6)                  1.5363         0.365000   
      9. B(C   8,C   7)                  1.5375         0.363383   
     10. B(C   9,C   8)                  1.5366         0.364616   
     11. B(C  10,C   9)                  1.5029         0.412740   
     12. B(C  11,C  10)                  1.3934         0.617009   
     13. B(C  12,C  11)                  1.3819         0.643745   
     14. B(C  13,C  12)                  1.4051         0.591045   
     15. B(C  14,C  13)                  1.3823         0.642616   
     16. B(C  15,C  10)                  1.3859         0.634214   
     17. B(C  15,C  14)                  1.3860         0.634036   
     18. B(C  16,C   7)                  1.5357         0.365824   
     19. B(C  17,C   8)                  1.5344         0.367532   
     20. B(O  18,C   2)                  1.3696         0.603042   
     21. B(O  19,C   0)                  1.3621         0.620021   
     22. B(O  20,C   1)                  1.3752         0.590902   
     23. B(O  21,C  13)                  1.3622         0.619807   
     24. B(O  22,C  12)                  1.3794         0.581793   
     25. B(C  23,O  20)                  1.4152         0.510143   
     26. B(C  24,C  23)                  1.5538         0.342275   
     27. B(C  25,C  24)                  1.5085         0.404247   
     28. B(C  26,C  23)                  1.5379         0.362842   
     29. B(O  27,C  26)                  1.4008         0.537833   
     30. B(C  28,C  25)                  1.3900         0.624804   
     31. B(C  29,C  28)                  1.3823         0.642655   
     32. B(C  30,C  29)                  1.4032         0.595307   
     33. B(C  31,C  30)                  1.3818         0.643826   
     34. B(C  32,C  31)                  1.3843         0.638127   
     35. B(C  32,C  25)                  1.3865         0.632788   
     36. B(C  33,O  19)                  1.4073         0.525198   
     37. B(C  34,O  18)                  1.4069         0.526007   
     38. B(C  35,O  22)                  1.4073         0.525111   
     39. B(O  36,C  24)                  1.4181         0.504710   
     40. B(O  37,C  16)                  1.4052         0.529138   
     41. B(O  38,C  17)                  1.4087         0.522460   
     42. B(O  39,C  29)                  1.3719         0.597978   
     43. B(O  40,C  30)                  1.3671         0.608726   
     44. B(C  41,O  39)                  1.4098         0.520356   
     45. B(H  42,C   3)                  1.0779         0.376457   
     46. B(H  43,C   5)                  1.0777         0.376782   
     47. B(H  44,C   6)                  1.0904         0.359534   
     48. B(H  45,C   6)                  1.0905         0.359442   
     49. B(H  46,C   7)                  1.0964         0.351727   
     50. B(H  47,C   8)                  1.0970         0.350975   
     51. B(H  48,C   9)                  1.0938         0.355043   
     52. B(H  49,C   9)                  1.0915         0.358090   
     53. B(H  50,C  11)                  1.0773         0.377307   
     54. B(H  51,C  14)                  1.0785         0.375647   
     55. B(H  52,C  15)                  1.0802         0.373296   
     56. B(H  53,C  16)                  1.0933         0.355821   
     57. B(H  54,C  16)                  1.0986         0.348960   
     58. B(H  55,C  17)                  1.0919         0.357652   
     59. B(H  56,C  17)                  1.0986         0.348920   
     60. B(H  57,O  21)                  0.9671         0.506632   
     61. B(H  57,O  22)                  2.1129         0.010000   
     62. B(H  58,C  23)                  1.0956         0.352820   
     63. B(H  59,C  24)                  1.0950         0.353572   
     64. B(H  60,C  26)                  1.0996         0.347677   
     65. B(H  61,C  26)                  1.0923         0.357115   
     66. B(H  62,O  36)                  2.0002         0.011387   
     67. B(H  62,O  27)                  0.9700         0.501278   
     68. B(H  63,C  28)                  1.0774         0.377203   
     69. B(H  64,C  31)                  1.0780         0.376328   
     70. B(H  65,C  32)                  1.0806         0.372791   
     71. B(H  66,C  33)                  1.0895         0.360753   
     72. B(H  67,C  33)                  1.0946         0.354030   
     73. B(H  68,C  33)                  1.0953         0.353115   
     74. B(H  69,C  34)                  1.0891         0.361249   
     75. B(H  70,H  64)                  4.4095         0.010000   
     76. B(H  70,C  34)                  1.0952         0.353290   
     77. B(H  71,C  34)                  1.0939         0.354925   
     78. B(H  72,C  35)                  1.0941         0.354775   
     79. B(H  73,H  64)                  4.9975         0.010000   
     80. B(H  73,C  35)                  1.0941         0.354715   
     81. B(H  74,C  35)                  1.0888         0.361688   
     82. B(H  75,O  36)                  0.9647         0.511144   
     83. B(H  76,O  40)                  1.9524         0.013572   
     84. B(H  76,O  37)                  0.9702         0.500752   
     85. B(H  77,O  38)                  0.9640         0.512355   
     86. B(H  78,O  39)                  2.0991         0.010000   
     87. B(H  78,O  40)                  0.9693         0.502519   
     88. B(H  79,C  41)                  1.0942         0.354625   
     89. B(H  80,H  68)                  2.4914         0.010000   
     90. B(H  80,C  41)                  1.0925         0.356851   
     91. B(H  81,O  21)                  2.3713         0.010000   
     92. B(H  81,C  41)                  1.0887         0.361817   
     93. A(C   1,C   0,O  19)          115.7215         0.427659   
     94. A(C   5,C   0,O  19)          124.1003         0.432949   
     95. A(C   1,C   0,C   5)          120.1782         0.432183   
     96. A(C   0,C   1,O  20)          116.8805         0.423992   
     97. A(C   0,C   1,C   2)          118.9476         0.427708   
     98. A(C   2,C   1,O  20)          123.9587         0.424789   
     99. A(C   3,C   2,O  18)          123.3182         0.429532   
    100. A(C   1,C   2,C   3)          119.8089         0.431727   
    101. A(C   1,C   2,O  18)          116.8727         0.426338   
    102. A(C   4,C   3,H  42)          118.8201         0.357439   
    103. A(C   2,C   3,H  42)          120.2193         0.355926   
    104. A(C   2,C   3,C   4)          120.9537         0.436934   
    105. A(C   5,C   4,C   6)          119.1444         0.405150   
    106. A(C   3,C   4,C   6)          121.4083         0.405936   
    107. A(C   3,C   4,C   5)          119.4284         0.438039   
    108. A(C   4,C   5,H  43)          118.7054         0.356826   
    109. A(C   0,C   5,H  43)          120.6339         0.356968   
    110. A(C   0,C   5,C   4)          120.6569         0.437358   
    111. A(C   4,C   6,H  44)          110.4390         0.329627   
    112. A(C   7,C   6,H  45)          108.9762         0.322988   
    113. A(C   4,C   6,C   7)          110.3130         0.368169   
    114. A(H  44,C   6,H  45)          108.3069         0.290684   
    115. A(C   4,C   6,H  45)          108.8624         0.329613   
    116. A(C   7,C   6,H  44)          109.8962         0.323002   
    117. A(C   6,C   7,C  16)          110.7164         0.360621   
    118. A(C   8,C   7,C  16)          110.4686         0.360348   
    119. A(C  16,C   7,H  46)          106.5786         0.321961   
    120. A(C   8,C   7,H  46)          106.7448         0.321608   
    121. A(C   6,C   7,H  46)          107.6533         0.321842   
    122. A(C   6,C   7,C   8)          114.2702         0.360210   
    123. A(C   7,C   8,C  17)          113.5842         0.360635   
    124. A(C  17,C   8,H  47)          107.1197         0.322094   
    125. A(C   7,C   8,C   9)          111.9240         0.360145   
    126. A(C   9,C   8,H  47)          108.5535         0.321674   
    127. A(C   7,C   8,H  47)          105.9797         0.321496   
    128. A(C   9,C   8,C  17)          109.4026         0.360843   
    129. A(H  48,C   9,H  49)          107.1333         0.289940   
    130. A(C  10,C   9,H  48)          109.4127         0.328920   
    131. A(C  10,C   9,H  49)          109.1136         0.329385   
    132. A(C   8,C   9,C  10)          113.9543         0.368075   
    133. A(C   8,C   9,H  48)          107.7813         0.322282   
    134. A(C   8,C   9,H  49)          109.2226         0.322733   
    135. A(C   9,C  10,C  11)          120.4739         0.403362   
    136. A(C  11,C  10,C  15)          118.6906         0.435461   
    137. A(C   9,C  10,C  15)          120.8317         0.405325   
    138. A(C  10,C  11,C  12)          120.7612         0.436633   
    139. A(C  10,C  11,H  50)          119.2594         0.355420   
    140. A(C  12,C  11,H  50)          119.9794         0.357990   
    141. A(C  11,C  12,C  13)          119.9660         0.433267   
    142. A(C  13,C  12,O  22)          114.5433         0.422703   
    143. A(C  11,C  12,O  22)          125.4908         0.429217   
    144. A(C  12,C  13,O  21)          120.2014         0.427518   
    145. A(C  12,C  13,C  14)          119.2785         0.433130   
    146. A(C  14,C  13,O  21)          120.5201         0.433989   
    147. A(C  13,C  14,H  51)          118.6615         0.357615   
    148. A(C  13,C  14,C  15)          120.1429         0.438643   
    149. A(C  15,C  14,H  51)          121.1926         0.356799   
    150. A(C  14,C  15,H  52)          119.1057         0.356419   
    151. A(C  10,C  15,H  52)          119.7553         0.356436   
    152. A(C  10,C  15,C  14)          121.1263         0.437603   
    153. A(O  37,C  16,H  54)          110.7802         0.339726   
    154. A(C   7,C  16,H  54)          108.6896         0.321545   
    155. A(O  37,C  16,H  53)          105.8413         0.340834   
    156. A(C   7,C  16,H  53)          110.8333         0.322572   
    157. A(C   7,C  16,O  37)          112.3292         0.382007   
    158. A(H  53,C  16,H  54)          108.2849         0.288867   
    159. A(O  38,C  17,H  56)          110.0619         0.339000   
    160. A(C   8,C  17,O  38)          112.2441         0.381474   
    161. A(H  55,C  17,H  56)          108.4128         0.289095   
    162. A(C   8,C  17,H  56)          110.0133         0.321784   
    163. A(O  38,C  17,H  55)          105.1303         0.340403   
    164. A(C   8,C  17,H  55)          110.8189         0.323090   
    165. A(C   2,O  18,C  34)          118.8163         0.413967   
    166. A(C   0,O  19,C  33)          117.7904         0.415902   
    167. A(C   1,O  20,C  23)          118.9581         0.410240   
    168. A(C  13,O  21,H  57)          107.5391         0.368450   
    169. A(C  12,O  22,C  35)          118.0138         0.411215   
    170. A(C  26,C  23,H  58)          108.3460         0.321693   
    171. A(C  24,C  23,H  58)          108.9573         0.318640   
    172. A(O  20,C  23,H  58)          111.3407         0.338280   
    173. A(C  24,C  23,C  26)          110.8080         0.356203   
    174. A(O  20,C  23,C  26)          106.6254         0.379055   
    175. A(O  20,C  23,C  24)          110.7296         0.375249   
    176. A(C  23,C  24,O  36)          110.6460         0.374556   
    177. A(O  36,C  24,H  59)          105.1736         0.337797   
    178. A(C  25,C  24,H  59)          109.5336         0.327569   
    179. A(C  23,C  24,H  59)          108.2813         0.318751   
    180. A(C  25,C  24,O  36)          112.1054         0.385517   
    181. A(C  23,C  24,C  25)          110.8755         0.362818   
    182. A(C  28,C  25,C  32)          119.5014         0.436270   
    183. A(C  24,C  25,C  32)          120.8187         0.403679   
    184. A(C  24,C  25,C  28)          119.6799         0.402776   
    185. A(O  27,C  26,H  61)          106.8350         0.341972   
    186. A(H  60,C  26,H  61)          108.4352         0.288865   
    187. A(C  23,C  26,H  61)          108.6082         0.322331   
    188. A(O  27,C  26,H  60)          111.3187         0.340443   
    189. A(C  23,C  26,H  60)          108.6982         0.320921   
    190. A(C  23,C  26,O  27)          112.8151         0.382546   
    191. A(C  26,O  27,H  62)          107.4145         0.358969   
    192. A(C  29,C  28,H  63)          120.6164         0.357870   
    193. A(C  25,C  28,H  63)          118.9388         0.356162   
    194. A(C  25,C  28,C  29)          120.4354         0.437489   
    195. A(C  30,C  29,O  39)          114.6402         0.425329   
    196. A(C  28,C  29,O  39)          125.7613         0.431205   
    197. A(C  28,C  29,C  30)          119.5981         0.433695   
    198. A(C  31,C  30,O  40)          120.3858         0.432729   
    199. A(C  29,C  30,O  40)          119.7264         0.426687   
    200. A(C  29,C  30,C  31)          119.8842         0.433837   
    201. A(C  32,C  31,H  64)          120.8755         0.357299   
    202. A(C  30,C  31,H  64)          119.1198         0.357840   
    203. A(C  30,C  31,C  32)          120.0027         0.439301   
    204. A(C  31,C  32,H  65)          118.8059         0.356727   
    205. A(C  25,C  32,H  65)          120.6585         0.356218   
    206. A(C  25,C  32,C  31)          120.5314         0.437933   
    207. A(H  67,C  33,H  68)          109.1176         0.289175   
    208. A(H  66,C  33,H  68)          109.6568         0.290029   
    209. A(O  19,C  33,H  68)          111.8726         0.339974   
    210. A(H  66,C  33,H  67)          108.9892         0.290147   
    211. A(O  19,C  33,H  67)          111.4454         0.340121   
    212. A(O  19,C  33,H  66)          105.6719         0.341192   
    213. A(H  69,C  34,H  71)          109.3010         0.290324   
    214. A(O  18,C  34,H  71)          111.5571         0.340352   
    215. A(H  69,C  34,H  70)          109.2954         0.290114   
    216. A(O  18,C  34,H  70)          111.6941         0.340089   
    217. A(O  18,C  34,H  69)          105.3830         0.341359   
    218. A(H  70,C  34,H  71)          109.4995         0.289312   
    219. A(H  73,C  35,H  74)          109.4922         0.290353   
    220. A(H  72,C  35,H  74)          109.2723         0.290360   
    221. A(O  22,C  35,H  74)          105.6264         0.341331   
    222. A(H  72,C  35,H  73)          109.6740         0.289475   
    223. A(O  22,C  35,H  73)          111.3413         0.340221   
    224. A(O  22,C  35,H  72)          111.3358         0.340231   
    225. A(C  24,O  36,H  75)          108.4363         0.356290   
    226. A(C  16,O  37,H  76)          107.7570         0.357912   
    227. A(C  17,O  38,H  77)          108.4139         0.358533   
    228. A(C  29,O  39,C  41)          118.2488         0.412555   
    229. A(C  30,O  40,H  78)          107.5270         0.366798   
    230. A(H  80,C  41,H  81)          109.5443         0.290643   
    231. A(H  79,C  41,H  81)          109.9904         0.290357   
    232. A(O  39,C  41,H  81)          105.2485         0.340832   
    233. A(H  79,C  41,H  80)          109.4563         0.289729   
    234. A(O  39,C  41,H  80)          111.5586         0.340045   
    235. A(O  39,C  41,H  79)          110.9656         0.339690   
    236. D(O  20,C   1,C   0,O  19)     -3.6386         0.024120   
    237. D(C   2,C   1,C   0,O  19)   -178.5446         0.024120   
    238. D(C   2,C   1,C   0,C   5)      1.4957         0.024120   
    239. D(O  20,C   1,C   0,C   5)    176.4017         0.024120   
    240. D(O  18,C   2,C   1,C   0)    178.2230         0.024659   
    241. D(C   3,C   2,C   1,C   0)     -1.9461         0.024659   
    242. D(C   3,C   2,C   1,O  20)   -176.4670         0.024659   
    243. D(O  18,C   2,C   1,O  20)      3.7020         0.024659   
    244. D(C   4,C   3,C   2,C   1)      1.1403         0.026929   
    245. D(H  42,C   3,C   2,O  18)     -0.0097         0.026929   
    246. D(C   4,C   3,C   2,O  18)   -179.0402         0.026929   
    247. D(H  42,C   3,C   2,C   1)   -179.8293         0.026929   
    248. D(C   6,C   4,C   3,H  42)      2.7046         0.028400   
    249. D(C   5,C   4,C   3,H  42)   -178.8885         0.028400   
    250. D(C   5,C   4,C   3,C   2)      0.1553         0.028400   
    251. D(C   6,C   4,C   3,C   2)   -178.2517         0.028400   
    252. D(H  43,C   5,C   4,C   6)     -1.4720         0.027743   
    253. D(H  43,C   5,C   4,C   3)   -179.9153         0.027743   
    254. D(C   0,C   5,C   4,C   3)     -0.6197         0.027743   
    255. D(C   4,C   5,C   0,O  19)    179.8271         0.027882   
    256. D(H  43,C   5,C   0,C   1)    179.0653         0.027882   
    257. D(H  43,C   5,C   0,O  19)     -0.8909         0.027882   
    258. D(C   0,C   5,C   4,C   6)    177.8236         0.027743   
    259. D(C   4,C   5,C   0,C   1)     -0.2167         0.027882   
    260. D(H  45,C   6,C   4,C   3)   -136.3126         0.012621   
    261. D(H  44,C   6,C   4,C   5)    164.0630         0.012621   
    262. D(H  44,C   6,C   4,C   3)    -17.5256         0.012621   
    263. D(C   7,C   6,C   4,C   5)    -74.2541         0.012621   
    264. D(C   7,C   6,C   4,C   3)    104.1573         0.012621   
    265. D(C   8,C   7,C   6,H  44)    -79.0181         0.010668   
    266. D(C   8,C   7,C   6,C   4)    158.9781         0.010668   
    267. D(C  16,C   7,C   6,H  45)    165.0124         0.010668   
    268. D(C  16,C   7,C   6,H  44)     46.4775         0.010668   
    269. D(C   8,C   7,C   6,H  45)     39.5168         0.010668   
    270. D(C  16,C   7,C   6,C   4)    -75.5263         0.010668   
    271. D(C  17,C   8,C   7,H  46)    165.3260         0.010580   
    272. D(C  17,C   8,C   7,C  16)    -79.1844         0.010580   
    273. D(C  17,C   8,C   7,C   6)     46.4414         0.010580   
    274. D(C   9,C   8,C   7,C  16)    156.3127         0.010580   
    275. D(C   9,C   8,C   7,H  46)     40.8231         0.010580   
    276. D(C   9,C   8,C   7,C   6)    -78.0614         0.010580   
    277. D(H  48,C   9,C   8,C  17)     55.7286         0.010647   
    278. D(H  48,C   9,C   8,C   7)   -177.4722         0.010647   
    279. D(C  10,C   9,C   8,H  47)     60.7798         0.010647   
    280. D(C  10,C   9,C   8,C  17)    177.3578         0.010647   
    281. D(H  48,C   9,C   8,H  47)    -60.8494         0.010647   
    282. D(C  10,C   9,C   8,C   7)    -55.8430         0.010647   
    283. D(C  15,C  10,C   9,H  48)   -111.7520         0.012611   
    284. D(C  15,C  10,C   9,C   8)    127.5260         0.012611   
    285. D(C  11,C  10,C   9,H  49)   -175.5513         0.012611   
    286. D(C  11,C  10,C   9,H  48)     67.5315         0.012611   
    287. D(C  11,C  10,C   9,C   8)    -53.1904         0.012611   
    288. D(H  50,C  11,C  10,C  15)    179.9892         0.026328   
    289. D(H  50,C  11,C  10,C   9)      0.6905         0.026328   
    290. D(C  12,C  11,C  10,C  15)     -0.0509         0.026328   
    291. D(C  12,C  11,C  10,C   9)   -179.3495         0.026328   
    292. D(O  22,C  12,C  11,H  50)      1.5757         0.028815   
    293. D(C  13,C  12,C  11,H  50)   -178.3949         0.028815   
    294. D(O  22,C  12,C  11,C  10)   -178.3839         0.028815   
    295. D(C  13,C  12,C  11,C  10)      1.6454         0.028815   
    296. D(O  21,C  13,C  12,C  11)    177.9637         0.024045   
    297. D(C  14,C  13,C  12,O  22)    178.0747         0.024045   
    298. D(C  14,C  13,C  12,C  11)     -1.9516         0.024045   
    299. D(O  21,C  13,C  12,O  22)     -2.0100         0.024045   
    300. D(H  51,C  14,C  13,O  21)      0.1380         0.028707   
    301. D(H  51,C  14,C  13,C  12)   -179.9470         0.028707   
    302. D(C  15,C  14,C  13,O  21)   -179.2396         0.028707   
    303. D(C  15,C  14,C  13,C  12)      0.6754         0.028707   
    304. D(H  52,C  15,C  14,H  51)      0.2769         0.027896   
    305. D(H  52,C  15,C  14,C  13)    179.6384         0.027896   
    306. D(C  10,C  15,C  14,H  51)   -178.4276         0.027896   
    307. D(C  10,C  15,C  14,C  13)      0.9339         0.027896   
    308. D(H  52,C  15,C  10,C  11)   -179.9454         0.027913   
    309. D(H  52,C  15,C  10,C   9)     -0.6493         0.027913   
    310. D(C  14,C  15,C  10,C  11)     -1.2492         0.027913   
    311. D(C  14,C  15,C  10,C   9)    178.0469         0.027913   
    312. D(H  53,C  16,C   7,H  46)    171.5458         0.010713   
    313. D(H  53,C  16,C   7,C   8)     55.9521         0.010713   
    314. D(H  53,C  16,C   7,C   6)    -71.6544         0.010713   
    315. D(O  37,C  16,C   7,H  46)     53.3791         0.010713   
    316. D(O  37,C  16,C   7,C   8)    -62.2146         0.010713   
    317. D(O  37,C  16,C   7,C   6)    170.1789         0.010713   
    318. D(H  55,C  17,C   8,H  47)    169.2577         0.010807   
    319. D(H  55,C  17,C   8,C   9)     51.7754         0.010807   
    320. D(H  55,C  17,C   8,C   7)    -74.0768         0.010807   
    321. D(O  38,C  17,C   8,H  47)     52.0502         0.010807   
    322. D(O  38,C  17,C   8,C   9)    -65.4321         0.010807   
    323. D(O  38,C  17,C   8,C   7)    168.7157         0.010807   
    324. D(C  34,O  18,C   2,C   3)      4.8439         0.026578   
    325. D(C  34,O  18,C   2,C   1)   -175.3316         0.026578   
    326. D(C  33,O  19,C   0,C   5)     -7.9181         0.028205   
    327. D(C  33,O  19,C   0,C   1)    172.1240         0.028205   
    328. D(C  23,O  20,C   1,C   2)    -54.0881         0.025452   
    329. D(C  23,O  20,C   1,C   0)    131.2869         0.025452   
    330. D(H  57,O  21,C  13,C  14)    178.9851         0.031106   
    331. D(H  57,O  21,C  13,C  12)     -0.9291         0.031106   
    332. D(C  35,O  22,C  12,C  13)   -177.6995         0.027159   
    333. D(C  35,O  22,C  12,C  11)      2.3285         0.027159   
    334. D(H  58,C  23,O  20,C   1)     37.2579         0.020602   
    335. D(C  26,C  23,O  20,C   1)    155.2487         0.020602   
    336. D(C  24,C  23,O  20,C   1)    -84.1271         0.020602   
    337. D(O  36,C  24,C  23,H  58)     56.5854         0.010000   
    338. D(O  36,C  24,C  23,C  26)    -62.5295         0.010000   
    339. D(O  36,C  24,C  23,O  20)    179.3655         0.010000   
    340. D(C  25,C  24,C  23,H  58)    -68.4505         0.010000   
    341. D(C  25,C  24,C  23,C  26)    172.4346         0.010000   
    342. D(C  25,C  24,C  23,O  20)     54.3296         0.010000   
    343. D(C  32,C  25,C  24,O  36)    -61.6070         0.012117   
    344. D(C  32,C  25,C  24,C  23)     62.6015         0.012117   
    345. D(C  28,C  25,C  24,H  59)      2.0872         0.012117   
    346. D(C  28,C  25,C  24,O  36)    118.4378         0.012117   
    347. D(C  28,C  25,C  24,C  23)   -117.3537         0.012117   
    348. D(H  60,C  26,C  23,H  58)   -176.0130         0.010551   
    349. D(H  60,C  26,C  23,C  24)    -56.5304         0.010551   
    350. D(H  60,C  26,C  23,O  20)     64.0435         0.010551   
    351. D(O  27,C  26,C  23,H  58)    -52.0426         0.010551   
    352. D(O  27,C  26,C  23,C  24)     67.4400         0.010551   
    353. D(O  27,C  26,C  23,O  20)   -171.9860         0.010551   
    354. D(H  62,O  27,C  26,H  61)   -172.0444         0.023003   
    355. D(H  62,O  27,C  26,H  60)     69.7428         0.023003   
    356. D(H  62,O  27,C  26,C  23)    -52.7716         0.023003   
    357. D(H  63,C  28,C  25,C  32)    179.0043         0.027039   
    358. D(H  63,C  28,C  25,C  24)     -1.0398         0.027039   
    359. D(C  29,C  28,C  25,C  32)     -2.1020         0.027039   
    360. D(C  29,C  28,C  25,C  24)    177.8538         0.027039   
    361. D(C  30,C  29,C  28,H  63)    179.4431         0.028711   
    362. D(C  30,C  29,C  28,C  25)      0.5682         0.028711   
    363. D(O  39,C  29,C  28,H  63)     -0.7973         0.028711   
    364. D(O  39,C  29,C  28,C  25)   -179.6723         0.028711   
    365. D(O  40,C  30,C  29,O  39)      0.8542         0.024411   
    366. D(O  40,C  30,C  29,C  28)   -179.3605         0.024411   
    367. D(C  31,C  30,C  29,O  39)   -178.4513         0.024411   
    368. D(C  31,C  30,C  29,C  28)      1.3341         0.024411   
    369. D(H  64,C  31,C  30,O  40)     -1.4990         0.028823   
    370. D(H  64,C  31,C  30,C  29)    177.8018         0.028823   
    371. D(C  32,C  31,C  30,O  40)    179.0120         0.028823   
    372. D(C  32,C  31,C  30,C  29)     -1.6872         0.028823   
    373. D(H  65,C  32,C  31,H  64)      1.4027         0.028281   
    374. D(H  65,C  32,C  31,C  30)   -179.1174         0.028281   
    375. D(C  25,C  32,C  31,H  64)   -179.3389         0.028281   
    376. D(C  25,C  32,C  31,C  30)      0.1410         0.028281   
    377. D(H  65,C  32,C  25,C  28)   -179.0027         0.027779   
    378. D(H  65,C  32,C  25,C  24)      1.0420         0.027779   
    379. D(C  31,C  32,C  25,C  28)      1.7527         0.027779   
    380. D(C  31,C  32,C  25,C  24)   -178.2026         0.027779   
    381. D(H  68,C  33,O  19,C   0)     65.2333         0.021887   
    382. D(H  67,C  33,O  19,C   0)    -57.2364         0.021887   
    383. D(H  66,C  33,O  19,C   0)   -175.4851         0.021887   
    384. D(H  71,C  34,O  18,C   2)     58.1610         0.021957   
    385. D(H  70,C  34,O  18,C   2)    -64.7564         0.021957   
    386. D(H  69,C  34,O  18,C   2)    176.6694         0.021957   
    387. D(H  74,C  35,O  22,C  12)    177.6727         0.023751   
    388. D(H  73,C  35,O  22,C  12)     58.9039         0.023751   
    389. D(H  72,C  35,O  22,C  12)    -63.8249         0.023751   
    390. D(H  75,O  36,C  24,H  59)    170.6758         0.021864   
    391. D(H  75,O  36,C  24,C  25)     51.7240         0.021864   
    392. D(H  75,O  36,C  24,C  23)    -72.6122         0.021864   
    393. D(H  76,O  37,C  16,H  54)     60.1046         0.022231   
    394. D(H  76,O  37,C  16,H  53)    177.2656         0.022231   
    395. D(H  76,O  37,C  16,C   7)    -61.6565         0.022231   
    396. D(H  77,O  38,C  17,H  56)     62.9999         0.021650   
    397. D(H  77,O  38,C  17,H  55)    179.5566         0.021650   
    398. D(H  77,O  38,C  17,C   8)    -59.8882         0.021650   
    399. D(C  41,O  39,C  29,C  30)    171.1663         0.028799   
    400. D(C  41,O  39,C  29,C  28)     -8.6036         0.028799   
    401. D(H  78,O  40,C  30,C  31)    178.4452         0.029921   
    402. D(H  78,O  40,C  30,C  29)     -0.8568         0.029921   
    403. D(H  81,C  41,O  39,C  29)   -179.6050         0.023302   
    404. D(H  80,C  41,O  39,C  29)     61.6751         0.023302   
    405. D(H  79,C  41,O  39,C  29)    -60.6637         0.023302   
    -----------------------------------------------------------------

Number of atoms                         .... 82
Number of degrees of freedom            .... 405


         *************************************************************
         *                GEOMETRY OPTIMIZATION CYCLE   1            *
         *************************************************************
---------------------------------
CARTESIAN COORDINATES (ANGSTROEM)
---------------------------------
  C     21.464697  -32.035377   -1.602089
  C     21.043013  -32.287054   -2.918164
  C     19.673329  -32.440861   -3.174097
  C     18.763237  -32.383280   -2.124352
  C     19.186463  -32.152318   -0.827349
  C     20.537843  -31.972778   -0.573397
  C     18.216428  -32.126565    0.320088
  C     18.319662  -33.424862    1.134981
  C     17.779856  -33.314672    2.570413
  C     18.775155  -32.609804    3.505135
  C     20.134497  -33.249590    3.543232
  C     20.268138  -34.609305    3.816947
  C     21.515955  -35.200949    3.866625
  C     22.669869  -34.422684    3.673911
  C     22.537719  -33.075125    3.395522
  C     21.278921  -32.499736    3.322304
  C     17.641768  -34.586683    0.394015
  C     16.415028  -32.619349    2.661370
  O     19.306426  -32.647447   -4.477415
  O     22.805677  -31.866572   -1.433080
  O     22.008930  -32.259235   -3.896611
  O     23.903742  -34.992924    3.762917
  O     21.759212  -36.539043    4.097069
  C     22.077073  -33.327144   -4.822721
  C     22.897075  -34.510513   -4.238264
  C     22.344902  -34.938646   -2.901312
  C     22.748973  -32.769474   -6.088738
  O     22.722453  -33.671617   -7.160033
  C     23.136131  -34.831236   -1.763546
  C     22.631109  -35.177331   -0.524190
  C     21.314433  -35.651010   -0.420008
  C     20.542312  -35.794340   -1.556998
  C     21.055992  -35.437903   -2.792005
  C     23.259905  -31.446024   -0.169267
  C     17.937224  -32.707873   -4.795002
  C     20.652839  -37.395079    4.250935
  O     22.951950  -35.585194   -5.161876
  O     17.903715  -35.829138    0.995989
  O     15.830792  -32.756042    3.935889
  O     23.310099  -35.108562    0.665965
  O     20.807972  -35.981629    0.806016
  C     24.690858  -34.826075    0.631085
  H     17.708834  -32.503429   -2.313252
  H     20.854712  -31.795030    0.441186
  H     17.197250  -31.998071   -0.045700
  H     18.457366  -31.282036    0.966545
  H     19.382167  -33.682970    1.216006
  H     17.641407  -34.344897    2.920909
  H     18.345478  -32.608823    4.511059
  H     18.879255  -31.567298    3.198919
  H     19.384623  -35.200838    3.990303
  H     23.429950  -32.487356    3.248545
  H     21.195335  -31.443999    3.109535
  H     16.554481  -34.473134    0.404857
  H     17.978433  -34.581528   -0.651668
  H     16.516879  -31.543055    2.508499
  H     15.738678  -33.016611    1.892201
  H     23.778110  -35.927370    3.977964
  H     21.077492  -33.685566   -5.092205
  H     23.934915  -34.182858   -4.117801
  H     23.778543  -32.473970   -5.840368
  H     22.202449  -31.880175   -6.410456
  H     23.092651  -34.510104   -6.842680
  H     24.141793  -34.457327   -1.861323
  H     19.544778  -36.192954   -1.466894
  H     20.430355  -35.544454   -3.666568
  H     24.333852  -31.297487   -0.276968
  H     22.797401  -30.499357    0.127589
  H     23.067597  -32.197331    0.604237
  H     17.896328  -32.815708   -5.878012
  H     17.450714  -33.570184   -4.326830
  H     17.416040  -31.791482   -4.502941
  H     20.066694  -37.132712    5.136687
  H     20.010153  -37.378156    3.365651
  H     21.069535  -38.392886    4.378360
  H     22.084565  -36.006264   -5.191872
  H     18.861783  -35.978465    0.961639
  H     15.712246  -33.695363    4.117371
  H     21.507504  -35.833536    1.460415
  H     25.233491  -35.593686    0.071147
  H     24.889115  -33.846094    0.190840
  H     25.010125  -34.829099    1.671920

----------------------------
CARTESIAN COORDINATES (A.U.)
----------------------------
  NO LB      ZA    FRAG     MASS         X           Y           Z
   0 C     6.0000    0    12.011   40.562399  -60.538089   -3.027510
   1 C     6.0000    0    12.011   39.765532  -61.013690   -5.514530
   2 C     6.0000    0    12.011   37.177204  -61.304342   -5.998174
   3 C     6.0000    0    12.011   35.457379  -61.195531   -4.014444
   4 C     6.0000    0    12.011   36.257160  -60.759075   -1.563463
   5 C     6.0000    0    12.011   38.810899  -60.419794   -1.083563
   6 C     6.0000    0    12.011   34.424059  -60.710409    0.604879
   7 C     6.0000    0    12.011   34.619144  -63.163836    2.144802
   8 C     6.0000    0    12.011   33.599059  -62.955606    4.857376
   9 C     6.0000    0    12.011   35.479900  -61.623599    6.623745
  10 C     6.0000    0    12.011   38.048685  -62.832620    6.695737
  11 C     6.0000    0    12.011   38.301230  -65.402108    7.212985
  12 C     6.0000    0    12.011   40.659262  -66.520153    7.306863
  13 C     6.0000    0    12.011   42.839843  -65.049445    6.942685
  14 C     6.0000    0    12.011   42.590117  -62.502928    6.416607
  15 C     6.0000    0    12.011   40.211332  -61.415601    6.278245
  16 C     6.0000    0    12.011   33.338111  -65.359358    0.744580
  17 C     6.0000    0    12.011   31.019908  -61.641636    5.029261
  18 O     8.0000    0    15.999   36.483858  -61.694733   -8.461088
  19 O     8.0000    0    15.999   43.096483  -60.219094   -2.708128
  20 O     8.0000    0    15.999   41.590851  -60.961120   -7.363527
  21 O     8.0000    0    15.999   45.171527  -66.127043    7.110883
  22 O     8.0000    0    15.999   41.118952  -69.048785    7.742338
  23 C     6.0000    0    12.011   41.719622  -62.979175   -9.113622
  24 C     6.0000    0    12.011   43.269201  -65.215418   -8.009157
  25 C     6.0000    0    12.011   42.225745  -66.024472   -5.482684
  26 C     6.0000    0    12.011   42.989329  -61.925332  -11.506047
  27 O     8.0000    0    15.999   42.939214  -63.630134  -13.530501
  28 C     6.0000    0    12.011   43.720951  -65.821497   -3.332619
  29 C     6.0000    0    12.011   42.766597  -66.475522   -0.990576
  30 C     6.0000    0    12.011   40.278441  -67.370645   -0.793699
  31 C     6.0000    0    12.011   38.819344  -67.641499   -2.942300
  32 C     6.0000    0    12.011   39.790059  -66.967932   -5.276125
  33 C     6.0000    0    12.011   43.954851  -59.424373   -0.319868
  34 C     6.0000    0    12.011   33.896440  -61.808923   -9.061241
  35 C     6.0000    0    12.011   39.028209  -70.666458    8.033103
  36 O     8.0000    0    15.999   43.372900  -67.246270   -9.754532
  37 O     8.0000    0    15.999   33.833117  -67.707259    1.882146
  38 O     8.0000    0    15.999   29.915862  -61.899950    7.437752
  39 O     8.0000    0    15.999   44.049703  -66.345568    1.258491
  40 O     8.0000    0    15.999   39.321369  -67.995424    1.523149
  41 C     6.0000    0    12.011   46.658959  -65.811745    1.192577
  42 H     1.0000    0     1.008   33.464846  -61.422579   -4.371413
  43 H     1.0000    0     1.008   39.409695  -60.083899    0.833721
  44 H     1.0000    0     1.008   32.498094  -60.467591   -0.086361
  45 H     1.0000    0     1.008   34.879366  -59.114482    1.826506
  46 H     1.0000    0     1.008   36.626988  -63.651589    2.297919
  47 H     1.0000    0     1.008   33.337428  -64.902450    5.519719
  48 H     1.0000    0     1.008   34.667928  -61.621745    8.524667
  49 H     1.0000    0     1.008   35.676622  -59.653548    6.045081
  50 H     1.0000    0     1.008   36.631628  -66.519943    7.540580
  51 H     1.0000    0     1.008   44.276188  -61.392205    6.138860
  52 H     1.0000    0     1.008   40.053379  -59.420546    5.876170
  53 H     1.0000    0     1.008   31.283436  -65.144783    0.765069
  54 H     1.0000    0     1.008   33.974315  -65.349617   -1.231474
  55 H     1.0000    0     1.008   31.212378  -59.607736    4.740377
  56 H     1.0000    0     1.008   29.741792  -62.392353    3.575741
  57 H     1.0000    0     1.008   44.934115  -67.892890    7.517263
  58 H     1.0000    0     1.008   39.830687  -63.656495   -9.622872
  59 H     1.0000    0     1.008   45.230434  -64.596240   -7.781515
  60 H     1.0000    0     1.008   44.934934  -61.366909  -11.036695
  61 H     1.0000    0     1.008   41.956549  -60.244799  -12.114007
  62 H     1.0000    0     1.008   43.638786  -65.214645  -12.930792
  63 H     1.0000    0     1.008   45.621377  -65.114911   -3.517391
  64 H     1.0000    0     1.008   36.934278  -68.394771   -2.772029
  65 H     1.0000    0     1.008   38.607775  -67.169284   -6.928809
  66 H     1.0000    0     1.008   45.984316  -59.143679   -0.523394
  67 H     1.0000    0     1.008   43.080845  -57.635433    0.241108
  68 H     1.0000    0     1.008   43.591441  -60.844138    1.141842
  69 H     1.0000    0     1.008   33.819160  -62.012700  -11.107833
  70 H     1.0000    0     1.008   32.977071  -63.438453   -8.176524
  71 H     1.0000    0     1.008   32.911545  -60.077195   -8.509325
  72 H     1.0000    0     1.008   37.920556  -70.170656    9.706931
  73 H     1.0000    0     1.008   37.813710  -70.634479    6.360159
  74 H     1.0000    0     1.008   39.815651  -72.552039    8.273901
  75 H     1.0000    0     1.008   41.733780  -68.041977   -9.811216
  76 H     1.0000    0     1.008   35.643604  -67.989446    1.817235
  77 H     1.0000    0     1.008   29.691841  -63.675009    7.780704
  78 H     1.0000    0     1.008   40.643292  -67.715570    2.759784
  79 H     1.0000    0     1.008   47.684388  -67.262319    0.134448
  80 H     1.0000    0     1.008   47.033611  -63.959848    0.360635
  81 H     1.0000    0     1.008   47.262287  -65.817459    3.159470

--------------------------------
INTERNAL COORDINATES (ANGSTROEM)
--------------------------------
 C      0   0   0     0.000000000000     0.00000000     0.00000000
 C      1   0   0     1.404710162751     0.00000000     0.00000000
 C      2   1   0     1.401853591327   118.94759475     0.00000000
 C      3   2   1     1.390520458281   119.80893322   358.05394896
 C      4   3   2     1.383720092252   120.95370739     1.14026240
 C      1   2   3     1.386068050779   120.17818419     1.49565500
 C      5   4   3     1.502745152686   121.40832588   181.74833951
 C      7   5   4     1.536321251246   110.31300860   104.15725461
 C      8   7   5     1.537529615528   114.27023295   158.97808202
 C      9   8   7     1.536607366811   111.92403168   281.93856704
 C     10   9   8     1.502860428275   113.95430322   304.15704381
 C     11  10   9     1.393414337603   120.47389455   306.80957766
 C     12  11  10     1.381867401769   120.76115250   180.65045467
 C     13  12  11     1.405116667365   119.96596990     1.64542711
 C     14  13  12     1.382345021192   119.27847372   358.04844328
 C     11  10   9     1.385927580103   120.83169999   127.52604035
 C      8   7   5     1.535707256739   110.71640425   284.47368514
 C      9   8   7     1.534438840739   113.58415318    46.44144380
 O      3   2   1     1.369646897456   116.87265754   178.22297727
 O      1   2   3     1.362088398975   115.72146899   181.45538368
 O      2   1   3     1.375182732711   116.88046595   174.90602715
 O     14  13  12     1.362182409693   120.20138879   177.96372772
 O     13  12  11     1.379411441514   125.49075898   181.61607813
 C     21   2   1     1.415186706442   118.95807706   131.28687011
 C     24  21   2     1.553819286607   110.72962165   275.87292373
 C     25  24  21     1.508520388053   110.87554497    54.32964790
 C     24  21   2     1.537934855913   106.62542270   155.24869226
 O     27  24  21     1.400798435159   112.81506973   188.01396265
 C     26  25  24     1.389996854319   119.67988032   242.64628602
 C     29  26  25     1.382328320938   120.43541414   177.85382974
 C     30  29  26     1.403160864816   119.59811192     0.56817179
 C     31  30  29     1.381832808522   119.88417016     1.33405447
 C     32  31  30     1.384253063975   120.00265917   358.31283411
 C     20   1   2     1.407269629056   117.79042271   172.12398123
 C     19   3   2     1.406850734435   118.81627273   184.66835254
 C     23  13  12     1.407314625245   118.01375946     2.32849953
 O     25  24  21     1.418101068798   110.64599544   179.36553727
 O     17   8   7     1.405234843528   112.32924137   170.17886096
 O     18   9   8     1.408692429634   112.24410044   168.71569276
 O     30  29  26     1.371942380302   125.76132677   180.32769248
 O     31  30  29     1.367093331214   119.72639856   180.63951655
 C     40  30  29     1.409791014720   118.24877078   351.39635045
 H      4   3   2     1.077907532840   120.21928779   180.17073108
 H      6   1   2     1.077672967445   120.63388399   179.06529707
 H      7   5   4     1.090428438078   110.43896228   342.47443630
 H      7   5   4     1.090498036749   108.86241718   223.68743953
 H      8   7   5     1.096404238453   107.65333207    40.60875637
 H      9   8   7     1.096986979398   105.97969095   163.77187287
 H     10   9   8     1.093849650724   107.78126652   182.52778644
 H     10   9   8     1.091523821454   109.22256466    66.45805914
 H     12  11  10     1.077294166531   119.25939272     0.69049782
 H     15  14  13     1.078494409910   118.66149001   180.05297716
 H     16  11  10     1.080203091283   119.75533293   359.35070906
 H     17   8   7     1.093253749126   110.83333445   288.34555815
 H     17   8   7     1.098554402773   108.68962246    47.23376326
 H     18   9   8     1.091856611441   110.81888931   285.92324513
 H     18   9   8     1.098584908307   110.01326921    45.80013105
 H     22  14  13     0.967066618503   107.53914387   359.07085783
 H     24  21   2     1.095559376301   111.34073546    37.25787682
 H     25  24  21     1.094979820778   108.28130226   294.14024907
 H     27  24  21     1.099557041645   108.69818676    64.04352420
 H     27  24  21     1.092265881065   108.60823853   306.25418683
 H     28  27  24     0.969958713984   107.41447241   307.22841806
 H     29  26  25     1.077368983895   118.93883385   358.96015990
 H     32  31  30     1.078000831105   119.11978416   177.80184265
 H     33  32  31     1.080571950869   118.80589960   180.88257936
 H     34  20   1     1.089506507117   105.67194823   184.51492717
 H     34  20   1     1.094627907139   111.44544052   302.76356192
 H     34  20   1     1.095332362105   111.87263119    65.23329491
 H     35  19   3     1.089132868005   105.38303791   176.66942942
 H     35  19   3     1.095196862378   111.69410273   295.24358353
 H     35  19   3     1.093940078956   111.55713872    58.16099225
 H     36  23  13     1.094055714519   111.33578312   296.17511983
 H     36  23  13     1.094101691753   111.34129657    58.90390517
 H     36  23  13     1.088802239531   105.62641331   177.67267099
 H     37  25  24     0.964653115578   108.43631366   287.38777578
 H     38  17   8     0.970244053264   107.75699570   298.34348802
 H     39  18   9     0.964008861450   108.41387032   300.11176231
 H     41  31  30     0.969285398053   107.52698399   359.14323582
 H     42  40  30     1.094170157938   110.96562495   299.33634555
 H     42  40  30     1.092467468140   111.55863372    61.67508716
 H     42  40  30     1.088705052864   105.24847008   180.39501010

---------------------------
INTERNAL COORDINATES (A.U.)
---------------------------
 C      0   0   0     0.000000000000     0.00000000     0.00000000
 C      1   0   0     2.654517505135     0.00000000     0.00000000
 C      2   1   0     2.649119367462   118.94759475     0.00000000
 C      3   2   1     2.627702849767   119.80893322   358.05394896
 C      4   3   2     2.614852020361   120.95370739     1.14026240
 C      1   2   3     2.619289018950   120.17818419     1.49565500
 C      5   4   3     2.839776787654   121.40832588   181.74833951
 C      7   5   4     2.903226418578   110.31300860   104.15725461
 C      8   7   5     2.905509896141   114.27023295   158.97808202
 C      9   8   7     2.903767098639   111.92403168   281.93856704
 C     10   9   8     2.839994626948   113.95430322   304.15704381
 C     11  10   9     2.633171489149   120.47389455   306.80957766
 C     12  11  10     2.611350942736   120.76115250   180.65045467
 C     13  12  11     2.655285687527   119.96596990     1.64542711
 C     14  13  12     2.612253512643   119.27847372   358.04844328
 C     11  10   9     2.619023567843   120.83169999   127.52604035
 C      8   7   5     2.902066137112   110.71640425   284.47368514
 C      9   8   7     2.899669178248   113.58415318    46.44144380
 O      3   2   1     2.588257536366   116.87265754   178.22297727
 O      1   2   3     2.573974044255   115.72146899   181.45538368
 O      2   1   3     2.598718748921   116.88046595   174.90602715
 O     14  13  12     2.574151698765   120.20138879   177.96372772
 O     13  12  11     2.606709850459   125.49075898   181.61607813
 C     21   2   1     2.674315303541   118.95807706   131.28687011
 C     24  21   2     2.936292913292   110.72962165   275.87292373
 C     25  24  21     2.850690400858   110.87554497    54.32964790
 C     24  21   2     2.906275689486   106.62542270   155.24869226
 O     27  24  21     2.647125411275   112.81506973   188.01396265
 C     26  25  24     2.626713381675   119.67988032   242.64628602
 C     29  26  25     2.612221953737   120.43541414   177.85382974
 C     30  29  26     2.651589756339   119.59811192     0.56817179
 C     31  30  29     2.611285570975   119.88417016     1.33405447
 C     32  31  30     2.615859190954   120.00265917   358.31283411
 C     20   1   2     2.659354195502   117.79042271   172.12398123
 C     19   3   2     2.658562599388   118.81627273   184.66835254
 C     23  13  12     2.659439225975   118.01375946     2.32849953
 O     25  24  21     2.679822650250   110.64599544   179.36553727
 O     17   8   7     2.655509008112   112.32924137   170.17886096
 O     18   9   8     2.662042898936   112.24410044   168.71569276
 O     30  29  26     2.592595370291   125.76132677   180.32769248
 O     31  30  29     2.583431995504   119.72639856   180.63951655
 C     40  30  29     2.664118923884   118.24877078   351.39635045
 H      4   3   2     2.036950034757   120.21928779   180.17073108
 H      6   1   2     2.036506770401   120.63388399   179.06529707
 H      7   5   4     2.060611116608   110.43896228   342.47443630
 H      7   5   4     2.060742639034   108.86241718   223.68743953
 H      8   7   5     2.071903742746   107.65333207    40.60875637
 H      9   8   7     2.073004963541   105.97969095   163.77187287
 H     10   9   8     2.067076271554   107.78126652   182.52778644
 H     10   9   8     2.062681091200   109.22256466    66.45805914
 H     12  11  10     2.035790940415   119.25939272     0.69049782
 H     15  14  13     2.038059071695   118.66149001   180.05297716
 H     16  11  10     2.041288011541   119.75533293   359.35070906
 H     17   8   7     2.065950180731   110.83333445   288.34555815
 H     17   8   7     2.075966964455   108.68962246    47.23376326
 H     18   9   8     2.063309973134   110.81888931   285.92324513
 H     18   9   8     2.076024611559   110.01326921    45.80013105
 H     22  14  13     1.827491062227   107.53914387   359.07085783
 H     24  21   2     2.070307184658   111.34073546    37.25787682
 H     25  24  21     2.069211983440   108.28130226   294.14024907
 H     27  24  21     2.077861677334   108.69818676    64.04352420
 H     27  24  21     2.064083380638   108.60823853   306.25418683
 H     28  27  24     1.832956330641   107.41447241   307.22841806
 H     29  26  25     2.035932324743   118.93883385   358.96015990
 H     32  31  30     2.037126342928   119.11978416   177.80184265
 H     33  32  31     2.041985055139   118.80589960   180.88257936
 H     34  20   1     2.058868919576   105.67194823   184.51492717
 H     34  20   1     2.068546963040   111.44544052   302.76356192
 H     34  20   1     2.069878190000   111.87263119    65.23329491
 H     35  19   3     2.058162843982   105.38303791   176.66942942
 H     35  19   3     2.069622132624   111.69410273   295.24358353
 H     35  19   3     2.067247156147   111.55713872    58.16099225
 H     36  23  13     2.067465675693   111.33578312   296.17511983
 H     36  23  13     2.067552560072   111.34129657    58.90390517
 H     36  23  13     2.057538046714   105.62641331   177.67267099
 H     37  25  24     1.822930202676   108.43631366   287.38777578
 H     38  17   8     1.833495543736   107.75699570   298.34348802
 H     39  18   9     1.821712738814   108.41387032   300.11176231
 H     41  31  30     1.831683947929   107.52698399   359.14323582
 H     42  40  30     2.067681942413   110.96562495   299.33634555
 H     42  40  30     2.064464325003   111.55863372    61.67508716
 H     42  40  30     2.057354390528   105.24847008   180.39501010

---------------------
BASIS SET INFORMATION
---------------------
There are 3 groups of distinct atoms

 Group   1 Type C   : 11s6p2d1f contracted to 5s3p2d1f pattern {62111/411/11/1}
 Group   2 Type O   : 11s6p2d1f contracted to 5s3p2d1f pattern {62111/411/11/1}
 Group   3 Type H   : 5s1p contracted to 3s1p pattern {311/1}

Atom   0C    basis set group =>   1
Atom   1C    basis set group =>   1
Atom   2C    basis set group =>   1
Atom   3C    basis set group =>   1
Atom   4C    basis set group =>   1
Atom   5C    basis set group =>   1
Atom   6C    basis set group =>   1
Atom   7C    basis set group =>   1
Atom   8C    basis set group =>   1
Atom   9C    basis set group =>   1
Atom  10C    basis set group =>   1
Atom  11C    basis set group =>   1
Atom  12C    basis set group =>   1
Atom  13C    basis set group =>   1
Atom  14C    basis set group =>   1
Atom  15C    basis set group =>   1
Atom  16C    basis set group =>   1
Atom  17C    basis set group =>   1
Atom  18O    basis set group =>   2
Atom  19O    basis set group =>   2
Atom  20O    basis set group =>   2
Atom  21O    basis set group =>   2
Atom  22O    basis set group =>   2
Atom  23C    basis set group =>   1
Atom  24C    basis set group =>   1
Atom  25C    basis set group =>   1
Atom  26C    basis set group =>   1
Atom  27O    basis set group =>   2
Atom  28C    basis set group =>   1
Atom  29C    basis set group =>   1
Atom  30C    basis set group =>   1
Atom  31C    basis set group =>   1
Atom  32C    basis set group =>   1
Atom  33C    basis set group =>   1
Atom  34C    basis set group =>   1
Atom  35C    basis set group =>   1
Atom  36O    basis set group =>   2
Atom  37O    basis set group =>   2
Atom  38O    basis set group =>   2
Atom  39O    basis set group =>   2
Atom  40O    basis set group =>   2
Atom  41C    basis set group =>   1
Atom  42H    basis set group =>   3
Atom  43H    basis set group =>   3
Atom  44H    basis set group =>   3
Atom  45H    basis set group =>   3
Atom  46H    basis set group =>   3
Atom  47H    basis set group =>   3
Atom  48H    basis set group =>   3
Atom  49H    basis set group =>   3
Atom  50H    basis set group =>   3
Atom  51H    basis set group =>   3
Atom  52H    basis set group =>   3
Atom  53H    basis set group =>   3
Atom  54H    basis set group =>   3
Atom  55H    basis set group =>   3
Atom  56H    basis set group =>   3
Atom  57H    basis set group =>   3
Atom  58H    basis set group =>   3
Atom  59H    basis set group =>   3
Atom  60H    basis set group =>   3
Atom  61H    basis set group =>   3
Atom  62H    basis set group =>   3
Atom  63H    basis set group =>   3
Atom  64H    basis set group =>   3
Atom  65H    basis set group =>   3
Atom  66H    basis set group =>   3
Atom  67H    basis set group =>   3
Atom  68H    basis set group =>   3
Atom  69H    basis set group =>   3
Atom  70H    basis set group =>   3
Atom  71H    basis set group =>   3
Atom  72H    basis set group =>   3
Atom  73H    basis set group =>   3
Atom  74H    basis set group =>   3
Atom  75H    basis set group =>   3
Atom  76H    basis set group =>   3
Atom  77H    basis set group =>   3
Atom  78H    basis set group =>   3
Atom  79H    basis set group =>   3
Atom  80H    basis set group =>   3
Atom  81H    basis set group =>   3
---------------------------------
AUXILIARY/J BASIS SET INFORMATION
---------------------------------
There are 3 groups of distinct atoms

 Group   1 Type C   : 12s5p4d2f1g contracted to 6s4p3d1f1g pattern {711111/2111/211/2/1}
 Group   2 Type O   : 12s5p4d2f1g contracted to 6s4p3d1f1g pattern {711111/2111/211/2/1}
 Group   3 Type H   : 5s2p1d contracted to 3s1p1d pattern {311/2/1}

Atom   0C    basis set group =>   1
Atom   1C    basis set group =>   1
Atom   2C    basis set group =>   1
Atom   3C    basis set group =>   1
Atom   4C    basis set group =>   1
Atom   5C    basis set group =>   1
Atom   6C    basis set group =>   1
Atom   7C    basis set group =>   1
Atom   8C    basis set group =>   1
Atom   9C    basis set group =>   1
Atom  10C    basis set group =>   1
Atom  11C    basis set group =>   1
Atom  12C    basis set group =>   1
Atom  13C    basis set group =>   1
Atom  14C    basis set group =>   1
Atom  15C    basis set group =>   1
Atom  16C    basis set group =>   1
Atom  17C    basis set group =>   1
Atom  18O    basis set group =>   2
Atom  19O    basis set group =>   2
Atom  20O    basis set group =>   2
Atom  21O    basis set group =>   2
Atom  22O    basis set group =>   2
Atom  23C    basis set group =>   1
Atom  24C    basis set group =>   1
Atom  25C    basis set group =>   1
Atom  26C    basis set group =>   1
Atom  27O    basis set group =>   2
Atom  28C    basis set group =>   1
Atom  29C    basis set group =>   1
Atom  30C    basis set group =>   1
Atom  31C    basis set group =>   1
Atom  32C    basis set group =>   1
Atom  33C    basis set group =>   1
Atom  34C    basis set group =>   1
Atom  35C    basis set group =>   1
Atom  36O    basis set group =>   2
Atom  37O    basis set group =>   2
Atom  38O    basis set group =>   2
Atom  39O    basis set group =>   2
Atom  40O    basis set group =>   2
Atom  41C    basis set group =>   1
Atom  42H    basis set group =>   3
Atom  43H    basis set group =>   3
Atom  44H    basis set group =>   3
Atom  45H    basis set group =>   3
Atom  46H    basis set group =>   3
Atom  47H    basis set group =>   3
Atom  48H    basis set group =>   3
Atom  49H    basis set group =>   3
Atom  50H    basis set group =>   3
Atom  51H    basis set group =>   3
Atom  52H    basis set group =>   3
Atom  53H    basis set group =>   3
Atom  54H    basis set group =>   3
Atom  55H    basis set group =>   3
Atom  56H    basis set group =>   3
Atom  57H    basis set group =>   3
Atom  58H    basis set group =>   3
Atom  59H    basis set group =>   3
Atom  60H    basis set group =>   3
Atom  61H    basis set group =>   3
Atom  62H    basis set group =>   3
Atom  63H    basis set group =>   3
Atom  64H    basis set group =>   3
Atom  65H    basis set group =>   3
Atom  66H    basis set group =>   3
Atom  67H    basis set group =>   3
Atom  68H    basis set group =>   3
Atom  69H    basis set group =>   3
Atom  70H    basis set group =>   3
Atom  71H    basis set group =>   3
Atom  72H    basis set group =>   3
Atom  73H    basis set group =>   3
Atom  74H    basis set group =>   3
Atom  75H    basis set group =>   3
Atom  76H    basis set group =>   3
Atom  77H    basis set group =>   3
Atom  78H    basis set group =>   3
Atom  79H    basis set group =>   3
Atom  80H    basis set group =>   3
Atom  81H    basis set group =>   3
--------------------------------------------------------------------------
WARNING: There is at least one non-excluded one OpenFabrics device found,
but there are no active ports detected (or Open MPI was unable to use
them).  This is most certainly not what you wanted.  Check your
cables, subnet manager configuration, etc.  The openib BTL will be
ignored for this job.

  Local host: c03b01n01
--------------------------------------------------------------------------
--------------------------------------------------------------------------
WARNING: There was an error initializing an OpenFabrics device.

  Local host:   c03b01n01
  Local device: mlx5_0
--------------------------------------------------------------------------


           ************************************************************
           *        Program running with 64 parallel MPI-processes    *
           *              working on a common directory               *
           ************************************************************
------------------------------------------------------------------------------
                             ORCA STARTUP CALCULATIONS
                           -- RI-GTO INTEGRALS CHOSEN --
------------------------------------------------------------------------------
------------------------------------------------------------------------------
                   ___                                                        
                  /   \      - P O W E R E D   B Y -                         
                 /     \                                                     
                 |  |  |   _    _      __       _____    __    __             
                 |  |  |  | |  | |    /  \     |  _  \  |  |  /  |          
                  \  \/   | |  | |   /    \    | | | |  |  | /  /          
                 / \  \   | |__| |  /  /\  \   | |_| |  |  |/  /          
                |  |  |   |  __  | /  /__\  \  |    /   |      \           
                |  |  |   | |  | | |   __   |  |    \   |  |\   \          
                \     /   | |  | | |  |  |  |  | |\  \  |  | \   \       
                 \___/    |_|  |_| |__|  |__|  |_| \__\ |__|  \__/        
                                                                              
                      - O R C A' S   B I G   F R I E N D -                    
                                      &                                       
                       - I N T E G R A L  F E E D E R -                       
                                                                              
 v1 FN, 2020, v2 2021, v3 2022-2024                                           
------------------------------------------------------------------------------


[c03b01n01:94586] 2 more processes have sent help message help-mpi-btl-openib.txt / no active ports found
[c03b01n01:94586] Set MCA parameter "orte_base_help_aggregate" to 0 to see all help / error messages
[c03b01n01:94586] 60 more processes have sent help message help-mpi-btl-openib.txt / error in device init
----------------------
SHARK INTEGRAL PACKAGE
----------------------

Number of atoms                             ...     82
Number of basis functions                   ...   1542
Number of shells                            ...    622
Maximum angular momentum                    ...      3
Integral batch strategy                     ... SHARK/LIBINT Hybrid
RI-J (if used) integral strategy            ... SPLIT-RIJ (Revised 2003 algorithm where possible)
Printlevel                                  ...      1
Contraction scheme used                     ... SEGMENTED contraction
Prescreening option                         ... SCHWARTZ
   Thresh                                   ... 2.500e-11
   Tcut                                     ... 2.500e-12
   Tpresel                                  ... 2.500e-12 
Coulomb Range Separation                    ... NOT USED
Exchange Range Separation                   ... NOT USED
Multipole approximations                    ... NOT USED
Finite Nucleus Model                        ... NOT USED
CABS basis                                  ... NOT available
Auxiliary Coulomb fitting basis             ... AVAILABLE
   # of basis functions in Aux-J            ...   2498
   # of shells in Aux-J                     ...    830
   Maximum angular momentum in Aux-J        ...      4
Auxiliary J/K fitting basis                 ... NOT available
Auxiliary Correlation fitting basis         ... NOT available
Auxiliary 'external' fitting basis          ... NOT available

Checking pre-screening integrals            ... done (  0.0 sec) Dimension = 622
   => SHARK Basis and OBASIS are compatible. Storing Pre-screening
Shell pair information
Shell pair cut-off parameter TPreSel        ...   2.5e-12
Total number of shell pairs                 ...    193753
Shell pairs after pre-screening             ...    115491
Total number of primitive shell pairs       ...    584784
Primitive shell pairs kept                  ...    217808
          la=0 lb=0:  32111 shell pairs
          la=1 lb=0:  34448 shell pairs
          la=1 lb=1:   9339 shell pairs
          la=2 lb=0:  15667 shell pairs
          la=2 lb=1:   8610 shell pairs
          la=2 lb=2:   1985 shell pairs
          la=3 lb=0:   7153 shell pairs
          la=3 lb=1:   4006 shell pairs
          la=3 lb=2:   1751 shell pairs
          la=3 lb=3:    421 shell pairs

Checking whether 4 symmetric matrices of dimension 1542 fit in memory
:Max Core in MB      =   6000.00
 MB in use           =    138.41
 MB left             =   5861.59
 MB needed           =     36.31
 Data fit in memory  = YES
Calculating RI/J V-Matrix + Cholesky decomp.... done (  1.6 sec)
Calculating Nuclear repulsion               ... done (  0.0 sec) ENN=   5734.892154676032 Eh

Diagonalization of the overlap matrix:
Smallest eigenvalue                        ... 3.298e-06
Time for diagonalization                   ...    1.131 sec
Threshold for overlap eigenvalues          ... 1.000e-07
Number of eigenvalues below threshold      ... 0
Time for construction of square roots      ...    0.359 sec
Total time needed                          ...    1.560 sec

-------------------
DFT GRID GENERATION
-------------------

General Integration Accuracy     IntAcc      ... 4.388
Radial Grid Type                 RadialGrid  ... OptM3 with GC (2021)
Angular Grid (max. ang.)         AngularGrid ... 4 (Lebedev-302)
Angular grid pruning method      GridPruning ... 4 (adaptive)
Weight generation scheme         WeightScheme... mBecke (2022)
Basis function cutoff            BFCut       ... 1.0000e-11
Integration weight cutoff        WCut        ... 1.0000e-14
Partially contracted basis set               ... off
Rotationally invariant grid construction     ... off
Angular grids for H and He will be reduced by one unit

Total number of grid points                  ...   373467
Total number of batches                      ...     5879
Average number of points per batch           ...       63
Average number of grid points per atom       ...     4554

--------------------
COSX GRID GENERATION
--------------------

GRIDX 1
-------
General Integration Accuracy     IntAcc      ... 3.816
Radial Grid Type                 RadialGrid  ... OptM3 with GC (2021)
Angular Grid (max. ang.)         AngularGrid ... 1 (Lebedev-50)
Angular grid pruning method      GridPruning ... 4 (adaptive)
Weight generation scheme         WeightScheme... mBecke (2022)
Basis function cutoff            BFCut       ... 1.0000e-11
Integration weight cutoff        WCut        ... 1.0000e-14
Partially contracted basis set               ... on
Rotationally invariant grid construction     ... off
Angular grids for H and He will be reduced by one unit

Total number of grid points                  ...    47277
Total number of batches                      ...      415
Average number of points per batch           ...      113
Average number of grid points per atom       ...      577
UseSFitting                                  ... on

GRIDX 2
-------
General Integration Accuracy     IntAcc      ... 4.020
Radial Grid Type                 RadialGrid  ... OptM3 with GC (2021)
Angular Grid (max. ang.)         AngularGrid ... 2 (Lebedev-110)
Angular grid pruning method      GridPruning ... 4 (adaptive)
Weight generation scheme         WeightScheme... mBecke (2022)
Basis function cutoff            BFCut       ... 1.0000e-11
Integration weight cutoff        WCut        ... 1.0000e-14
Partially contracted basis set               ... on
Rotationally invariant grid construction     ... off
[...]
freq.     626.63  E(vib)   ...       0.09 
freq.     637.47  E(vib)   ...       0.09 
freq.     660.65  E(vib)   ...       0.08 
freq.     666.56  E(vib)   ...       0.08 
freq.     700.93  E(vib)   ...       0.07 
freq.     731.47  E(vib)   ...       0.06 
freq.     748.98  E(vib)   ...       0.06 
freq.     750.94  E(vib)   ...       0.06 
freq.     769.93  E(vib)   ...       0.05 
freq.     776.60  E(vib)   ...       0.05 
freq.     792.63  E(vib)   ...       0.05 
freq.     802.63  E(vib)   ...       0.05 
freq.     814.17  E(vib)   ...       0.05 
freq.     821.78  E(vib)   ...       0.05 
freq.     834.23  E(vib)   ...       0.04 
freq.     841.66  E(vib)   ...       0.04 
freq.     847.67  E(vib)   ...       0.04 
freq.     854.74  E(vib)   ...       0.04 
freq.     874.09  E(vib)   ...       0.04 
freq.     881.20  E(vib)   ...       0.04 
freq.     885.64  E(vib)   ...       0.04 
freq.     891.98  E(vib)   ...       0.03 
freq.     901.00  E(vib)   ...       0.03 
freq.     931.81  E(vib)   ...       0.03 
freq.     942.12  E(vib)   ...       0.03 
freq.     948.98  E(vib)   ...       0.03 
freq.     950.50  E(vib)   ...       0.03 
freq.     961.50  E(vib)   ...       0.03 
freq.     967.40  E(vib)   ...       0.03 
freq.     970.88  E(vib)   ...       0.03 
freq.     987.26  E(vib)   ...       0.02 
freq.     999.25  E(vib)   ...       0.02 
freq.    1020.64  E(vib)   ...       0.02 
freq.    1028.63  E(vib)   ...       0.02 
freq.    1037.66  E(vib)   ...       0.02 
freq.    1047.02  E(vib)   ...       0.02 
freq.    1048.18  E(vib)   ...       0.02 
freq.    1056.23  E(vib)   ...       0.02 
freq.    1060.97  E(vib)   ...       0.02 
freq.    1069.75  E(vib)   ...       0.02 
freq.    1079.14  E(vib)   ...       0.02 
freq.    1101.30  E(vib)   ...       0.02 
freq.    1103.08  E(vib)   ...       0.02 
freq.    1116.15  E(vib)   ...       0.01 
freq.    1129.43  E(vib)   ...       0.01 
freq.    1141.77  E(vib)   ...       0.01 
freq.    1147.05  E(vib)   ...       0.01 
freq.    1148.60  E(vib)   ...       0.01 
freq.    1169.44  E(vib)   ...       0.01 
freq.    1170.31  E(vib)   ...       0.01 
freq.    1170.65  E(vib)   ...       0.01 
freq.    1171.40  E(vib)   ...       0.01 
freq.    1173.71  E(vib)   ...       0.01 
freq.    1175.57  E(vib)   ...       0.01 
freq.    1181.40  E(vib)   ...       0.01 
freq.    1182.87  E(vib)   ...       0.01 
freq.    1199.18  E(vib)   ...       0.01 
freq.    1202.36  E(vib)   ...       0.01 
freq.    1204.30  E(vib)   ...       0.01 
freq.    1206.85  E(vib)   ...       0.01 
freq.    1212.27  E(vib)   ...       0.01 
freq.    1212.69  E(vib)   ...       0.01 
freq.    1221.97  E(vib)   ...       0.01 
freq.    1223.97  E(vib)   ...       0.01 
freq.    1229.52  E(vib)   ...       0.01 
freq.    1231.43  E(vib)   ...       0.01 
freq.    1245.72  E(vib)   ...       0.01 
freq.    1250.07  E(vib)   ...       0.01 
freq.    1251.93  E(vib)   ...       0.01 
freq.    1261.55  E(vib)   ...       0.01 
freq.    1273.93  E(vib)   ...       0.01 
freq.    1287.79  E(vib)   ...       0.01 
freq.    1293.43  E(vib)   ...       0.01 
freq.    1296.53  E(vib)   ...       0.01 
freq.    1314.41  E(vib)   ...       0.01 
freq.    1315.00  E(vib)   ...       0.01 
freq.    1324.87  E(vib)   ...       0.01 
freq.    1337.22  E(vib)   ...       0.01 
freq.    1339.38  E(vib)   ...       0.01 
freq.    1343.58  E(vib)   ...       0.01 
freq.    1345.55  E(vib)   ...       0.01 
freq.    1357.12  E(vib)   ...       0.01 
freq.    1367.26  E(vib)   ...       0.01 
freq.    1372.51  E(vib)   ...       0.01 
freq.    1381.42  E(vib)   ...       0.01 
freq.    1389.32  E(vib)   ...       0.00 
freq.    1390.22  E(vib)   ...       0.00 
freq.    1397.81  E(vib)   ...       0.00 
freq.    1398.26  E(vib)   ...       0.00 
freq.    1405.90  E(vib)   ...       0.00 
freq.    1410.38  E(vib)   ...       0.00 
freq.    1412.32  E(vib)   ...       0.00 
freq.    1418.65  E(vib)   ...       0.00 
freq.    1426.20  E(vib)   ...       0.00 
freq.    1438.05  E(vib)   ...       0.00 
freq.    1452.33  E(vib)   ...       0.00 
freq.    1460.13  E(vib)   ...       0.00 
freq.    1466.17  E(vib)   ...       0.00 
freq.    1478.40  E(vib)   ...       0.00 
freq.    1478.54  E(vib)   ...       0.00 
freq.    1479.22  E(vib)   ...       0.00 
freq.    1479.26  E(vib)   ...       0.00 
freq.    1480.68  E(vib)   ...       0.00 
freq.    1482.18  E(vib)   ...       0.00 
freq.    1482.48  E(vib)   ...       0.00 
freq.    1486.67  E(vib)   ...       0.00 
freq.    1487.09  E(vib)   ...       0.00 
freq.    1491.17  E(vib)   ...       0.00 
freq.    1491.57  E(vib)   ...       0.00 
freq.    1491.77  E(vib)   ...       0.00 
freq.    1496.24  E(vib)   ...       0.00 
freq.    1498.04  E(vib)   ...       0.00 
freq.    1498.51  E(vib)   ...       0.00 
freq.    1502.39  E(vib)   ...       0.00 
freq.    1509.14  E(vib)   ...       0.00 
freq.    1534.27  E(vib)   ...       0.00 
freq.    1542.02  E(vib)   ...       0.00 
freq.    1548.35  E(vib)   ...       0.00 
freq.    1626.50  E(vib)   ...       0.00 
freq.    1634.11  E(vib)   ...       0.00 
freq.    1642.52  E(vib)   ...       0.00 
freq.    1643.60  E(vib)   ...       0.00 
freq.    1648.74  E(vib)   ...       0.00 
freq.    1651.40  E(vib)   ...       0.00 
freq.    2986.33  E(vib)   ...       0.00 
freq.    3014.60  E(vib)   ...       0.00 
freq.    3016.89  E(vib)   ...       0.00 
freq.    3019.53  E(vib)   ...       0.00 
freq.    3021.06  E(vib)   ...       0.00 
freq.    3021.43  E(vib)   ...       0.00 
freq.    3021.79  E(vib)   ...       0.00 
freq.    3026.42  E(vib)   ...       0.00 
freq.    3028.50  E(vib)   ...       0.00 
freq.    3029.73  E(vib)   ...       0.00 
freq.    3037.23  E(vib)   ...       0.00 
freq.    3059.98  E(vib)   ...       0.00 
freq.    3064.85  E(vib)   ...       0.00 
freq.    3068.45  E(vib)   ...       0.00 
freq.    3072.91  E(vib)   ...       0.00 
freq.    3076.66  E(vib)   ...       0.00 
freq.    3081.17  E(vib)   ...       0.00 
freq.    3083.21  E(vib)   ...       0.00 
freq.    3084.48  E(vib)   ...       0.00 
freq.    3084.97  E(vib)   ...       0.00 
freq.    3092.31  E(vib)   ...       0.00 
freq.    3092.59  E(vib)   ...       0.00 
freq.    3137.12  E(vib)   ...       0.00 
freq.    3137.22  E(vib)   ...       0.00 
freq.    3142.78  E(vib)   ...       0.00 
freq.    3164.99  E(vib)   ...       0.00 
freq.    3170.14  E(vib)   ...       0.00 
freq.    3182.75  E(vib)   ...       0.00 
freq.    3187.36  E(vib)   ...       0.00 
freq.    3198.13  E(vib)   ...       0.00 
freq.    3202.96  E(vib)   ...       0.00 
freq.    3209.37  E(vib)   ...       0.00 
freq.    3211.24  E(vib)   ...       0.00 
freq.    3212.50  E(vib)   ...       0.00 
freq.    3646.27  E(vib)   ...       0.00 
freq.    3652.91  E(vib)   ...       0.00 
freq.    3712.04  E(vib)   ...       0.00 
freq.    3725.69  E(vib)   ...       0.00 
freq.    3753.60  E(vib)   ...       0.00 
freq.    3769.81  E(vib)   ...       0.00 

------------
INNER ENERGY
------------

The inner energy is: U= E(el) + E(ZPE) + E(vib) + E(rot) + E(trans)
    E(el)   - is the total energy from the electronic structure calculation
              = E(kin-el) + E(nuc-el) + E(el-el) + E(nuc-nuc)
    E(ZPE)  - the the zero temperature vibrational energy from the frequency calculation
    E(vib)  - the the finite temperature correction to E(ZPE) due to population
              of excited vibrational states
    E(rot)  - is the rotational thermal energy
    E(trans)- is the translational thermal energy

Summary of contributions to the inner energy U:
Electronic energy                ...  -2032.63524260 Eh
Zero point energy                ...      0.67884303 Eh     425.98 kcal/mol
Thermal vibrational correction   ...      0.03955892 Eh      24.82 kcal/mol
Thermal rotational correction    ...      0.00141627 Eh       0.89 kcal/mol
Thermal translational correction ...      0.00141627 Eh       0.89 kcal/mol
-----------------------------------------------------------------------
Total thermal energy                  -2031.91400810 Eh


Summary of corrections to the electronic energy:
(perhaps to be used in another calculation)
Total thermal correction                  0.04239147 Eh      26.60 kcal/mol
Non-thermal (ZPE) correction              0.67884303 Eh     425.98 kcal/mol
-----------------------------------------------------------------------
Total correction                          0.72123450 Eh     452.58 kcal/mol


--------
ENTHALPY
--------

The enthalpy is H = U + kB*T
                kB is Boltzmann's constant
Total thermal energy              ...  -2031.91400810 Eh 
Thermal Enthalpy correction       ...      0.00094421 Eh       0.59 kcal/mol
-----------------------------------------------------------------------
Total Enthalpy                    ...  -2031.91306389 Eh


Note: Only C1 symmetry has been detected, increase convergence thresholds 
      if your molecule has a higher symmetry. Symmetry factor of 1.0 is   
      used for the rotational entropy correction. 
 

Note: Rotational entropy computed according to Herzberg 
Infrared and Raman Spectra, Chapter V,1, Van Nostrand Reinhold, 1945 
Point Group:  C1, Symmetry Number:   1  
Rotational constants in cm-1:     0.004126     0.002124     0.001722 

Vibrational entropy computed according to the QRRHO of S. Grimme
Chem.Eur.J. 2012 18 9955 using a reference frequency of 100.0 cm-1


-------
ENTROPY
-------

The entropy contributions are T*S = T*(S(el)+S(vib)+S(rot)+S(trans))
     S(el)   - electronic entropy
     S(vib)  - vibrational entropy
     S(rot)  - rotational entropy
     S(trans)- translational entropy
The entropies will be listed as multiplied by the temperature to get
units of energy

Electronic entropy                ...      0.00000000 Eh      0.00 kcal/mol
Vibrational entropy               ...      0.07028425 Eh     44.10 kcal/mol
Rotational entropy                ...      0.01801272 Eh     11.30 kcal/mol
Translational entropy             ...      0.02138181 Eh     13.42 kcal/mol
-----------------------------------------------------------------------
Final entropy term                ...      0.10967878 Eh     68.82 kcal/mol

In case the symmetry of your molecule has not been determined correctly
or in case you have a reason to use a different symmetry number we print 
out the resulting rotational entropy values for sn=1,12:

 non-linear molecules -----------------------------------
|  sn= 1 | S(rot)=       0.01801272 Eh     11.30 kcal/mol|
|  sn= 2 | S(rot)=       0.01735826 Eh     10.89 kcal/mol|
|  sn= 3 | S(rot)=       0.01697543 Eh     10.65 kcal/mol|
|  sn= 4 | S(rot)=       0.01670380 Eh     10.48 kcal/mol|
|  sn= 5 | S(rot)=       0.01649312 Eh     10.35 kcal/mol|
|  sn= 6 | S(rot)=       0.01632097 Eh     10.24 kcal/mol|
|  sn= 7 | S(rot)=       0.01617543 Eh     10.15 kcal/mol|
|  sn= 8 | S(rot)=       0.01604935 Eh     10.07 kcal/mol|
|  sn= 9 | S(rot)=       0.01593814 Eh     10.00 kcal/mol|
|  sn=10 | S(rot)=       0.01583866 Eh      9.94 kcal/mol|
|  sn=11 | S(rot)=       0.01574867 Eh      9.88 kcal/mol|
|  sn=12 | S(rot)=       0.01566652 Eh      9.83 kcal/mol|
 linear molecules ---------------------------------------
|  Dinfh | S(rot)=       0.01133474 Eh      7.11 kcal/mol|
|  Cinfv | S(rot)=       0.01198920 Eh      7.52 kcal/mol|
 --------------------------------------------------------


-------------------
GIBBS FREE ENERGY
-------------------

The Gibbs free energy is G = H - T*S

Total enthalpy                    ...  -2031.91306389 Eh 
Total entropy correction          ...     -0.10967878 Eh    -68.82 kcal/mol
-----------------------------------------------------------------------
Final Gibbs free energy         ...  -2032.02274267 Eh

For completeness - the Gibbs free energy minus the electronic energy
G-E(el)                           ...      0.61249993 Eh    384.35 kcal/mol


Maximum memory used throughout the entire PROP-calculation: 1821.1 MB
--------------------------------------------------------------------------
WARNING: There was an error initializing an OpenFabrics device.

  Local host:   c03b01n01
  Local device: mlx5_0
--------------------------------------------------------------------------
--------------------------------------------------------------------------
WARNING: There is at least one non-excluded one OpenFabrics device found,
but there are no active ports detected (or Open MPI was unable to use
them).  This is most certainly not what you wanted.  Check your
cables, subnet manager configuration, etc.  The openib BTL will be
ignored for this job.

  Local host: c03b01n01
--------------------------------------------------------------------------
[c03b01n01:201602] 58 more processes have sent help message help-mpi-btl-openib.txt / error in device init
[c03b01n01:201602] Set MCA parameter "orte_base_help_aggregate" to 0 to see all help / error messages
[c03b01n01:201602] 4 more processes have sent help message help-mpi-btl-openib.txt / no active ports found

--------------------------------
SUGGESTED CITATIONS FOR THIS RUN
--------------------------------

Below you find a list of papers that are relevant to this ORCA run
We neither can nor want to force you to cite these papers, but we appreciate if you do
You receive ORCA, which is the product of decades of hard work by many enthusiastic individuals, for free
The only thing we kindly ask in return is that you cite our papers,
We deeply appreciate it, if you show your appreciation for ORCA by not just citing the generic ORCA reference.

Please note that relegating all ORCA citations to the supporting information does *not* help us.
SI sections are not indexed - citations you put there will not count into any citation statistics
But we need these citations in order to attract the funding resources that allow us to do what we are doing

Therefore, if you are a happy ORCA user, please consider citing a few of the papers listed below in the main body of your paper

In addition to the list printed below, the program has created the file opt-conf-2.bibtex that contains the list in bibtex format
You can import this file easily into all common literature databanks and citation aid programs


List of essential papers. We consider these as the minimum necessary citations

  1. Neese, F.
     Software update: the ORCA program system, version 6.0
     WIRES Comput. Molec. Sci. 2025 15(1), e70019
     doi.org/10.1002/wcms.7019

List of papers to cite with high priority. The work reported in these papers was absolutely
necessary for this run to complete.
Our perspective: the developers of density functionals and basis sets usually get cited in chemistry papers
Good! But without the algorithms to do something with them, the functionals or basis sets would not do anything.
Hence, in our opinion, the algorithm design and method developments papers are equally worthy of getting cited

  1. Neese, F.
     An improvement of the resolution of the identity approximation for the formation of the Coulomb matrix
     J. Comp. Chem. 2003 24(14), 1740-1747
     doi.org/10.1002/jcc.10318
  2. Neese, F.; Wennmohs, F.; Hansen, A.; Becker, U.
     Efficient, approximate and parallel Hartree-Fock and hybrid DFT calculations. A 'chain-of-spheres' algorithm for the Hartree-Fock exchange
     Chem. Phys. 2009 356(1-3), 98-109
     doi.org/10.1016/j.chemphys.2008.10.036
  3. Bykov, D.; Petrenko, T.; Izsak, R.; Kossmann, S.; Becker, U.; Valeev, E.; Neese, F.
     Efficient implementation of the analytic second derivatives of Hartree-Fock and hybrid DFT energies: a detailed analysis of different approximations
     Molec. Phys. 2015 113 , 1961-1977
     doi.org/10.1080/00268976.2015.1025114
  4. Caldeweyher, E.; Bannwarth, C.; Grimme, S.
     Extension of the D3 dispersion coefficient model
     J. Chem. Phys. 2017 147 , 034112
     doi.org/10.1063/1.4993215
  5. Caldeweyher, E.; Ehlert, S.; Hansen, A.; Neugebauer, H.; Spicher, S.; Bannwarth, C.; Grimme, S.
     A generally applicable atomic-charge dependent London dispersion correction
     J. Chem. Phys. 2019 150 , 154122
     doi.org/10.1063/1.5090222
  6. Garcia-Rates, M.; Neese, F.
     Efficient implementation of the analytical second derivatives of hartree-fock and hybrid DFT energies within the framework of the conductor-like polarizable continuum model
     J. Comput. Chem. 2019 40 , 1816-1828
     doi.org/10.1002/jcc.25833
  7. Caldeweyher, E.; Mewes, J.; Ehlert, S.; Grimme, S.
     Extension and evaluation of the D4 London-dispersion model for periodic systems
     Phys. Chem. Chem. Phys. 2020 22(16), 8499-8512
     doi.org/10.1039/D0CP00502A
  8. Garcia-Rates, M.; Neese, F.
     Effect of the Solute Cavity on the Solvation Energy and its Derivatives within the Framework of the Gaussian Charge Scheme
     J. Comput. Chem. 2020 41 , 922-939
     doi.org/10.1002/jcc.26139
  9. Helmich-Paris, B.; de Souza, B.; Neese, F.; Izsák, R.
     An improved chain of spheres for exchange algorithm
     J. Chem. Phys. 2021 155(10), 104109
     doi.org/10.1063/5.0058766
 10. Neese, F.
     The SHARK Integral Generation and Digestion System
     J. Comp. Chem. 2022 44(3), 381
     doi.org/10.1002/jcc.26942
 11. Wittmann, L.; Gordiy, I.; Friede, M.; Helmich-Paris, B.; Grimme, S.; Hansen, A.; Bursch, M.
     Extension of the D3 and D4 London Dispersion Corrections to the full Actinides Series
     Phys. Chem. Chem. Phys. 2024 26(32), 21379-21394
     doi.org/10.1039/D4CP01514B

List of suggested additional citations. These are papers that are important in the 'surrounding' of 
of this run, or papers that preceded the highly important papers. If you like your results we are grateful for a citation.

  1. Izsak, R.; Neese, F.
     An overlap fitted chain of spheres exchange method
     J. Chem. Phys. 2011 135 , 144105
     doi.org/10.1063/1.3646921
  2. Izsak, R.; Hansen, A.; Neese, F.
     The resolution of identity and chain of spheres approximations for the LPNO-CCSD singles Fock term
     Molec. Phys. 2012 110 , 2413-2417
     doi.org/10.1080/00268976.2012.687466
  3. Neese, F.
     The ORCA program system
     WIRES Comput. Molec. Sci. 2012 2(1), 73-78
     doi.org/10.1002/wcms.81
  4. Izsak, R.; Neese, F.; Klopper, W.
     Robust fitting techniques in the chain of spheres approximation to the Fock exchange: The role of the complementary space
     J. Chem. Phys. 2013 139 , 
     doi.org/10.1063/1.4819264
  5. Neese, F.
     Software update: the ORCA program system, version 4.0
     WIRES Comput. Molec. Sci. 2018 8(1), 1-6
     doi.org/10.1002/wcms.1327
  6. Neese, F.; Wennmohs, F.; Becker, U.; Riplinger, C.
     The ORCA quantum chemistry program package
     J. Chem. Phys. 2020 152(22), 224108
     doi.org/10.1063/5.0004608
  7. Neese, F.
     Software update: The ORCA program system—Version 5.0
     WIRES Comput. Molec. Sci. 2022 12(1), e1606
     doi.org/10.1002/wcms.1606

List of optional additional citations

  1. Neese, F.
     Approximate second-order SCF convergence for spin unrestricted wavefunctions
     Chem. Phys. Lett. 2000 325(1-3), 93-98
     doi.org/10.1016/s0009-2614(00)00662-x

Timings for individual modules:

Sum of individual times          ...     7365.042 sec (= 122.751 min)
Startup calculation              ...      354.968 sec (=   5.916 min)   4.8 %
SCF iterations                   ...     2399.866 sec (=  39.998 min)  32.6 %
Property integrals               ...     1060.730 sec (=  17.679 min)  14.4 %
SCF Response                     ...     2294.650 sec (=  38.244 min)  31.2 %
Property calculations            ...      531.208 sec (=   8.853 min)   7.2 %
SCF Gradient evaluation          ...      721.146 sec (=  12.019 min)   9.8 %
Geometry relaxation              ...        2.474 sec (=   0.041 min)   0.0 %
                             ****ORCA TERMINATED NORMALLY****
TOTAL RUN TIME: 0 days 2 hours 7 minutes 30 seconds 397 msec
