
                                 *****************
                                 * O   R   C   A *
                                 *****************

                                            #,                                       
                                            ###                                      
                                            ####                                     
                                            #####                                    
                                            ######                                   
                                           ########,                                 
                                     ,,################,,,,,                         
                               ,,#################################,,                 
                          ,,##########################################,,             
                       ,#########################################, ''#####,          
                    ,#############################################,,   '####,        
                  ,##################################################,,,,####,       
                ,###########''''           ''''###############################       
              ,#####''   ,,,,##########,,,,          '''####'''          '####       
            ,##' ,,,,###########################,,,                        '##       
           ' ,,###''''                  '''############,,,                           
         ,,##''                                '''############,,,,        ,,,,,,###''
      ,#''                                            '''#######################'''  
     '                                                          ''''####''''         
             ,#######,   #######,   ,#######,      ##                                
            ,#'     '#,  ##    ##  ,#'     '#,    #''#        ,####,    ,#,          
            ##       ##  ##   ,#'  ##            #'  '#       #'       ,# #          
            ##       ##  #######   ##           ,######,      #####,      #          
            '#,     ,#'  ##    ##  '#,     ,#' ,#      #,     #,   #      #          
             '#######'   ##     ##  '#######'  #'      '#     '####' #    #          



                #########################################################
                #                        -***-                          #
                #          Department of theory and spectroscopy        #
                #                                                       #
                #                      Frank Neese                      #
                #                                                       #
                #     Directorship, Architecture, Infrastructure        #
                #                    SHARK, DRIVERS                     #
                #        Core code/Algorithms in most modules           #
                #                                                       #
                #        Max Planck Institute fuer Kohlenforschung      #
                #                Kaiser Wilhelm Platz 1                 #
                #                 D-45470 Muelheim/Ruhr                 #
                #                      Germany                          #
                #                                                       #
                #                  All rights reserved                  #
                #                        -***-                          #
                #########################################################


                         Program Version 6.1.0-f.0  -   RELEASE   -


 With contributions from (in alphabetic order):
[Max-Planck-Institut fuer Kohlenforschung]                               
  Daniel Aravena         : Magnetic Suceptibility                        
  Michael Atanasov       : Ab Initio Ligand Field Theory (pilot matlab implementation)
  Alexander A. Auer      : GIAO ZORA, VPT2 properties, NMR spectrum      
  Ute Becker             : All parallelization in ORCA, NUMFREQ, NUMCALC 
  Giovanni Bistoni       : ED, misc. LED, open-shell LED, HFLD           
  Dmytro Bykov           : pre 5.0 version of the SCF Hessian            
  Marcos Casanova-Páez   : Triplet and SCS-CIS(D). UHF-(DLPNO)-IP/EA/STEOM-CCSD. UHF-CVS-IP/STEOM-CCSD   
  Vijay G. Chilkuri      : MRCI spin determinant printing, contributions to CSF-ICE 
  Pauline Colinet        : FMM embedding                                 
  Dipayan Datta          : RHF DLPNO-CCSD density                        
  Achintya Kumar Dutta   : EOM-CC, STEOM-CC                              
  Nicolas Foglia         : Exact transition moments, OPA infrastructure, MCD improvements    
  Dmitry Ganyushin       : Spin-Orbit,Spin-Spin,Magnetic field MRCI      
  Miquel Garcia-Rates    : C-PCM and meta-GGA Hessian, CCSD/C-PCM, Gaussian charge scheme 
  Tiago L. C. Gouveia    : GS-ROHF, GS-ROCIS                             
  Yang Guo               : DLPNO-NEVPT2, F12-NEVPT2, CIM, IAO-localization        
  Andreas Hansen         : Spin unrestricted coupled pair/coupled cluster methods 
  Ingolf Harden          : AUTO-CI MPn and infrastructure                
  Benjamin Helmich-Paris : MC-RPA, TRAH-(SCF,CASSCF), AVAS, COSX integrals, SCF dyn. polar., MC-PDFT, srDFT 
  Lee Huntington         : MR-EOM, pCC                                   
  Robert Izsak           : Overlap fitted RIJCOSX, COSX-SCS-MP3, EOM     
  Riya Kayal             : Wick's Theorem for AUTO-CI, AUTO-CI UHF-CCSDT 
  Emily Kempfer          : AUTO-CI RHF CISDT and CCSDT, approximate NEVPT4
  Christian Kollmar      : KDIIS, OOCD, Brueckner-CCSD(T), CCSD density, CASPT2, CASPT2-K, improved NEVPT2 
  Axel Koslowski         : Symmetry handling                             
  Simone Kossmann        : meta-GGA functionals, TD-DFT gradient, OOMP2, (MP2 Hessian; deprecated post 5.0) 
  Lucas Lang             : DCDCAS, Hyperfine gauge corrections, ICE-SOC+SSC
  Marvin Lechner         : AUTO-CI (C++ implementation), FIC-MRCC        
  Spencer Leger          : CASSCF response                               
  Dagmar Lenk            : GEPOL surface, SMD, ORCA-2-JSON               
  Dimitrios Liakos       : Extrapolation schemes; Compound Job, Property file
  Dimitrios Manganas     : Further ROCIS development; embedding schemes. LFT, Crystal Embedding 
  Dimitrios Pantazis     : SARC Basis sets                               
  Anastasios Papadopoulos: AUTO-CI, single reference methods and gradients 
  Taras Petrenko         : pre 6.0 DFT Hessian and TD-DFT gradient,  ECA, NRVS 
  Petra Pikulova         : Analytic Raman intensities                    
  Peter Pinski           : DLPNO-MP2, DLPNO-MP2 Gradient                 
  Shashank Vittal Rao    : ES-AILFT, MagRelax                            
  Christoph Reimann      : Effective Core Potentials                     
  Marius Retegan         : Local ZFS, SOC                                
  Christoph Riplinger    : Optimizer, TS searches, QM/MM, DLPNO-CCSD(T), (RO)-DLPNO pert. Triples 
  Michael Roemelt        : Original ROCIS implementation, recursive CI coupling coefficients
  Masaaki Saitow         : Open-shell DLPNO-CCSD energy and density      
  Barbara Sandhoefer     : DKH picture change effects                    
  Yorick L. A. Schmerwitz: GMF and freeze-and-release deltaSCF, NEB S-IDPP initial path                    
  Kantharuban Sivalingam : CASSCF convergence/infrastructure, NEVPT2, NEVPT3, NEVPT4(SD), FIC-MRCI and CEPA variants
  Bernardo de Souza      : ESD, SOC TD-DFT                               
  Georgi L. Stoychev     : AutoAux, RI-MP2 NMR, DLPNO-MP2 response, X2C  
  Van Anh Tran           : RI-MP2 g-tensors                              
  Willem Van den Heuvel  : Paramagnetic NMR                              
  Zikuan Wang            : NOTCH, Electric field optimization            
  Frank Wennmohs         : Technical directorship and infrastructure     
  Hang Xu                : AUTO-CI-Response properties                   
                                                                         
[FACCTs GmbH]                                                            
  Markus Bursch, Nicolas Foglia, Miquel Garcia-Rates, Ingolf Harden, Hagen Neugebauer, Anastasios Papadopoulos, 
  Christoph Riplinger, Bernardo de Souza, Georgi L. Stoychev                                                    
                                                                 
  APM, various basis sets, CI-OPT, improved COSX, DLPNO-Multilevel,           
  DOCKER, DRACO, updates on ESD, Fragmentator, GOAT, IRC, LR-CPCM, L-BFGS, MBIS, meta-GGA TD-DFT gradient, ML-optimized integration grids, 
  MM, NACMEs, nearIR, NEB, NEB-TS, NL-DFT gradient (VV10), 2- and 3-layer-ONIOM, interface openCOSMO-RS, QMMM,   
  Crystal-QMMM, RESP, rigid body optimization, SF, symmetry and pop. for TD-DFT, various functionals, SOLVATOR                                   
                                                                         
[Other institutions]                                                     
  V. Asgeirsson          : NEB                                           
  Christoph Bannwarth    : sTDA-DFT, sTD-DFT, PBEh-3c, B97-3c, D3        
  Giovanni Bistoni       : ETS/NOCV, ADLD/ADEX, COVALED                  
  Martin Brehm           : Molecular dynamics                            
  Ronald Cardenas        : ETS/NOCV                                      
  Martina Colucci        : COVALED                                       
  Sebastian Ehlert       : rSCAN, r2SCAN, r2SCAN-3c, D4, dhf basis sets  
  Marvin Friede          : D4 for Fr, Ra, Ac-Lr                          
  Lars Goerigk           : TD-DFT with DH, B97 family of functionals     
  Stefan Grimme          : VdW corrections, initial TS optimization, DFT functionals, gCP, sTDA/sTD-DF 
  Waldemar Hujo          : DFT-NL                                        
  H. Jonsson             : NEB                                           
  Holger Kruse           : gCP                                           
  Marcel Mueller         : wB97X-3c, vDZP basis set                      
  Hagen Neugebauer       : wr2SCAN, Native XTB                           
  Gianluca Regni         : ADLD/ADEX                                     
  Tobias Risthaus        : pre 6.0 range-separated hybrid DFT and stability analysis
  Lukas Wittmann         : regularized MP2, r2SCAN double-hybrids, wr2SCAN        
                                                                         
We gratefully acknowledge several colleagues who have allowed us to      
interface, adapt or use parts of their codes:                            
  Ed Valeev, F. Pavosevic, A. Kumar             : LibInt (2-el integral package), F12 methods 
  Garnet Chan, S. Sharma, J. Yang, R. Olivares  : DMRG                   
  Ulf Ekstrom                                   : XCFun DFT Library      
  Mihaly Kallay                                 : mrcc  (arbitrary order and MRCC methods)
  Frank Weinhold                                : gennbo (NPA and NBO analysis)           
  Simon Mueller                                 : openCOSMO-RS                            
  Christopher J. Cramer and Donald G. Truhlar   : smd solvation model                     
  S Lehtola, MJT Oliveira, MAL Marques          : LibXC Library                           
  Liviu Ungur et al                             : ANISO software                          


 Your calculation uses the libint2 library for the computation of 2-el integrals
 For citations please refer to: http://libint.valeyev.net

 Your ORCA version has been built with support for libXC version: 7.0.0
 For citations please refer to: https://libxc.gitlab.io

 This ORCA versions uses:
   CBLAS   interface :  Fast vector & matrix operations
   LAPACKE interface :  Fast linear algebra routines
   SCALAPACK package :  Parallel linear algebra routines
   Shared memory     :  Shared parallel matrices
   BLAS/LAPACK       :  OpenBLAS 0.3.29  USE64BITINT DYNAMIC_ARCH NO_AFFINITY Cooperlake SINGLE_THREADED
        Core in use  :  Cooperlake
   Copyright (c) 2011-2014, The OpenBLAS Project


  ***********************************
  * Starting time: Wed Mar  4 02:09:09 2026
  * Host name:     c01b01n01
  * Process ID:    519417
  * Working dir.:  /lustre1/jiangy/jiangy_liuxy/NMR/B9D7C2-RSSR
  ***********************************

NOTE: MaxCore=6000 MB was set to SCF,MP2,MDCI,CIPSI,MRCI,RASCI and CIS
      => If you want to overwrite this, your respective input block should be placed after the MaxCore statement


***************************************
The coordinates will be read from file: conf-3.xyz
***************************************


Your calculation utilizes the atom-pairwise dispersion correction
based on EEQ partial charges (D4)


Warning: RI is on but no J-basis has been assigned. Assigning Def2/J (nothing to worry about!)
================================================================================

----- Orbital basis set information -----
Your calculation utilizes the basis: def2-TZVP
   F. Weigend and R. Ahlrichs, Phys. Chem. Chem. Phys. 7, 3297 (2005).

----- AuxJ basis set information -----
Your calculation utilizes the auxiliary basis: def2/J
   H-Rn: F. Weigend, Phys. Chem. Chem. Phys. 8, 1057 (2006).
   Fr-Lr: K. Eichkorn, F. Weigend, O. Treutler, R. Ahlrichs; Theor. Chem. Acc. 97, 119 (1997).

================================================================================
                                        WARNINGS
                       Please study these warnings very carefully!
================================================================================


WARNING: Geometry Optimization
  ===> : Switching off AutoStart
         For restart on a previous wavefunction, please use MOREAD

================================================================================
                                       INPUT FILE
================================================================================
NAME = opt-conf-3.inp
|  1> ! B3LYP OPT FREQ DEF2-TZVP D4 CPCM(Methanol) 
|  2> ! TightOpt
|  3> %pal nprocs 64 end
|  4> %maxcore 6000
|  5> 
|  6> %cpcm
|  7> end
|  8> 
|  9> %freq
| 10>    Temp 298.15
| 11> end
| 12> 
| 13> * xyzfile 0 1 conf-3.xyz
| 14> 
| 15> 
| 16>                          ****END OF INPUT****
================================================================================

                       *****************************
                       * Geometry Optimization Run *
                       *****************************

Geometry optimization settings:
Update method            Update   .... BFGS
Choice of coordinates    CoordSys .... (2022) Redundant Internals
Initial Hessian          InHess   .... Almloef's Model
Max. no of cycles        MaxIter  .... 246

Convergence Tolerances:
Energy Change            TolE     ....  1.0000e-06 Eh
Max. Gradient            TolMAXG  ....  1.0000e-04 Eh/bohr
RMS Gradient             TolRMSG  ....  3.0000e-05 Eh/bohr
Max. Displacement        TolMAXD  ....  1.0000e-03 bohr
RMS Displacement         TolRMSD  ....  6.0000e-04 bohr
Strict Convergence                .... False

------------------------------------------------------------------------------
                        ORCA OPTIMIZATION COORDINATE SETUP
------------------------------------------------------------------------------

The optimization will be done in redundant internal coordinates (2022)
Making redundant internal coordinates   ...  (2022 redundants) done
Evaluating the initial hessian          ...  (Almloef) done
Evaluating the coordinates              ...  done
Calculating the B-matrix                .... done
Calculating the G-matrix                .... done
The number of degrees of freedom        ....  405

    -----------------------------------------------------------------
                    Redundant Internal Coordinates


    -----------------------------------------------------------------
         Definition                    Initial Value    Approx d2E/dq
    -----------------------------------------------------------------
      1. B(C   1,C   0)                  1.4045         0.592467   
      2. B(C   2,C   1)                  1.4020         0.597938   
      3. B(C   3,C   2)                  1.3902         0.624236   
      4. B(C   4,C   3)                  1.3838         0.639090   
      5. B(C   5,C   0)                  1.3861         0.633891   
      6. B(C   5,C   4)                  1.3867         0.632412   
      7. B(C   6,C   4)                  1.5020         0.414048   
      8. B(C   7,C   6)                  1.5356         0.365997   
      9. B(C   8,C   7)                  1.5404         0.359539   
     10. B(C   9,C   8)                  1.5377         0.363178   
     11. B(C  10,C   9)                  1.5044         0.410410   
     12. B(C  11,C  10)                  1.3934         0.616994   
     13. B(C  12,C  11)                  1.3816         0.644361   
     14. B(C  13,C  12)                  1.4054         0.590463   
     15. B(C  14,C  13)                  1.3823         0.642696   
     16. B(C  15,C  10)                  1.3854         0.635352   
     17. B(C  15,C  14)                  1.3862         0.633571   
     18. B(C  16,C   7)                  1.5359         0.365526   
     19. B(C  17,C   8)                  1.5356         0.365903   
     20. B(O  18,C   2)                  1.3699         0.602448   
     21. B(O  19,C   0)                  1.3632         0.617478   
     22. B(O  20,C   1)                  1.3757         0.589679   
     23. B(O  21,C  13)                  1.3615         0.621467   
     24. B(O  22,C  12)                  1.3790         0.582619   
     25. B(C  23,O  20)                  1.4149         0.510627   
     26. B(C  24,C  23)                  1.5538         0.342349   
     27. B(C  25,C  24)                  1.5085         0.404211   
     28. B(C  26,C  23)                  1.5380         0.362769   
     29. B(O  27,C  26)                  1.4008         0.537789   
     30. B(C  28,C  25)                  1.3900         0.624843   
     31. B(C  29,C  28)                  1.3822         0.642863   
     32. B(C  30,C  29)                  1.4031         0.595415   
     33. B(C  31,C  30)                  1.3819         0.643693   
     34. B(C  32,C  31)                  1.3843         0.638014   
     35. B(C  32,C  25)                  1.3865         0.632888   
     36. B(C  33,O  19)                  1.4069         0.525955   
     37. B(C  34,O  18)                  1.4071         0.525561   
     38. B(C  35,O  22)                  1.4077         0.524429   
     39. B(O  36,C  24)                  1.4182         0.504599   
     40. B(O  37,C  16)                  1.4082         0.523394   
     41. B(O  38,C  17)                  1.4061         0.527528   
     42. B(O  39,C  29)                  1.3727         0.596365   
     43. B(O  40,C  30)                  1.3673         0.608339   
     44. B(C  41,O  39)                  1.4098         0.520415   
     45. B(H  42,C   3)                  1.0778         0.376662   
     46. B(H  43,C   5)                  1.0778         0.376562   
     47. B(H  44,C   6)                  1.0900         0.360096   
     48. B(H  45,C   6)                  1.0912         0.358549   
     49. B(H  46,C   7)                  1.0968         0.351207   
     50. B(H  47,C   8)                  1.0970         0.350984   
     51. B(H  48,C   9)                  1.0945         0.354255   
     52. B(H  49,C   9)                  1.0915         0.358107   
     53. B(H  50,C  11)                  1.0773         0.377277   
     54. B(H  51,C  14)                  1.0785         0.375695   
     55. B(H  52,C  15)                  1.0801         0.373413   
     56. B(H  53,C  16)                  1.0914         0.358286   
     57. B(H  54,C  16)                  1.0981         0.349592   
     58. B(H  55,C  17)                  1.1021         0.344466   
     59. B(H  56,C  17)                  1.0915         0.358089   
     60. B(H  57,O  21)                  0.9672         0.506456   
     61. B(H  57,O  22)                  2.1122         0.010000   
     62. B(H  58,C  23)                  1.0955         0.352882   
     63. B(H  59,C  24)                  1.0950         0.353556   
     64. B(H  60,C  26)                  1.0996         0.347607   
     65. B(H  61,C  26)                  1.0923         0.357109   
     66. B(H  62,O  36)                  1.9975         0.011499   
     67. B(H  62,O  27)                  0.9700         0.501224   
     68. B(H  63,C  28)                  1.0773         0.377260   
     69. B(H  64,C  31)                  1.0781         0.376257   
     70. B(H  65,C  32)                  1.0806         0.372757   
     71. B(H  66,C  33)                  1.0896         0.360655   
     72. B(H  67,C  33)                  1.0947         0.353911   
     73. B(H  68,C  33)                  1.0955         0.352921   
     74. B(H  69,H  64)                  4.4221         0.010000   
     75. B(H  69,C  34)                  1.0951         0.353430   
     76. B(H  70,C  34)                  1.0939         0.355023   
     77. B(H  71,C  34)                  1.0892         0.361194   
     78. B(H  72,C  35)                  1.0888         0.361726   
     79. B(H  73,C  35)                  1.0940         0.354844   
     80. B(H  74,H  64)                  4.9371         0.010000   
     81. B(H  74,C  35)                  1.0940         0.354886   
     82. B(H  75,O  36)                  0.9647         0.511129   
     83. B(H  76,O  40)                  1.9722         0.012619   
     84. B(H  76,O  37)                  0.9696         0.501947   
     85. B(H  77,O  38)                  0.9645         0.511406   
     86. B(H  78,O  39)                  2.0985         0.010000   
     87. B(H  78,O  40)                  0.9690         0.502954   
     88. B(H  79,C  41)                  1.0942         0.354544   
     89. B(H  80,H  68)                  2.4796         0.010000   
     90. B(H  80,C  41)                  1.0924         0.356998   
     91. B(H  81,O  21)                  2.3678         0.010000   
     92. B(H  81,C  41)                  1.0887         0.361822   
     93. A(C   1,C   0,O  19)          115.7296         0.427414   
     94. A(C   5,C   0,O  19)          124.0631         0.432630   
     95. A(C   1,C   0,C   5)          120.2073         0.432254   
     96. A(C   0,C   1,O  20)          116.8602         0.423904   
     97. A(C   0,C   1,C   2)          118.9325         0.427747   
     98. A(C   2,C   1,O  20)          123.9914         0.424601   
     99. A(C   3,C   2,O  18)          123.2875         0.429534   
    100. A(C   1,C   2,C   3)          119.8029         0.431776   
    101. A(C   1,C   2,O  18)          116.9095         0.426232   
    102. A(C   4,C   3,H  42)          118.7278         0.357445   
    103. A(C   2,C   3,H  42)          120.2903         0.356020   
    104. A(C   2,C   3,C   4)          120.9770         0.436979   
    105. A(C   5,C   4,C   6)          119.2934         0.405347   
    106. A(C   3,C   4,C   6)          121.2742         0.406100   
    107. A(C   3,C   4,C   5)          119.4109         0.438005   
    108. A(C   4,C   5,H  43)          118.7316         0.356791   
    109. A(C   0,C   5,H  43)          120.6214         0.356933   
    110. A(C   0,C   5,C   4)          120.6427         0.437360   
    111. A(C   4,C   6,H  44)          110.4669         0.329861   
    112. A(C   7,C   6,H  45)          109.0827         0.323001   
    113. A(C   4,C   6,C   7)          110.2039         0.368514   
    114. A(H  44,C   6,H  45)          108.6725         0.290642   
    115. A(C   4,C   6,H  45)          108.8877         0.329626   
    116. A(C   7,C   6,H  44)          109.4930         0.323229   
    117. A(C   6,C   7,C  16)          110.1465         0.360739   
    118. A(C   8,C   7,C  16)          110.7799         0.359646   
    119. A(C  16,C   7,H  46)          106.7214         0.321840   
    120. A(C   8,C   7,H  46)          106.7348         0.320971   
    121. A(C   6,C   7,H  46)          107.8046         0.321908   
    122. A(C   6,C   7,C   8)          114.2750         0.359725   
    123. A(C   7,C   8,C  17)          114.4721         0.359709   
    124. A(C  17,C   8,H  47)          107.3017         0.321861   
    125. A(C   7,C   8,C   9)          111.3934         0.359252   
    126. A(C   9,C   8,H  47)          108.5854         0.321467   
    127. A(C   7,C   8,H  47)          106.0073         0.320938   
    128. A(C   9,C   8,C  17)          108.8279         0.360327   
    129. A(H  48,C   9,H  49)          107.2253         0.289841   
    130. A(C  10,C   9,H  48)          108.6646         0.328492   
    131. A(C  10,C   9,H  49)          109.1560         0.329079   
    132. A(C   8,C   9,C  10)          113.8775         0.367469   
    133. A(C   8,C   9,H  48)          108.4185         0.321956   
    134. A(C   8,C   9,H  49)          109.2872         0.322527   
    135. A(C   9,C  10,C  11)          120.1889         0.402957   
    136. A(C  11,C  10,C  15)          118.7903         0.435600   
    137. A(C   9,C  10,C  15)          121.0116         0.405048   
    138. A(C  10,C  11,C  12)          120.7184         0.436707   
    139. A(C  10,C  11,H  50)          119.2042         0.355414   
    140. A(C  12,C  11,H  50)          120.0772         0.358044   
    141. A(C  11,C  12,C  13)          119.9516         0.433265   
    142. A(C  13,C  12,O  22)          114.5464         0.422736   
    143. A(C  11,C  12,O  22)          125.5019         0.429400   
    144. A(C  12,C  13,O  21)          120.1793         0.427648   
    145. A(C  12,C  13,C  14)          119.2936         0.433063   
    146. A(C  14,C  13,O  21)          120.5269         0.434207   
    147. A(C  13,C  14,H  51)          118.6600         0.357631   
    148. A(C  13,C  14,C  15)          120.1575         0.438594   
    149. A(C  15,C  14,H  51)          121.1791         0.356763   
    150. A(C  14,C  15,H  52)          119.1556         0.356394   
    151. A(C  10,C  15,H  52)          119.7816         0.356564   
    152. A(C  10,C  15,C  14)          121.0520         0.437686   
    153. A(O  37,C  16,H  54)          110.6389         0.339210   
    154. A(C   7,C  16,H  54)          108.4616         0.321597   
    155. A(O  37,C  16,H  53)          106.4268         0.340605   
    156. A(C   7,C  16,H  53)          110.4729         0.322894   
    157. A(C   7,C  16,O  37)          112.3168         0.381230   
    158. A(H  53,C  16,H  54)          108.4589         0.289262   
    159. A(O  38,C  17,H  56)          105.5173         0.341022   
    160. A(C   8,C  17,O  38)          114.3295         0.381820   
    161. A(H  55,C  17,H  56)          107.7732         0.288569   
    162. A(C   8,C  17,H  56)          110.9349         0.322920   
    163. A(O  38,C  17,H  55)          109.7694         0.338819   
    164. A(C   8,C  17,H  55)          108.3249         0.320875   
    165. A(C   2,O  18,C  34)          118.7656         0.413832   
    166. A(C   0,O  19,C  33)          117.7436         0.415704   
    167. A(C   1,O  20,C  23)          118.9686         0.410158   
    168. A(C  13,O  21,H  57)          107.5655         0.368597   
    169. A(C  12,O  22,C  35)          118.0387         0.411223   
    170. A(C  26,C  23,H  58)          108.3808         0.321692   
    171. A(C  24,C  23,H  58)          108.9485         0.318660   
    172. A(O  20,C  23,H  58)          111.3624         0.338343   
    173. A(C  24,C  23,C  26)          110.8142         0.356203   
    174. A(O  20,C  23,C  26)          106.5886         0.379104   
    175. A(O  20,C  23,C  24)          110.7137         0.375325   
    176. A(C  23,C  24,O  36)          110.6694         0.374556   
    177. A(O  36,C  24,H  59)          105.1746         0.337782   
    178. A(C  25,C  24,H  59)          109.5323         0.327562   
    179. A(C  23,C  24,H  59)          108.2647         0.318760   
    180. A(C  25,C  24,O  36)          112.0767         0.385496   
    181. A(C  23,C  24,C  25)          110.8964         0.362826   
    182. A(C  28,C  25,C  32)          119.4909         0.436288   
    183. A(C  24,C  25,C  32)          120.8648         0.403684   
    184. A(C  24,C  25,C  28)          119.6443         0.402774   
    185. A(O  27,C  26,H  61)          106.8371         0.341966   
    186. A(H  60,C  26,H  61)          108.4343         0.288855   
    187. A(C  23,C  26,H  61)          108.5904         0.322320   
    188. A(O  27,C  26,H  60)          111.3091         0.340427   
    189. A(C  23,C  26,H  60)          108.6756         0.320900   
    190. A(C  23,C  26,O  27)          112.8626         0.382527   
    191. A(C  26,O  27,H  62)          107.3892         0.358958   
    192. A(C  29,C  28,H  63)          120.6421         0.357899   
    193. A(C  25,C  28,H  63)          118.9011         0.356174   
    194. A(C  25,C  28,C  29)          120.4474         0.437519   
    195. A(C  30,C  29,O  39)          114.6908         0.425137   
    196. A(C  28,C  29,O  39)          125.7023         0.431021   
    197. A(C  28,C  29,C  30)          119.6060         0.433734   
    198. A(C  31,C  30,O  40)          120.4000         0.432664   
    199. A(C  29,C  30,O  40)          119.7303         0.426653   
    200. A(C  29,C  30,C  31)          119.8654         0.433835   
    201. A(C  32,C  31,H  64)          120.8635         0.357277   
    202. A(C  30,C  31,H  64)          119.1187         0.357816   
    203. A(C  30,C  31,C  32)          120.0157         0.439271   
    204. A(C  31,C  32,H  65)          118.7961         0.356710   
    205. A(C  25,C  32,H  65)          120.6703         0.356222   
    206. A(C  25,C  32,C  31)          120.5303         0.437931   
    207. A(H  67,C  33,H  68)          109.0891         0.289135   
    208. A(H  66,C  33,H  68)          109.6365         0.289992   
    209. A(O  19,C  33,H  68)          111.8902         0.340025   
    210. A(H  66,C  33,H  67)          108.9910         0.290119   
    211. A(O  19,C  33,H  67)          111.4511         0.340184   
    212. A(O  19,C  33,H  66)          105.6967         0.341259   
    213. A(H  69,C  34,H  71)          109.3170         0.290125   
    214. A(O  18,C  34,H  71)          105.3745         0.341302   
    215. A(H  69,C  34,H  70)          109.4848         0.289342   
    216. A(O  18,C  34,H  70)          111.5543         0.340319   
    217. A(O  18,C  34,H  69)          111.6913         0.340064   
    218. A(H  70,C  34,H  71)          109.3098         0.290330   
    219. A(H  73,C  35,H  74)          109.6820         0.289506   
    220. A(H  72,C  35,H  74)          109.4913         0.290379   
    221. A(O  22,C  35,H  74)          111.3481         0.340175   
    222. A(H  72,C  35,H  73)          109.2837         0.290374   
    223. A(O  22,C  35,H  73)          111.3245         0.340168   
    224. A(O  22,C  35,H  72)          105.6118         0.341262   
    225. A(C  24,O  36,H  75)          108.4224         0.356275   
    226. A(C  16,O  37,H  76)          107.5629         0.357393   
    227. A(C  17,O  38,H  77)          108.3746         0.359010   
    228. A(C  29,O  39,C  41)          118.1573         0.412366   
    229. A(C  30,O  40,H  78)          107.3857         0.366812   
    230. A(H  80,C  41,H  81)          109.4864         0.290662   
    231. A(H  79,C  41,H  81)          109.9995         0.290348   
    232. A(O  39,C  41,H  81)          105.3062         0.340839   
    233. A(H  79,C  41,H  80)          109.4516         0.289737   
    234. A(O  39,C  41,H  80)          111.5626         0.340075   
    235. A(O  39,C  41,H  79)          110.9584         0.339684   
    236. D(O  20,C   1,C   0,O  19)     -3.6657         0.024166   
    237. D(C   2,C   1,C   0,O  19)   -178.5423         0.024166   
    238. D(C   2,C   1,C   0,C   5)      1.5127         0.024166   
    239. D(O  20,C   1,C   0,C   5)    176.3893         0.024166   
    240. D(O  18,C   2,C   1,C   0)    178.2042         0.024638   
    241. D(C   3,C   2,C   1,C   0)     -1.9386         0.024638   
    242. D(C   3,C   2,C   1,O  20)   -176.4248         0.024638   
    243. D(O  18,C   2,C   1,O  20)      3.7180         0.024638   
    244. D(C   4,C   3,C   2,C   1)      1.0770         0.026987   
    245. D(H  42,C   3,C   2,O  18)      0.1040         0.026987   
    246. D(C   4,C   3,C   2,O  18)   -179.0753         0.026987   
    247. D(H  42,C   3,C   2,C   1)   -179.7437         0.026987   
    248. D(C   6,C   4,C   3,H  42)      2.7559         0.028372   
    249. D(C   5,C   4,C   3,H  42)   -178.9423         0.028372   
    250. D(C   5,C   4,C   3,C   2)      0.2496         0.028372   
    251. D(C   6,C   4,C   3,C   2)   -178.0522         0.028372   
    252. D(H  43,C   5,C   4,C   6)     -1.5935         0.027744   
    253. D(H  43,C   5,C   4,C   3)   -179.9292         0.027744   
    254. D(C   0,C   5,C   4,C   3)     -0.6892         0.027744   
    255. D(C   4,C   5,C   0,O  19)    179.8572         0.027882   
    256. D(H  43,C   5,C   0,C   1)    179.0231         0.027882   
    257. D(H  43,C   5,C   0,O  19)     -0.9171         0.027882   
    258. D(C   0,C   5,C   4,C   6)    177.6466         0.027744   
    259. D(C   4,C   5,C   0,C   1)     -0.2026         0.027882   
    260. D(H  45,C   6,C   4,C   3)   -136.5854         0.012688   
    261. D(H  44,C   6,C   4,C   5)    164.3773         0.012688   
    262. D(H  44,C   6,C   4,C   3)    -17.3189         0.012688   
    263. D(C   7,C   6,C   4,C   5)    -74.4997         0.012688   
    264. D(C   7,C   6,C   4,C   3)    103.8041         0.012688   
    265. D(C   8,C   7,C   6,H  44)    -77.4158         0.010723   
    266. D(C   8,C   7,C   6,C   4)    160.8814         0.010723   
    267. D(C  16,C   7,C   6,H  45)    166.8404         0.010723   
    268. D(C  16,C   7,C   6,H  44)     48.0355         0.010723   
    269. D(C   8,C   7,C   6,H  45)     41.3892         0.010723   
    270. D(C  16,C   7,C   6,C   4)    -73.6673         0.010723   
    271. D(C  17,C   8,C   7,H  46)    164.2325         0.010373   
    272. D(C  17,C   8,C   7,C  16)    -79.9540         0.010373   
    273. D(C  17,C   8,C   7,C   6)     45.1632         0.010373   
    274. D(C   9,C   8,C   7,C  16)    156.0505         0.010373   
    275. D(C   9,C   8,C   7,H  46)     40.2370         0.010373   
    276. D(C   9,C   8,C   7,C   6)    -78.8323         0.010373   
    277. D(H  48,C   9,C   8,C  17)     58.0350         0.010569   
    278. D(H  48,C   9,C   8,C   7)   -174.8341         0.010569   
    279. D(C  10,C   9,C   8,H  47)     62.6215         0.010569   
    280. D(C  10,C   9,C   8,C  17)    179.1190         0.010569   
    281. D(H  48,C   9,C   8,H  47)    -58.4624         0.010569   
    282. D(C  10,C   9,C   8,C   7)    -53.7502         0.010569   
    283. D(C  15,C  10,C   9,H  48)   -112.2208         0.012474   
    284. D(C  15,C  10,C   9,C   8)    126.8326         0.012474   
    285. D(C  11,C  10,C   9,H  49)   -176.7101         0.012474   
    286. D(C  11,C  10,C   9,H  48)     66.6596         0.012474   
    287. D(C  11,C  10,C   9,C   8)    -54.2870         0.012474   
    288. D(H  50,C  11,C  10,C  15)   -179.8509         0.026327   
    289. D(H  50,C  11,C  10,C   9)      1.2440         0.026327   
    290. D(C  12,C  11,C  10,C  15)     -0.0042         0.026327   
    291. D(C  12,C  11,C  10,C   9)   -178.9093         0.026327   
    292. D(O  22,C  12,C  11,H  50)      1.4254         0.028874   
    293. D(C  13,C  12,C  11,H  50)   -178.4921         0.028874   
    294. D(O  22,C  12,C  11,C  10)   -178.4200         0.028874   
    295. D(C  13,C  12,C  11,C  10)      1.6625         0.028874   
    296. D(O  21,C  13,C  12,C  11)    177.7795         0.023995   
    297. D(C  14,C  13,C  12,O  22)    178.0087         0.023995   
    298. D(C  14,C  13,C  12,C  11)     -2.0652         0.023995   
    299. D(O  21,C  13,C  12,O  22)     -2.1467         0.023995   
    300. D(H  51,C  14,C  13,O  21)      0.3076         0.028715   
    301. D(H  51,C  14,C  13,C  12)   -179.8482         0.028715   
    302. D(C  15,C  14,C  13,O  21)   -179.0232         0.028715   
    303. D(C  15,C  14,C  13,C  12)      0.8209         0.028715   
    304. D(H  52,C  15,C  14,H  51)      0.3363         0.027852   
    305. D(H  52,C  15,C  14,C  13)    179.6501         0.027852   
    306. D(C  10,C  15,C  14,H  51)   -178.4635         0.027852   
    307. D(C  10,C  15,C  14,C  13)      0.8502         0.027852   
    308. D(H  52,C  15,C  10,C  11)    179.9444         0.028020   
    309. D(H  52,C  15,C  10,C   9)     -1.1598         0.028020   
    310. D(C  14,C  15,C  10,C  11)     -1.2631         0.028020   
    311. D(C  14,C  15,C  10,C   9)    177.6326         0.028020   
    312. D(H  53,C  16,C   7,H  46)    174.2703         0.010697   
    313. D(H  53,C  16,C   7,C   8)     58.4485         0.010697   
    314. D(H  53,C  16,C   7,C   6)    -68.9671         0.010697   
    315. D(O  37,C  16,C   7,H  46)     55.6147         0.010697   
    316. D(O  37,C  16,C   7,C   8)    -60.2071         0.010697   
    317. D(O  37,C  16,C   7,C   6)    172.3773         0.010697   
    318. D(H  55,C  17,C   8,H  47)     66.7336         0.010718   
    319. D(H  55,C  17,C   8,C   9)    -50.5830         0.010718   
    320. D(H  55,C  17,C   8,C   7)   -175.9365         0.010718   
    321. D(O  38,C  17,C   8,H  47)    -56.0031         0.010718   
    322. D(O  38,C  17,C   8,C   9)   -173.3196         0.010718   
    323. D(O  38,C  17,C   8,C   7)     61.3268         0.010718   
    324. D(C  34,O  18,C   2,C   3)      4.6109         0.026522   
    325. D(C  34,O  18,C   2,C   1)   -175.5373         0.026522   
    326. D(C  33,O  19,C   0,C   5)     -8.4348         0.027957   
    327. D(C  33,O  19,C   0,C   1)    171.6225         0.027957   
    328. D(C  23,O  20,C   1,C   2)    -53.8233         0.025340   
    329. D(C  23,O  20,C   1,C   0)    131.5856         0.025340   
    330. D(H  57,O  21,C  13,C  14)    179.2069         0.031286   
    331. D(H  57,O  21,C  13,C  12)     -0.6358         0.031286   
    332. D(C  35,O  22,C  12,C  13)   -177.7597         0.027242   
    333. D(C  35,O  22,C  12,C  11)      2.3189         0.027242   
    334. D(H  58,C  23,O  20,C   1)     37.0261         0.020643   
    335. D(C  26,C  23,O  20,C   1)    155.0485         0.020643   
    336. D(C  24,C  23,O  20,C   1)    -84.3516         0.020643   
    337. D(O  36,C  24,C  23,H  58)     56.8316         0.010000   
    338. D(O  36,C  24,C  23,C  26)    -62.3244         0.010000   
    339. D(O  36,C  24,C  23,O  20)    179.6226         0.010000   
    340. D(C  25,C  24,C  23,H  58)    -68.1993         0.010000   
    341. D(C  25,C  24,C  23,C  26)    172.6447         0.010000   
    342. D(C  25,C  24,C  23,O  20)     54.5917         0.010000   
    343. D(C  32,C  25,C  24,O  36)    -60.9869         0.012115   
    344. D(C  32,C  25,C  24,C  23)     63.2466         0.012115   
    345. D(C  28,C  25,C  24,H  59)      2.5777         0.012115   
    346. D(C  28,C  25,C  24,O  36)    118.9117         0.012115   
    347. D(C  28,C  25,C  24,C  23)   -116.8548         0.012115   
    348. D(H  60,C  26,C  23,H  58)   -176.1241         0.010547   
    349. D(H  60,C  26,C  23,C  24)    -56.6268         0.010547   
    350. D(H  60,C  26,C  23,O  20)     63.9086         0.010547   
    351. D(O  27,C  26,C  23,H  58)    -52.1498         0.010547   
    352. D(O  27,C  26,C  23,C  24)     67.3475         0.010547   
    353. D(O  27,C  26,C  23,O  20)   -172.1171         0.010547   
    354. D(H  62,O  27,C  26,H  61)   -171.9762         0.022999   
    355. D(H  62,O  27,C  26,H  60)     69.8161         0.022999   
    356. D(H  62,O  27,C  26,C  23)    -52.6963         0.022999   
    357. D(H  63,C  28,C  25,C  32)    179.0232         0.027042   
    358. D(H  63,C  28,C  25,C  24)     -0.8768         0.027042   
    359. D(C  29,C  28,C  25,C  32)     -2.0864         0.027042   
    360. D(C  29,C  28,C  25,C  24)    178.0136         0.027042   
    361. D(C  30,C  29,C  28,H  63)    179.5786         0.028731   
    362. D(C  30,C  29,C  28,C  25)      0.7077         0.028731   
    363. D(O  39,C  29,C  28,H  63)     -0.7790         0.028731   
    364. D(O  39,C  29,C  28,C  25)   -179.6500         0.028731   
    365. D(O  40,C  30,C  29,O  39)      0.7719         0.024420   
    366. D(O  40,C  30,C  29,C  28)   -179.5478         0.024420   
    367. D(C  31,C  30,C  29,O  39)   -178.4823         0.024420   
    368. D(C  31,C  30,C  29,C  28)      1.1980         0.024420   
    369. D(H  64,C  31,C  30,O  40)     -1.4748         0.028810   
    370. D(H  64,C  31,C  30,C  29)    177.7743         0.028810   
    371. D(C  32,C  31,C  30,O  40)    179.0405         0.028810   
    372. D(C  32,C  31,C  30,C  29)     -1.7104         0.028810   
    373. D(H  65,C  32,C  31,H  64)      1.5062         0.028270   
    374. D(H  65,C  32,C  31,C  30)   -179.0182         0.028270   
    375. D(C  25,C  32,C  31,H  64)   -179.1537         0.028270   
    376. D(C  25,C  32,C  31,C  30)      0.3218         0.028270   
    377. D(H  65,C  32,C  25,C  28)   -179.0969         0.027788   
    378. D(H  65,C  32,C  25,C  24)      0.8019         0.027788   
    379. D(C  31,C  32,C  25,C  28)      1.5755         0.027788   
    380. D(C  31,C  32,C  25,C  24)   -178.5257         0.027788   
    381. D(H  68,C  33,O  19,C   0)     65.5058         0.021953   
    382. D(H  67,C  33,O  19,C   0)    -56.9437         0.021953   
    383. D(H  66,C  33,O  19,C   0)   -175.2122         0.021953   
    384. D(H  71,C  34,O  18,C   2)    176.8362         0.021918   
    385. D(H  70,C  34,O  18,C   2)     58.3239         0.021918   
    386. D(H  69,C  34,O  18,C   2)    -64.5704         0.021918   
    387. D(H  74,C  35,O  22,C  12)     58.9535         0.023686   
    388. D(H  73,C  35,O  22,C  12)    -63.7824         0.023686   
    389. D(H  72,C  35,O  22,C  12)    177.7162         0.023686   
    390. D(H  75,O  36,C  24,H  59)    170.7603         0.021854   
    391. D(H  75,O  36,C  24,C  25)     51.8247         0.021854   
    392. D(H  75,O  36,C  24,C  23)    -72.5352         0.021854   
    393. D(H  76,O  37,C  16,H  54)     57.3146         0.021730   
    394. D(H  76,O  37,C  16,H  53)    174.9461         0.021730   
    395. D(H  76,O  37,C  16,C   7)    -64.0438         0.021730   
    396. D(H  77,O  38,C  17,H  56)    176.2941         0.022090   
    397. D(H  77,O  38,C  17,H  55)    -67.8296         0.022090   
    398. D(H  77,O  38,C  17,C   8)     54.1195         0.022090   
    399. D(C  41,O  39,C  29,C  30)    171.2054         0.028633   
    400. D(C  41,O  39,C  29,C  28)     -8.4524         0.028633   
    401. D(H  78,O  40,C  30,C  31)    178.3234         0.029880   
    402. D(H  78,O  40,C  30,C  29)     -0.9267         0.029880   
    403. D(H  81,C  41,O  39,C  29)    179.7977         0.023308   
    404. D(H  80,C  41,O  39,C  29)     61.1104         0.023308   
    405. D(H  79,C  41,O  39,C  29)    -61.2199         0.023308   
    -----------------------------------------------------------------

Number of atoms                         .... 82
Number of degrees of freedom            .... 405


         *************************************************************
         *                GEOMETRY OPTIMIZATION CYCLE   1            *
         *************************************************************
---------------------------------
CARTESIAN COORDINATES (ANGSTROEM)
---------------------------------
  C     21.476145  -32.040304   -1.582404
  C     21.033895  -32.297253   -2.890421
  C     19.659308  -32.440987   -3.125678
  C     18.765191  -32.368236   -2.063585
  C     19.208719  -32.133226   -0.773983
  C     20.565022  -31.962980   -0.540744
  C     18.253481  -32.096262    0.384532
  C     18.354893  -33.395240    1.197165
  C     17.791491  -33.293232    2.627228
  C     18.784579  -32.597772    3.573052
  C     20.154935  -33.218491    3.580648
  C     20.306257  -34.579475    3.838418
  C     21.561198  -35.156492    3.870210
  C     22.703959  -34.361910    3.675676
  C     22.553170  -33.013543    3.411189
  C     21.287000  -32.451969    3.356340
  C     17.693213  -34.550970    0.431955
  C     16.432928  -32.584264    2.726660
  O     19.271024  -32.652961   -4.422199
  O     22.821835  -31.881664   -1.433118
  O     21.986748  -32.283659   -3.882674
  O     23.944676  -34.917359    3.750874
  O     21.822723  -36.493433    4.084469
  C     22.029664  -33.354696   -4.806286
  C     22.848665  -34.543462   -4.231619
  C     22.311446  -34.966874   -2.887066
  C     22.685913  -32.806185   -6.084522
  O     22.636875  -33.710982   -7.152809
  C     23.115645  -34.854334   -1.758951
  C     22.626550  -35.198851   -0.512884
  C     21.313715  -35.679036   -0.392014
  C     20.528748  -35.827484   -1.519581
  C     21.025390  -35.469442   -2.761129
  C     23.295135  -31.446166   -0.181866
  C     17.896258  -32.707792   -4.716975
  C     20.728406  -37.365053    4.240289
  O     22.883798  -35.619668   -5.154510
  O     17.908624  -35.796252    1.053174
  O     15.395918  -33.217471    2.019076
  O     23.320850  -35.124126    0.668897
  O     20.824225  -36.011802    0.840498
  C     24.699231  -34.833589    0.613442
  H     17.707207  -32.481747   -2.234911
  H     20.898523  -31.781678    0.468032
  H     17.230482  -31.967286    0.031055
  H     18.510053  -31.252513    1.027122
  H     19.417728  -33.648299    1.293750
  H     17.646743  -34.325292    2.969668
  H     18.378086  -32.633859    4.588578
  H     18.869592  -31.545403    3.296125
  H     19.430295  -35.182285    4.011390
  H     23.436896  -32.413884    3.261150
  H     21.188200  -31.395561    3.154115
  H     16.611769  -34.410554    0.388811
  H     18.084162  -34.557535   -0.594133
  H     16.161791  -32.502680    3.791749
  H     16.489790  -31.573346    2.318940
  H     23.832338  -35.856193    3.954273
  H     21.022710  -33.705164   -5.058002
  H     23.890288  -34.222967   -4.125259
  H     23.721277  -32.517364   -5.852685
  H     22.140899  -31.913866   -6.400404
  H     23.004959  -34.551402   -6.838030
  H     24.118791  -34.477537   -1.870118
  H     19.534501  -36.231442   -1.417170
  H     20.388989  -35.578725   -3.627582
  H     24.368341  -31.304460   -0.305695
  H     22.841118  -30.493247    0.108347
  H     23.109792  -32.185640    0.604840
  H     17.412404  -33.562913   -4.233368
  H     17.385404  -31.785912   -4.424222
  H     17.837205  -32.824496   -5.798268
  H     21.159025  -38.358547    4.354154
  H     20.147504  -37.118479    5.133931
  H     20.077355  -37.347959    3.361306
  H     22.012693  -36.033664   -5.173351
  H     18.861257  -35.975023    1.027711
  H     15.348285  -34.136681    2.307297
  H     21.532774  -35.860378    1.483993
  H     25.239549  -35.604344    0.055464
  H     24.885868  -33.857703    0.159511
  H     25.032364  -34.821732    1.649855

----------------------------
CARTESIAN COORDINATES (A.U.)
----------------------------
  NO LB      ZA    FRAG     MASS         X           Y           Z
   0 C     6.0000    0    12.011   40.584033  -60.547401   -2.990311
   1 C     6.0000    0    12.011   39.748301  -61.032962   -5.462105
   2 C     6.0000    0    12.011   37.150708  -61.304581   -5.906675
   3 C     6.0000    0    12.011   35.461072  -61.167101   -3.899611
   4 C     6.0000    0    12.011   36.299218  -60.722998   -1.462615
   5 C     6.0000    0    12.011   38.862260  -60.401278   -1.021859
   6 C     6.0000    0    12.011   34.494079  -60.653144    0.726660
   7 C     6.0000    0    12.011   34.685720  -63.107857    2.262313
   8 C     6.0000    0    12.011   33.621046  -62.915090    4.964741
   9 C     6.0000    0    12.011   35.497710  -61.600862    6.752090
  10 C     6.0000    0    12.011   38.087307  -62.773851    6.766444
  11 C     6.0000    0    12.011   38.373264  -65.345738    7.253559
  12 C     6.0000    0    12.011   40.744760  -66.436143    7.313638
  13 C     6.0000    0    12.011   42.904265  -64.934600    6.946020
  14 C     6.0000    0    12.011   42.619315  -62.386556    6.446212
  15 C     6.0000    0    12.011   40.226600  -61.325334    6.342563
  16 C     6.0000    0    12.011   33.435327  -65.291871    0.816276
  17 C     6.0000    0    12.011   31.053733  -61.575336    5.152641
  18 O     8.0000    0    15.999   36.416957  -61.705155   -8.356746
  19 O     8.0000    0    15.999   43.127018  -60.247614   -2.708201
  20 O     8.0000    0    15.999   41.548932  -61.007274   -7.337190
  21 O     8.0000    0    15.999   45.248881  -65.984246    7.088125
  22 O     8.0000    0    15.999   41.238969  -68.962593    7.718528
  23 C     6.0000    0    12.011   41.630031  -63.031240   -9.082565
  24 C     6.0000    0    12.011   43.177720  -65.277683   -7.996602
  25 C     6.0000    0    12.011   42.162523  -66.077816   -5.455764
  26 C     6.0000    0    12.011   42.870162  -61.994706  -11.498081
  27 O     8.0000    0    15.999   42.777495  -63.704524  -13.516850
  28 C     6.0000    0    12.011   43.682238  -65.865146   -3.323936
  29 C     6.0000    0    12.011   42.757982  -66.516188   -0.969211
  30 C     6.0000    0    12.011   40.277084  -67.423607   -0.740798
  31 C     6.0000    0    12.011   38.793711  -67.704133   -2.871591
  32 C     6.0000    0    12.011   39.732229  -67.027532   -5.217778
  33 C     6.0000    0    12.011   44.021425  -59.424642   -0.343676
  34 C     6.0000    0    12.011   33.819027  -61.808770   -8.913791
  35 C     6.0000    0    12.011   39.171011  -70.609717    8.012986
  36 O     8.0000    0    15.999   43.244111  -67.311418   -9.740613
  37 O     8.0000    0    15.999   33.842396  -67.645114    1.990210
  38 O     8.0000    0    15.999   29.094068  -62.771923    3.815500
  39 O     8.0000    0    15.999   44.070019  -66.374979    1.264033
  40 O     8.0000    0    15.999   39.352082  -68.052443    1.588310
  41 C     6.0000    0    12.011   46.674783  -65.825943    1.159237
  42 H     1.0000    0     1.008   33.461772  -61.381607   -4.223370
  43 H     1.0000    0     1.008   39.492486  -60.058667    0.884452
  44 H     1.0000    0     1.008   32.560892  -60.409416    0.058686
  45 H     1.0000    0     1.008   34.978931  -59.058690    1.940979
  46 H     1.0000    0     1.008   36.694188  -63.586070    2.444834
  47 H     1.0000    0     1.008   33.347512  -64.865401    5.611859
  48 H     1.0000    0     1.008   34.729549  -61.669056    8.671156
  49 H     1.0000    0     1.008   35.658361  -59.612173    6.228774
  50 H     1.0000    0     1.008   36.717936  -66.484883    7.580428
  51 H     1.0000    0     1.008   44.289315  -61.253364    6.162680
  52 H     1.0000    0     1.008   40.039896  -59.329011    5.960414
  53 H     1.0000    0     1.008   31.391695  -65.026523    0.734746
  54 H     1.0000    0     1.008   34.174114  -65.304277   -1.122748
  55 H     1.0000    0     1.008   30.541359  -61.421163    7.165367
  56 H     1.0000    0     1.008   31.161186  -59.664976    4.382162
  57 H     1.0000    0     1.008   45.036591  -67.758386    7.472493
  58 H     1.0000    0     1.008   39.727164  -63.693529   -9.558238
  59 H     1.0000    0     1.008   45.146102  -64.672035   -7.795610
  60 H     1.0000    0     1.008   44.826717  -61.448913  -11.059971
  61 H     1.0000    0     1.008   41.840235  -60.308467  -12.095010
  62 H     1.0000    0     1.008   43.473073  -65.292687  -12.922004
  63 H     1.0000    0     1.008   45.577909  -65.153103   -3.534011
  64 H     1.0000    0     1.008   36.914857  -68.467502   -2.678063
  65 H     1.0000    0     1.008   38.529606  -67.234047   -6.855137
  66 H     1.0000    0     1.008   46.049491  -59.156856   -0.577680
  67 H     1.0000    0     1.008   43.163457  -57.623886    0.204746
  68 H     1.0000    0     1.008   43.671178  -60.822045    1.142983
  69 H     1.0000    0     1.008   32.904675  -63.424713   -7.999907
  70 H     1.0000    0     1.008   32.853651  -60.066668   -8.360568
  71 H     1.0000    0     1.008   33.707433  -62.029307  -10.957138
  72 H     1.0000    0     1.008   39.984762  -72.487150    8.228159
  73 H     1.0000    0     1.008   38.073265  -70.143759    9.701723
  74 H     1.0000    0     1.008   37.940702  -70.577414    6.351948
  75 H     1.0000    0     1.008   41.597961  -68.093756   -9.776217
  76 H     1.0000    0     1.008   35.642610  -67.982942    1.942092
  77 H     1.0000    0     1.008   29.004056  -64.508977    4.360160
  78 H     1.0000    0     1.008   40.691047  -67.766293    2.804340
  79 H     1.0000    0     1.008   47.695836  -67.282459    0.104813
  80 H     1.0000    0     1.008   47.027475  -63.981786    0.301433
  81 H     1.0000    0     1.008   47.304312  -65.803537    3.117774

--------------------------------
INTERNAL COORDINATES (ANGSTROEM)
--------------------------------
 C      0   0   0     0.000000000000     0.00000000     0.00000000
 C      1   0   0     1.404462865351     0.00000000     0.00000000
 C      2   1   0     1.401960639272   118.93254508     0.00000000
 C      3   2   1     1.390244186371   119.80288253   358.06135311
 C      4   3   2     1.383842814890   120.97696828     1.07702852
 C      1   2   3     1.386066261621   120.20731288     1.51270037
 C      5   4   3     1.501999630349   121.27415422   181.94778509
 C      7   5   4     1.535578083801   110.20394343   103.80405592
 C      8   7   5     1.540424666365   114.27503622   160.88143466
 C      9   8   7     1.537683444087   111.39338236   281.16767575
 C     10   9   8     1.504401863959   113.87754832   306.24981969
 C     11  10   9     1.393420640124   120.18891241   305.71299035
 C     12  11  10     1.381606850968   120.71836410   181.09073347
 C     13  12  11     1.405385052952   119.95164301     1.66249966
 C     14  13  12     1.382311034017   119.29362745   357.93482004
 C     11  10   9     1.385439502020   121.01158331   126.83259068
 C      8   7   5     1.535929070599   110.14647464   286.33265306
 C      9   8   7     1.535648360518   114.47214544    45.16317624
 O      3   2   1     1.369915025066   116.90945162   178.20416803
 O      1   2   3     1.363207136129   115.72957631   181.45771267
 O      2   1   3     1.375746554110   116.86020533   174.87659973
 O     14  13  12     1.361454421883   120.17930129   177.77949466
 O     13  12  11     1.379025285505   125.50187423   181.57998041
 C     21   2   1     1.414928300603   118.96864380   131.58556491
 C     24  21   2     1.553760676516   110.71367683   275.64844396
 C     25  24  21     1.508544483607   110.89635100    54.59168093
 C     24  21   2     1.537989791083   106.58858597   155.04852733
 O     27  24  21     1.400820675867   112.86258222   187.88293024
 C     26  25  24     1.389979791057   119.64428493   243.14524190
 C     29  26  25     1.382240252328   120.44735633   178.01359879
 C     30  29  26     1.403111600310   119.60599697     0.70769281
 C     31  30  29     1.381889330472   119.86539659     1.19802586
 C     32  31  30     1.384301583700   120.01573211   358.28963505
 C     20   1   2     1.406877265543   117.74362036   171.62254424
 C     19   3   2     1.407081665551   118.76561509   184.46268371
 C     23  13  12     1.407668449382   118.03867582     2.31894310
 O     25  24  21     1.418160928463   110.66944543   179.62263084
 O     17   8   7     1.408205994198   112.31680050   172.37733099
 O     18   9   8     1.406064318472   114.32953285    61.32681494
 O     30  29  26     1.372677668273   125.70232746   180.35004536
 O     31  30  29     1.367266259077   119.73033356   180.45219806
 C     40  30  29     1.409760140536   118.15731316   351.54760787
 H      4   3   2     1.077760006013   120.29027106   180.25634367
 H      6   1   2     1.077832291003   120.62135336   179.02308128
 H      7   5   4     1.090003208547   110.46687124   342.68105210
 H      7   5   4     1.091175059802   108.88772439   223.41458038
 H      8   7   5     1.096807241082   107.80462653    42.41789541
 H      9   8   7     1.096979946861   106.00731598   163.23064931
 H     10   9   8     1.094454865943   108.41848813   185.16585724
 H     10   9   8     1.091510612553   109.28723045    68.60071182
 H     12  11  10     1.077315328726   119.20420982     1.24396493
 H     15  14  13     1.078459246640   118.65998735   180.15176737
 H     16  11  10     1.080117852173   119.78159724   358.84018842
 H     17   8   7     1.091374656209   110.47288882   291.03294611
 H     17   8   7     1.098061640691   108.46160813    49.78042871
 H     18   9   8     1.102082082958   108.32485657   184.06346512
 H     18   9   8     1.091524310972   110.93491580   302.16186296
 H     22  14  13     0.967161211505   107.56551763   359.36420320
 H     24  21   2     1.095511466432   111.36240892    37.02606028
 H     25  24  21     1.094992214201   108.26471918   294.40179138
 H     27  24  21     1.099611312383   108.67559344    63.90860478
 H     27  24  21     1.092270417404   108.59035122   306.14292465
 H     28  27  24     0.969988031530   107.38916018   307.30373136
 H     29  26  25     1.077328124465   118.90114956   359.12321322
 H     32  31  30     1.078052310066   119.11874109   177.77431943
 H     33  32  31     1.080596723949   118.79606409   180.98179346
 H     34  20   1     1.089580820471   105.69668746   184.78777066
 H     34  20   1     1.094718781958   111.45106394   303.05632647
 H     34  20   1     1.095481332504   111.89016286    65.50584591
 H     35  19   3     1.095089485667   111.69129010   295.42956463
 H     35  19   3     1.093865337417   111.55434569    58.32385388
 H     35  19   3     1.089174283103   105.37447355   176.83622097
 H     36  23  13     1.088773907314   105.61181175   177.71620992
 H     36  23  13     1.094002173974   111.32453928   296.21760962
 H     36  23  13     1.093970478855   111.34812858    58.95353932
 H     37  25  24     0.964661088576   108.42237704   287.46484339
 H     38  17   8     0.969595661709   107.56290000   295.95621903
 H     39  18   9     0.964513576570   108.37464586    54.11946884
 H     41  31  30     0.969049904912   107.38568031   359.07327044
 H     42  40  30     1.094232841343   110.95836820   298.78009814
 H     42  40  30     1.092354838317   111.56257306    61.11042656
 H     42  40  30     1.088701095768   105.30617051   179.79774579

---------------------------
INTERNAL COORDINATES (A.U.)
---------------------------
 C      0   0   0     0.000000000000     0.00000000     0.00000000
 C      1   0   0     2.654050180775     0.00000000     0.00000000
 C      2   1   0     2.649321658761   118.93254508     0.00000000
 C      3   2   1     2.627180771518   119.80288253   358.06135311
 C      4   3   2     2.615083932536   120.97696828     1.07702852
 C      1   2   3     2.619285637932   120.20731288     1.51270037
 C      5   4   3     2.838367954611   121.27415422   181.94778509
 C      7   5   4     2.901822035636   110.20394343   103.80405592
 C      8   7   5     2.910980749366   114.27503622   160.88143466
 C      9   8   7     2.905800589990   111.39338236   281.16767575
 C     10   9   8     2.842907518242   113.87754832   306.24981969
 C     11  10   9     2.633183399188   120.18891241   305.71299035
 C     12  11  10     2.610858573078   120.71836410   181.09073347
 C     13  12  11     2.655792862785   119.95164301     1.66249966
 C     14  13  12     2.612189286190   119.29362745   357.93482004
 C     11  10   9     2.618101233935   121.01158331   126.83259068
 C      8   7   5     2.902485304560   110.14647464   286.33265306
 C      9   8   7     2.901954839385   114.47214544    45.16317624
 O      3   2   1     2.588764224118   116.90945162   178.20416803
 O      1   2   3     2.576088151090   115.72957631   181.45771267
 O      2   1   3     2.599784216954   116.86020533   174.87659973
 O     14  13  12     2.572776001175   120.17930129   177.77949466
 O     13  12  11     2.605980121357   125.50187423   181.57998041
 C     21   2   1     2.673826987273   118.96864380   131.58556491
 C     24  21   2     2.936182156272   110.71367683   275.64844396
 C     25  24  21     2.850735934855   110.89635100    54.59168093
 C     24  21   2     2.906379501915   106.58858597   155.04852733
 O     27  24  21     2.647167440123   112.86258222   187.88293024
 C     26  25  24     2.626681136782   119.64428493   243.14524190
 C     29  26  25     2.612055528182   120.44735633   178.01359879
 C     30  29  26     2.651496659914   119.60599697     0.70769281
 C     31  30  29     2.611392381980   119.86539659     1.19802586
 C     32  31  30     2.615950879947   120.01573211   358.28963505
 C     20   1   2     2.658612735917   117.74362036   171.62254424
 C     19   3   2     2.658998995953   118.76561509   184.46268371
 C     23  13  12     2.660107856693   118.03867582     2.31894310
 O     25  24  21     2.679935768623   110.66944543   179.62263084
 O     17   8   7     2.661123669181   112.31680050   172.37733099
 O     18   9   8     2.657076488590   114.32953285    61.32681494
 O     30  29  26     2.593984863186   125.70232746   180.35004536
 O     31  30  29     2.583758781807   119.73033356   180.45219806
 C     40  30  29     2.664060580132   118.15731316   351.54760787
 H      4   3   2     2.036671249458   120.29027106   180.25634367
 H      6   1   2     2.036807848292   120.62135336   179.02308128
 H      7   5   4     2.059807549250   110.46687124   342.68105210
 H      7   5   4     2.062022027191   108.88772439   223.41458038
 H      8   7   5     2.072665307347   107.80462653    42.41789541
 H      9   8   7     2.072991673970   106.00731598   163.23064931
 H     10   9   8     2.068219962570   108.41848813   185.16585724
 H     10   9   8     2.062656129993   109.28723045    68.60071182
 H     12  11  10     2.035830931168   119.20420982     1.24396493
 H     15  14  13     2.037992622745   118.65998735   180.15176737
 H     16  11  10     2.041126932966   119.78159724   358.84018842
 H     17   8   7     2.062399209738   110.47288882   291.03294611
 H     17   8   7     2.075035779070   108.46160813    49.78042871
 H     18   9   8     2.082633313892   108.32485657   184.06346512
 H     18   9   8     2.062682016253   110.93491580   302.16186296
 H     22  14  13     1.827669817096   107.56551763   359.36420320
 H     24  21   2     2.070216648127   111.36240892    37.02606028
 H     25  24  21     2.069235403616   108.26471918   294.40179138
 H     27  24  21     2.077964234166   108.67559344    63.90860478
 H     27  24  21     2.064091953078   108.59035122   306.14292465
 H     28  27  24     1.833011732773   107.38916018   307.30373136
 H     29  26  25     2.035855111610   118.90114956   359.12321322
 H     32  31  30     2.037223624067   119.11874109   177.77431943
 H     33  32  31     2.042031869476   118.79606409   180.98179346
 H     34  20   1     2.059009351463   105.69668746   184.78777066
 H     34  20   1     2.068718691561   111.45106394   303.05632647
 H     34  20   1     2.070159703256   111.89016286    65.50584591
 H     35  19   3     2.069419220047   111.69129010   295.42956463
 H     35  19   3     2.067105915107   111.55434569    58.32385388
 H     35  19   3     2.058241107174   105.37447355   176.83622097
 H     36  23  13     2.057484506583   105.61181175   177.71620992
 H     36  23  13     2.067364498725   111.32453928   296.21760962
 H     36  23  13     2.067304603631   111.34812858    58.95353932
 H     37  25  24     1.822945269460   108.42237704   287.46484339
 H     38  17   8     1.832270261268   107.56290000   295.95621903
 H     39  18   9     1.822666512167   108.37464586    54.11946884
 H     41  31  30     1.831238930385   107.38568031   359.07327044
 H     42  40  30     2.067800396881   110.95836820   298.78009814
 H     42  40  30     2.064251485483   111.56257306    61.11042656
 H     42  40  30     2.057346912702   105.30617051   179.79774579

---------------------
BASIS SET INFORMATION
---------------------
There are 3 groups of distinct atoms

 Group   1 Type C   : 11s6p2d1f contracted to 5s3p2d1f pattern {62111/411/11/1}
 Group   2 Type O   : 11s6p2d1f contracted to 5s3p2d1f pattern {62111/411/11/1}
 Group   3 Type H   : 5s1p contracted to 3s1p pattern {311/1}

Atom   0C    basis set group =>   1
Atom   1C    basis set group =>   1
Atom   2C    basis set group =>   1
Atom   3C    basis set group =>   1
Atom   4C    basis set group =>   1
Atom   5C    basis set group =>   1
Atom   6C    basis set group =>   1
Atom   7C    basis set group =>   1
Atom   8C    basis set group =>   1
Atom   9C    basis set group =>   1
Atom  10C    basis set group =>   1
Atom  11C    basis set group =>   1
Atom  12C    basis set group =>   1
Atom  13C    basis set group =>   1
Atom  14C    basis set group =>   1
Atom  15C    basis set group =>   1
Atom  16C    basis set group =>   1
Atom  17C    basis set group =>   1
Atom  18O    basis set group =>   2
Atom  19O    basis set group =>   2
Atom  20O    basis set group =>   2
Atom  21O    basis set group =>   2
Atom  22O    basis set group =>   2
Atom  23C    basis set group =>   1
Atom  24C    basis set group =>   1
Atom  25C    basis set group =>   1
Atom  26C    basis set group =>   1
Atom  27O    basis set group =>   2
Atom  28C    basis set group =>   1
Atom  29C    basis set group =>   1
Atom  30C    basis set group =>   1
Atom  31C    basis set group =>   1
Atom  32C    basis set group =>   1
Atom  33C    basis set group =>   1
Atom  34C    basis set group =>   1
Atom  35C    basis set group =>   1
Atom  36O    basis set group =>   2
Atom  37O    basis set group =>   2
Atom  38O    basis set group =>   2
Atom  39O    basis set group =>   2
Atom  40O    basis set group =>   2
Atom  41C    basis set group =>   1
Atom  42H    basis set group =>   3
Atom  43H    basis set group =>   3
Atom  44H    basis set group =>   3
Atom  45H    basis set group =>   3
Atom  46H    basis set group =>   3
Atom  47H    basis set group =>   3
Atom  48H    basis set group =>   3
Atom  49H    basis set group =>   3
Atom  50H    basis set group =>   3
Atom  51H    basis set group =>   3
Atom  52H    basis set group =>   3
Atom  53H    basis set group =>   3
Atom  54H    basis set group =>   3
Atom  55H    basis set group =>   3
Atom  56H    basis set group =>   3
Atom  57H    basis set group =>   3
Atom  58H    basis set group =>   3
Atom  59H    basis set group =>   3
Atom  60H    basis set group =>   3
Atom  61H    basis set group =>   3
Atom  62H    basis set group =>   3
Atom  63H    basis set group =>   3
Atom  64H    basis set group =>   3
Atom  65H    basis set group =>   3
Atom  66H    basis set group =>   3
Atom  67H    basis set group =>   3
Atom  68H    basis set group =>   3
Atom  69H    basis set group =>   3
Atom  70H    basis set group =>   3
Atom  71H    basis set group =>   3
Atom  72H    basis set group =>   3
Atom  73H    basis set group =>   3
Atom  74H    basis set group =>   3
Atom  75H    basis set group =>   3
Atom  76H    basis set group =>   3
Atom  77H    basis set group =>   3
Atom  78H    basis set group =>   3
Atom  79H    basis set group =>   3
Atom  80H    basis set group =>   3
Atom  81H    basis set group =>   3
---------------------------------
AUXILIARY/J BASIS SET INFORMATION
---------------------------------
There are 3 groups of distinct atoms

 Group   1 Type C   : 12s5p4d2f1g contracted to 6s4p3d1f1g pattern {711111/2111/211/2/1}
 Group   2 Type O   : 12s5p4d2f1g contracted to 6s4p3d1f1g pattern {711111/2111/211/2/1}
 Group   3 Type H   : 5s2p1d contracted to 3s1p1d pattern {311/2/1}

Atom   0C    basis set group =>   1
Atom   1C    basis set group =>   1
Atom   2C    basis set group =>   1
Atom   3C    basis set group =>   1
Atom   4C    basis set group =>   1
Atom   5C    basis set group =>   1
Atom   6C    basis set group =>   1
Atom   7C    basis set group =>   1
Atom   8C    basis set group =>   1
Atom   9C    basis set group =>   1
Atom  10C    basis set group =>   1
Atom  11C    basis set group =>   1
Atom  12C    basis set group =>   1
Atom  13C    basis set group =>   1
Atom  14C    basis set group =>   1
Atom  15C    basis set group =>   1
Atom  16C    basis set group =>   1
Atom  17C    basis set group =>   1
Atom  18O    basis set group =>   2
Atom  19O    basis set group =>   2
Atom  20O    basis set group =>   2
Atom  21O    basis set group =>   2
Atom  22O    basis set group =>   2
Atom  23C    basis set group =>   1
Atom  24C    basis set group =>   1
Atom  25C    basis set group =>   1
Atom  26C    basis set group =>   1
Atom  27O    basis set group =>   2
Atom  28C    basis set group =>   1
Atom  29C    basis set group =>   1
Atom  30C    basis set group =>   1
Atom  31C    basis set group =>   1
Atom  32C    basis set group =>   1
Atom  33C    basis set group =>   1
Atom  34C    basis set group =>   1
Atom  35C    basis set group =>   1
Atom  36O    basis set group =>   2
Atom  37O    basis set group =>   2
Atom  38O    basis set group =>   2
Atom  39O    basis set group =>   2
Atom  40O    basis set group =>   2
Atom  41C    basis set group =>   1
Atom  42H    basis set group =>   3
Atom  43H    basis set group =>   3
Atom  44H    basis set group =>   3
Atom  45H    basis set group =>   3
Atom  46H    basis set group =>   3
Atom  47H    basis set group =>   3
Atom  48H    basis set group =>   3
Atom  49H    basis set group =>   3
Atom  50H    basis set group =>   3
Atom  51H    basis set group =>   3
Atom  52H    basis set group =>   3
Atom  53H    basis set group =>   3
Atom  54H    basis set group =>   3
Atom  55H    basis set group =>   3
Atom  56H    basis set group =>   3
Atom  57H    basis set group =>   3
Atom  58H    basis set group =>   3
Atom  59H    basis set group =>   3
Atom  60H    basis set group =>   3
Atom  61H    basis set group =>   3
Atom  62H    basis set group =>   3
Atom  63H    basis set group =>   3
Atom  64H    basis set group =>   3
Atom  65H    basis set group =>   3
Atom  66H    basis set group =>   3
Atom  67H    basis set group =>   3
Atom  68H    basis set group =>   3
Atom  69H    basis set group =>   3
Atom  70H    basis set group =>   3
Atom  71H    basis set group =>   3
Atom  72H    basis set group =>   3
Atom  73H    basis set group =>   3
Atom  74H    basis set group =>   3
Atom  75H    basis set group =>   3
Atom  76H    basis set group =>   3
Atom  77H    basis set group =>   3
Atom  78H    basis set group =>   3
Atom  79H    basis set group =>   3
Atom  80H    basis set group =>   3
Atom  81H    basis set group =>   3
--------------------------------------------------------------------------
WARNING: There was an error initializing an OpenFabrics device.

  Local host:   c01b01n01
  Local device: mlx5_0
--------------------------------------------------------------------------
--------------------------------------------------------------------------
WARNING: There is at least one non-excluded one OpenFabrics device found,
but there are no active ports detected (or Open MPI was unable to use
them).  This is most certainly not what you wanted.  Check your
cables, subnet manager configuration, etc.  The openib BTL will be
ignored for this job.

  Local host: c01b01n01
--------------------------------------------------------------------------
[c01b01n01:519427] 59 more processes have sent help message help-mpi-btl-openib.txt / error in device init
[c01b01n01:519427] Set MCA parameter "orte_base_help_aggregate" to 0 to see all help / error messages
[c01b01n01:519427] 3 more processes have sent help message help-mpi-btl-openib.txt / no active ports found


           ************************************************************
           *        Program running with 64 parallel MPI-processes    *
           *              working on a common directory               *
           ************************************************************
------------------------------------------------------------------------------
                             ORCA STARTUP CALCULATIONS
                           -- RI-GTO INTEGRALS CHOSEN --
------------------------------------------------------------------------------
------------------------------------------------------------------------------
                   ___                                                        
                  /   \      - P O W E R E D   B Y -                         
                 /     \                                                     
                 |  |  |   _    _      __       _____    __    __             
                 |  |  |  | |  | |    /  \     |  _  \  |  |  /  |          
                  \  \/   | |  | |   /    \    | | | |  |  | /  /          
                 / \  \   | |__| |  /  /\  \   | |_| |  |  |/  /          
                |  |  |   |  __  | /  /__\  \  |    /   |      \           
                |  |  |   | |  | | |   __   |  |    \   |  |\   \          
                \     /   | |  | | |  |  |  |  | |\  \  |  | \   \       
                 \___/    |_|  |_| |__|  |__|  |_| \__\ |__|  \__/        
                                                                              
                      - O R C A' S   B I G   F R I E N D -                    
                                      &                                       
                       - I N T E G R A L  F E E D E R -                       
                                                                              
 v1 FN, 2020, v2 2021, v3 2022-2024                                           
------------------------------------------------------------------------------


----------------------
SHARK INTEGRAL PACKAGE
----------------------

Number of atoms                             ...     82
Number of basis functions                   ...   1542
Number of shells                            ...    622
Maximum angular momentum                    ...      3
Integral batch strategy                     ... SHARK/LIBINT Hybrid
RI-J (if used) integral strategy            ... SPLIT-RIJ (Revised 2003 algorithm where possible)
Printlevel                                  ...      1
Contraction scheme used                     ... SEGMENTED contraction
Prescreening option                         ... SCHWARTZ
   Thresh                                   ... 2.500e-11
   Tcut                                     ... 2.500e-12
   Tpresel                                  ... 2.500e-12 
Coulomb Range Separation                    ... NOT USED
Exchange Range Separation                   ... NOT USED
Multipole approximations                    ... NOT USED
Finite Nucleus Model                        ... NOT USED
CABS basis                                  ... NOT available
Auxiliary Coulomb fitting basis             ... AVAILABLE
   # of basis functions in Aux-J            ...   2498
   # of shells in Aux-J                     ...    830
   Maximum angular momentum in Aux-J        ...      4
Auxiliary J/K fitting basis                 ... NOT available
Auxiliary Correlation fitting basis         ... NOT available
Auxiliary 'external' fitting basis          ... NOT available

Checking pre-screening integrals            ... done (  0.0 sec) Dimension = 622
   => SHARK Basis and OBASIS are compatible. Storing Pre-screening
Shell pair information
Shell pair cut-off parameter TPreSel        ...   2.5e-12
Total number of shell pairs                 ...    193753
Shell pairs after pre-screening             ...    115817
Total number of primitive shell pairs       ...    584784
Primitive shell pairs kept                  ...    218563
          la=0 lb=0:  32205 shell pairs
          la=1 lb=0:  34552 shell pairs
          la=1 lb=1:   9366 shell pairs
          la=2 lb=0:  15699 shell pairs
          la=2 lb=1:   8638 shell pairs
          la=2 lb=2:   1991 shell pairs
          la=3 lb=0:   7168 shell pairs
          la=3 lb=1:   4020 shell pairs
          la=3 lb=2:   1758 shell pairs
          la=3 lb=3:    420 shell pairs

Checking whether 4 symmetric matrices of dimension 1542 fit in memory
:Max Core in MB      =   6000.00
 MB in use           =    138.83
 MB left             =   5861.17
 MB needed           =     36.31
 Data fit in memory  = YES
Calculating RI/J V-Matrix + Cholesky decomp.... done (  1.6 sec)
Calculating Nuclear repulsion               ... done (  0.0 sec) ENN=   5749.774415475348 Eh

Diagonalization of the overlap matrix:
Smallest eigenvalue                        ... 3.280e-06
Time for diagonalization                   ...    0.689 sec
Threshold for overlap eigenvalues          ... 1.000e-07
Number of eigenvalues below threshold      ... 0
Time for construction of square roots      ...    0.513 sec
Total time needed                          ...    1.357 sec

-------------------
DFT GRID GENERATION
-------------------

General Integration Accuracy     IntAcc      ... 4.388
Radial Grid Type                 RadialGrid  ... OptM3 with GC (2021)
Angular Grid (max. ang.)         AngularGrid ... 4 (Lebedev-302)
Angular grid pruning method      GridPruning ... 4 (adaptive)
Weight generation scheme         WeightScheme... mBecke (2022)
Basis function cutoff            BFCut       ... 1.0000e-11
Integration weight cutoff        WCut        ... 1.0000e-14
Partially contracted basis set               ... off
Rotationally invariant grid construction     ... off
Angular grids for H and He will be reduced by one unit

Total number of grid points                  ...   373474
Total number of batches                      ...     5873
Average number of points per batch           ...       63
Average number of grid points per atom       ...     4555

--------------------
COSX GRID GENERATION
--------------------

GRIDX 1
-------
General Integration Accuracy     IntAcc      ... 3.816
Radial Grid Type                 RadialGrid  ... OptM3 with GC (2021)
Angular Grid (max. ang.)         AngularGrid ... 1 (Lebedev-50)
Angular grid pruning method      GridPruning ... 4 (adaptive)
Weight generation scheme         WeightScheme... mBecke (2022)
Basis function cutoff            BFCut       ... 1.0000e-11
Integration weight cutoff        WCut        ... 1.0000e-14
Partially contracted basis set               ... on
Rotationally invariant grid construction     ... off
Angular grids for H and He will be reduced by one unit

Total number of grid points                  ...    47277
Total number of batches                      ...      417
Average number of points per batch           ...      113
Average number of grid points per atom       ...      577
UseSFitting                                  ... on

GRIDX 2
-------
General Integration Accuracy     IntAcc      ... 4.020
Radial Grid Type                 RadialGrid  ... OptM3 with GC (2021)
Angular Grid (max. ang.)         AngularGrid ... 2 (Lebedev-110)
Angular grid pruning method      GridPruning ... 4 (adaptive)
Weight generation scheme         WeightScheme... mBecke (2022)
Basis function cutoff            BFCut       ... 1.0000e-11
Integration weight cutoff        WCut        ... 1.0000e-14
Partially contracted basis set               ... on
Rotationally invariant grid construction     ... off
[...]
freq.     626.29  E(vib)   ...       0.09 
freq.     641.98  E(vib)   ...       0.09 
freq.     659.15  E(vib)   ...       0.08 
freq.     666.29  E(vib)   ...       0.08 
freq.     687.82  E(vib)   ...       0.07 
freq.     735.93  E(vib)   ...       0.06 
freq.     745.13  E(vib)   ...       0.06 
freq.     751.41  E(vib)   ...       0.06 
freq.     769.05  E(vib)   ...       0.06 
freq.     776.37  E(vib)   ...       0.05 
freq.     784.86  E(vib)   ...       0.05 
freq.     802.80  E(vib)   ...       0.05 
freq.     812.92  E(vib)   ...       0.05 
freq.     821.39  E(vib)   ...       0.05 
freq.     831.61  E(vib)   ...       0.04 
freq.     840.80  E(vib)   ...       0.04 
freq.     845.94  E(vib)   ...       0.04 
freq.     853.76  E(vib)   ...       0.04 
freq.     873.25  E(vib)   ...       0.04 
freq.     877.14  E(vib)   ...       0.04 
freq.     886.10  E(vib)   ...       0.04 
freq.     892.21  E(vib)   ...       0.03 
freq.     914.61  E(vib)   ...       0.03 
freq.     931.21  E(vib)   ...       0.03 
freq.     942.62  E(vib)   ...       0.03 
freq.     948.89  E(vib)   ...       0.03 
freq.     949.15  E(vib)   ...       0.03 
freq.     966.19  E(vib)   ...       0.03 
freq.     972.41  E(vib)   ...       0.03 
freq.     982.18  E(vib)   ...       0.02 
freq.     987.49  E(vib)   ...       0.02 
freq.    1002.48  E(vib)   ...       0.02 
freq.    1020.64  E(vib)   ...       0.02 
freq.    1027.58  E(vib)   ...       0.02 
freq.    1033.17  E(vib)   ...       0.02 
freq.    1046.53  E(vib)   ...       0.02 
freq.    1046.95  E(vib)   ...       0.02 
freq.    1055.92  E(vib)   ...       0.02 
freq.    1058.07  E(vib)   ...       0.02 
freq.    1061.40  E(vib)   ...       0.02 
freq.    1087.20  E(vib)   ...       0.02 
freq.    1092.65  E(vib)   ...       0.02 
freq.    1102.25  E(vib)   ...       0.02 
freq.    1116.50  E(vib)   ...       0.01 
freq.    1138.97  E(vib)   ...       0.01 
freq.    1141.44  E(vib)   ...       0.01 
freq.    1147.05  E(vib)   ...       0.01 
freq.    1149.75  E(vib)   ...       0.01 
freq.    1169.81  E(vib)   ...       0.01 
freq.    1170.31  E(vib)   ...       0.01 
freq.    1170.43  E(vib)   ...       0.01 
freq.    1173.38  E(vib)   ...       0.01 
freq.    1173.45  E(vib)   ...       0.01 
freq.    1176.20  E(vib)   ...       0.01 
freq.    1180.63  E(vib)   ...       0.01 
freq.    1182.39  E(vib)   ...       0.01 
freq.    1194.96  E(vib)   ...       0.01 
freq.    1203.35  E(vib)   ...       0.01 
freq.    1206.25  E(vib)   ...       0.01 
freq.    1206.83  E(vib)   ...       0.01 
freq.    1212.07  E(vib)   ...       0.01 
freq.    1212.67  E(vib)   ...       0.01 
freq.    1222.03  E(vib)   ...       0.01 
freq.    1225.56  E(vib)   ...       0.01 
freq.    1233.23  E(vib)   ...       0.01 
freq.    1233.49  E(vib)   ...       0.01 
freq.    1245.81  E(vib)   ...       0.01 
freq.    1250.34  E(vib)   ...       0.01 
freq.    1253.01  E(vib)   ...       0.01 
freq.    1260.46  E(vib)   ...       0.01 
freq.    1274.35  E(vib)   ...       0.01 
freq.    1288.89  E(vib)   ...       0.01 
freq.    1293.36  E(vib)   ...       0.01 
freq.    1310.68  E(vib)   ...       0.01 
freq.    1311.75  E(vib)   ...       0.01 
freq.    1314.72  E(vib)   ...       0.01 
freq.    1321.61  E(vib)   ...       0.01 
freq.    1326.13  E(vib)   ...       0.01 
freq.    1339.52  E(vib)   ...       0.01 
freq.    1344.20  E(vib)   ...       0.01 
freq.    1346.00  E(vib)   ...       0.01 
freq.    1361.23  E(vib)   ...       0.01 
freq.    1368.52  E(vib)   ...       0.01 
freq.    1378.85  E(vib)   ...       0.01 
freq.    1381.71  E(vib)   ...       0.01 
freq.    1389.53  E(vib)   ...       0.00 
freq.    1394.06  E(vib)   ...       0.00 
freq.    1397.17  E(vib)   ...       0.00 
freq.    1400.04  E(vib)   ...       0.00 
freq.    1402.59  E(vib)   ...       0.00 
freq.    1408.79  E(vib)   ...       0.00 
freq.    1412.37  E(vib)   ...       0.00 
freq.    1417.26  E(vib)   ...       0.00 
freq.    1427.04  E(vib)   ...       0.00 
freq.    1438.20  E(vib)   ...       0.00 
freq.    1452.15  E(vib)   ...       0.00 
freq.    1459.95  E(vib)   ...       0.00 
freq.    1466.16  E(vib)   ...       0.00 
freq.    1477.09  E(vib)   ...       0.00 
freq.    1478.15  E(vib)   ...       0.00 
freq.    1479.15  E(vib)   ...       0.00 
freq.    1479.66  E(vib)   ...       0.00 
freq.    1480.97  E(vib)   ...       0.00 
freq.    1481.66  E(vib)   ...       0.00 
freq.    1483.63  E(vib)   ...       0.00 
freq.    1485.98  E(vib)   ...       0.00 
freq.    1487.14  E(vib)   ...       0.00 
freq.    1491.27  E(vib)   ...       0.00 
freq.    1491.56  E(vib)   ...       0.00 
freq.    1492.27  E(vib)   ...       0.00 
freq.    1496.39  E(vib)   ...       0.00 
freq.    1498.10  E(vib)   ...       0.00 
freq.    1501.49  E(vib)   ...       0.00 
freq.    1502.28  E(vib)   ...       0.00 
freq.    1508.21  E(vib)   ...       0.00 
freq.    1534.31  E(vib)   ...       0.00 
freq.    1542.61  E(vib)   ...       0.00 
freq.    1548.03  E(vib)   ...       0.00 
freq.    1626.16  E(vib)   ...       0.00 
freq.    1634.31  E(vib)   ...       0.00 
freq.    1643.05  E(vib)   ...       0.00 
freq.    1643.66  E(vib)   ...       0.00 
freq.    1649.60  E(vib)   ...       0.00 
freq.    1651.66  E(vib)   ...       0.00 
freq.    2986.09  E(vib)   ...       0.00 
freq.    2995.28  E(vib)   ...       0.00 
freq.    3010.35  E(vib)   ...       0.00 
freq.    3019.49  E(vib)   ...       0.00 
freq.    3019.80  E(vib)   ...       0.00 
freq.    3021.21  E(vib)   ...       0.00 
freq.    3022.01  E(vib)   ...       0.00 
freq.    3023.94  E(vib)   ...       0.00 
freq.    3028.72  E(vib)   ...       0.00 
freq.    3028.80  E(vib)   ...       0.00 
freq.    3034.27  E(vib)   ...       0.00 
freq.    3052.26  E(vib)   ...       0.00 
freq.    3064.55  E(vib)   ...       0.00 
freq.    3070.71  E(vib)   ...       0.00 
freq.    3077.25  E(vib)   ...       0.00 
freq.    3081.07  E(vib)   ...       0.00 
freq.    3083.65  E(vib)   ...       0.00 
freq.    3086.88  E(vib)   ...       0.00 
freq.    3087.71  E(vib)   ...       0.00 
freq.    3092.35  E(vib)   ...       0.00 
freq.    3093.38  E(vib)   ...       0.00 
freq.    3103.32  E(vib)   ...       0.00 
freq.    3136.91  E(vib)   ...       0.00 
freq.    3136.95  E(vib)   ...       0.00 
freq.    3144.34  E(vib)   ...       0.00 
freq.    3166.16  E(vib)   ...       0.00 
freq.    3170.25  E(vib)   ...       0.00 
freq.    3183.00  E(vib)   ...       0.00 
freq.    3187.17  E(vib)   ...       0.00 
freq.    3198.28  E(vib)   ...       0.00 
freq.    3208.12  E(vib)   ...       0.00 
freq.    3209.04  E(vib)   ...       0.00 
freq.    3209.88  E(vib)   ...       0.00 
freq.    3211.50  E(vib)   ...       0.00 
freq.    3652.95  E(vib)   ...       0.00 
freq.    3655.07  E(vib)   ...       0.00 
freq.    3705.44  E(vib)   ...       0.00 
freq.    3725.83  E(vib)   ...       0.00 
freq.    3754.81  E(vib)   ...       0.00 
freq.    3770.01  E(vib)   ...       0.00 

------------
INNER ENERGY
------------

The inner energy is: U= E(el) + E(ZPE) + E(vib) + E(rot) + E(trans)
    E(el)   - is the total energy from the electronic structure calculation
              = E(kin-el) + E(nuc-el) + E(el-el) + E(nuc-nuc)
    E(ZPE)  - the the zero temperature vibrational energy from the frequency calculation
    E(vib)  - the the finite temperature correction to E(ZPE) due to population
              of excited vibrational states
    E(rot)  - is the rotational thermal energy
    E(trans)- is the translational thermal energy

Summary of contributions to the inner energy U:
Electronic energy                ...  -2032.63439496 Eh
Zero point energy                ...      0.67926149 Eh     426.24 kcal/mol
Thermal vibrational correction   ...      0.04026684 Eh      25.27 kcal/mol
Thermal rotational correction    ...      0.00141627 Eh       0.89 kcal/mol
Thermal translational correction ...      0.00141627 Eh       0.89 kcal/mol
-----------------------------------------------------------------------
Total thermal energy                  -2031.91203409 Eh


Summary of corrections to the electronic energy:
(perhaps to be used in another calculation)
Total thermal correction                  0.04309938 Eh      27.05 kcal/mol
Non-thermal (ZPE) correction              0.67926149 Eh     426.24 kcal/mol
-----------------------------------------------------------------------
Total correction                          0.72236087 Eh     453.29 kcal/mol


--------
ENTHALPY
--------

The enthalpy is H = U + kB*T
                kB is Boltzmann's constant
Total thermal energy              ...  -2031.91203409 Eh 
Thermal Enthalpy correction       ...      0.00094421 Eh       0.59 kcal/mol
-----------------------------------------------------------------------
Total Enthalpy                    ...  -2031.91108988 Eh


Note: Only C1 symmetry has been detected, increase convergence thresholds 
      if your molecule has a higher symmetry. Symmetry factor of 1.0 is   
      used for the rotational entropy correction. 
 

Note: Rotational entropy computed according to Herzberg 
Infrared and Raman Spectra, Chapter V,1, Van Nostrand Reinhold, 1945 
Point Group:  C1, Symmetry Number:   1  
Rotational constants in cm-1:     0.003996     0.002220     0.001765 

Vibrational entropy computed according to the QRRHO of S. Grimme
Chem.Eur.J. 2012 18 9955 using a reference frequency of 100.0 cm-1


-------
ENTROPY
-------

The entropy contributions are T*S = T*(S(el)+S(vib)+S(rot)+S(trans))
     S(el)   - electronic entropy
     S(vib)  - vibrational entropy
     S(rot)  - rotational entropy
     S(trans)- translational entropy
The entropies will be listed as multiplied by the temperature to get
units of energy

Electronic entropy                ...      0.00000000 Eh      0.00 kcal/mol
Vibrational entropy               ...      0.07238492 Eh     45.42 kcal/mol
Rotational entropy                ...      0.01799531 Eh     11.29 kcal/mol
Translational entropy             ...      0.02138181 Eh     13.42 kcal/mol
-----------------------------------------------------------------------
Final entropy term                ...      0.11176204 Eh     70.13 kcal/mol

In case the symmetry of your molecule has not been determined correctly
or in case you have a reason to use a different symmetry number we print 
out the resulting rotational entropy values for sn=1,12:

 non-linear molecules -----------------------------------
|  sn= 1 | S(rot)=       0.01799531 Eh     11.29 kcal/mol|
|  sn= 2 | S(rot)=       0.01734086 Eh     10.88 kcal/mol|
|  sn= 3 | S(rot)=       0.01695802 Eh     10.64 kcal/mol|
|  sn= 4 | S(rot)=       0.01668640 Eh     10.47 kcal/mol|
|  sn= 5 | S(rot)=       0.01647571 Eh     10.34 kcal/mol|
|  sn= 6 | S(rot)=       0.01630357 Eh     10.23 kcal/mol|
|  sn= 7 | S(rot)=       0.01615802 Eh     10.14 kcal/mol|
|  sn= 8 | S(rot)=       0.01603194 Eh     10.06 kcal/mol|
|  sn= 9 | S(rot)=       0.01592074 Eh      9.99 kcal/mol|
|  sn=10 | S(rot)=       0.01582126 Eh      9.93 kcal/mol|
|  sn=11 | S(rot)=       0.01573127 Eh      9.87 kcal/mol|
|  sn=12 | S(rot)=       0.01564911 Eh      9.82 kcal/mol|
 linear molecules ---------------------------------------
|  Dinfh | S(rot)=       0.01131132 Eh      7.10 kcal/mol|
|  Cinfv | S(rot)=       0.01196578 Eh      7.51 kcal/mol|
 --------------------------------------------------------


-------------------
GIBBS FREE ENERGY
-------------------

The Gibbs free energy is G = H - T*S

Total enthalpy                    ...  -2031.91108988 Eh 
Total entropy correction          ...     -0.11176204 Eh    -70.13 kcal/mol
-----------------------------------------------------------------------
Final Gibbs free energy         ...  -2032.02285192 Eh

For completeness - the Gibbs free energy minus the electronic energy
G-E(el)                           ...      0.61154304 Eh    383.75 kcal/mol


Maximum memory used throughout the entire PROP-calculation: 1820.8 MB
--------------------------------------------------------------------------
WARNING: There was an error initializing an OpenFabrics device.

  Local host:   c01b01n01
  Local device: mlx5_0
--------------------------------------------------------------------------
--------------------------------------------------------------------------
WARNING: There is at least one non-excluded one OpenFabrics device found,
but there are no active ports detected (or Open MPI was unable to use
them).  This is most certainly not what you wanted.  Check your
cables, subnet manager configuration, etc.  The openib BTL will be
ignored for this job.

  Local host: c01b01n01
--------------------------------------------------------------------------
[c01b01n01:659997] 60 more processes have sent help message help-mpi-btl-openib.txt / error in device init
[c01b01n01:659997] Set MCA parameter "orte_base_help_aggregate" to 0 to see all help / error messages
[c01b01n01:659997] 2 more processes have sent help message help-mpi-btl-openib.txt / no active ports found

--------------------------------
SUGGESTED CITATIONS FOR THIS RUN
--------------------------------

Below you find a list of papers that are relevant to this ORCA run
We neither can nor want to force you to cite these papers, but we appreciate if you do
You receive ORCA, which is the product of decades of hard work by many enthusiastic individuals, for free
The only thing we kindly ask in return is that you cite our papers,
We deeply appreciate it, if you show your appreciation for ORCA by not just citing the generic ORCA reference.

Please note that relegating all ORCA citations to the supporting information does *not* help us.
SI sections are not indexed - citations you put there will not count into any citation statistics
But we need these citations in order to attract the funding resources that allow us to do what we are doing

Therefore, if you are a happy ORCA user, please consider citing a few of the papers listed below in the main body of your paper

In addition to the list printed below, the program has created the file opt-conf-3.bibtex that contains the list in bibtex format
You can import this file easily into all common literature databanks and citation aid programs


List of essential papers. We consider these as the minimum necessary citations

  1. Neese, F.
     Software update: the ORCA program system, version 6.0
     WIRES Comput. Molec. Sci. 2025 15(1), e70019
     doi.org/10.1002/wcms.7019

List of papers to cite with high priority. The work reported in these papers was absolutely
necessary for this run to complete.
Our perspective: the developers of density functionals and basis sets usually get cited in chemistry papers
Good! But without the algorithms to do something with them, the functionals or basis sets would not do anything.
Hence, in our opinion, the algorithm design and method developments papers are equally worthy of getting cited

  1. Neese, F.
     An improvement of the resolution of the identity approximation for the formation of the Coulomb matrix
     J. Comp. Chem. 2003 24(14), 1740-1747
     doi.org/10.1002/jcc.10318
  2. Neese, F.; Wennmohs, F.; Hansen, A.; Becker, U.
     Efficient, approximate and parallel Hartree-Fock and hybrid DFT calculations. A 'chain-of-spheres' algorithm for the Hartree-Fock exchange
     Chem. Phys. 2009 356(1-3), 98-109
     doi.org/10.1016/j.chemphys.2008.10.036
  3. Bykov, D.; Petrenko, T.; Izsak, R.; Kossmann, S.; Becker, U.; Valeev, E.; Neese, F.
     Efficient implementation of the analytic second derivatives of Hartree-Fock and hybrid DFT energies: a detailed analysis of different approximations
     Molec. Phys. 2015 113 , 1961-1977
     doi.org/10.1080/00268976.2015.1025114
  4. Caldeweyher, E.; Bannwarth, C.; Grimme, S.
     Extension of the D3 dispersion coefficient model
     J. Chem. Phys. 2017 147 , 034112
     doi.org/10.1063/1.4993215
  5. Caldeweyher, E.; Ehlert, S.; Hansen, A.; Neugebauer, H.; Spicher, S.; Bannwarth, C.; Grimme, S.
     A generally applicable atomic-charge dependent London dispersion correction
     J. Chem. Phys. 2019 150 , 154122
     doi.org/10.1063/1.5090222
  6. Garcia-Rates, M.; Neese, F.
     Efficient implementation of the analytical second derivatives of hartree-fock and hybrid DFT energies within the framework of the conductor-like polarizable continuum model
     J. Comput. Chem. 2019 40 , 1816-1828
     doi.org/10.1002/jcc.25833
  7. Caldeweyher, E.; Mewes, J.; Ehlert, S.; Grimme, S.
     Extension and evaluation of the D4 London-dispersion model for periodic systems
     Phys. Chem. Chem. Phys. 2020 22(16), 8499-8512
     doi.org/10.1039/D0CP00502A
  8. Garcia-Rates, M.; Neese, F.
     Effect of the Solute Cavity on the Solvation Energy and its Derivatives within the Framework of the Gaussian Charge Scheme
     J. Comput. Chem. 2020 41 , 922-939
     doi.org/10.1002/jcc.26139
  9. Helmich-Paris, B.; de Souza, B.; Neese, F.; Izsák, R.
     An improved chain of spheres for exchange algorithm
     J. Chem. Phys. 2021 155(10), 104109
     doi.org/10.1063/5.0058766
 10. Neese, F.
     The SHARK Integral Generation and Digestion System
     J. Comp. Chem. 2022 44(3), 381
     doi.org/10.1002/jcc.26942
 11. Wittmann, L.; Gordiy, I.; Friede, M.; Helmich-Paris, B.; Grimme, S.; Hansen, A.; Bursch, M.
     Extension of the D3 and D4 London Dispersion Corrections to the full Actinides Series
     Phys. Chem. Chem. Phys. 2024 26(32), 21379-21394
     doi.org/10.1039/D4CP01514B

List of suggested additional citations. These are papers that are important in the 'surrounding' of 
of this run, or papers that preceded the highly important papers. If you like your results we are grateful for a citation.

  1. Izsak, R.; Neese, F.
     An overlap fitted chain of spheres exchange method
     J. Chem. Phys. 2011 135 , 144105
     doi.org/10.1063/1.3646921
  2. Izsak, R.; Hansen, A.; Neese, F.
     The resolution of identity and chain of spheres approximations for the LPNO-CCSD singles Fock term
     Molec. Phys. 2012 110 , 2413-2417
     doi.org/10.1080/00268976.2012.687466
  3. Neese, F.
     The ORCA program system
     WIRES Comput. Molec. Sci. 2012 2(1), 73-78
     doi.org/10.1002/wcms.81
  4. Izsak, R.; Neese, F.; Klopper, W.
     Robust fitting techniques in the chain of spheres approximation to the Fock exchange: The role of the complementary space
     J. Chem. Phys. 2013 139 , 
     doi.org/10.1063/1.4819264
  5. Neese, F.
     Software update: the ORCA program system, version 4.0
     WIRES Comput. Molec. Sci. 2018 8(1), 1-6
     doi.org/10.1002/wcms.1327
  6. Neese, F.; Wennmohs, F.; Becker, U.; Riplinger, C.
     The ORCA quantum chemistry program package
     J. Chem. Phys. 2020 152(22), 224108
     doi.org/10.1063/5.0004608
  7. Neese, F.
     Software update: The ORCA program system—Version 5.0
     WIRES Comput. Molec. Sci. 2022 12(1), e1606
     doi.org/10.1002/wcms.1606

List of optional additional citations

  1. Neese, F.
     Approximate second-order SCF convergence for spin unrestricted wavefunctions
     Chem. Phys. Lett. 2000 325(1-3), 93-98
     doi.org/10.1016/s0009-2614(00)00662-x

Timings for individual modules:

Sum of individual times          ...     8334.307 sec (= 138.905 min)
Startup calculation              ...      458.257 sec (=   7.638 min)   5.5 %
SCF iterations                   ...     3000.863 sec (=  50.014 min)  36.0 %
Property integrals               ...     1084.456 sec (=  18.074 min)  13.0 %
SCF Response                     ...     2361.990 sec (=  39.366 min)  28.3 %
Property calculations            ...      495.160 sec (=   8.253 min)   5.9 %
SCF Gradient evaluation          ...      925.801 sec (=  15.430 min)  11.1 %
Geometry relaxation              ...        7.780 sec (=   0.130 min)   0.1 %
                             ****ORCA TERMINATED NORMALLY****
TOTAL RUN TIME: 0 days 2 hours 25 minutes 15 seconds 20 msec
