
                                 *****************
                                 * O   R   C   A *
                                 *****************

                                            #,                                       
                                            ###                                      
                                            ####                                     
                                            #####                                    
                                            ######                                   
                                           ########,                                 
                                     ,,################,,,,,                         
                               ,,#################################,,                 
                          ,,##########################################,,             
                       ,#########################################, ''#####,          
                    ,#############################################,,   '####,        
                  ,##################################################,,,,####,       
                ,###########''''           ''''###############################       
              ,#####''   ,,,,##########,,,,          '''####'''          '####       
            ,##' ,,,,###########################,,,                        '##       
           ' ,,###''''                  '''############,,,                           
         ,,##''                                '''############,,,,        ,,,,,,###''
      ,#''                                            '''#######################'''  
     '                                                          ''''####''''         
             ,#######,   #######,   ,#######,      ##                                
            ,#'     '#,  ##    ##  ,#'     '#,    #''#        ,####,    ,#,          
            ##       ##  ##   ,#'  ##            #'  '#       #'       ,# #          
            ##       ##  #######   ##           ,######,      #####,      #          
            '#,     ,#'  ##    ##  '#,     ,#' ,#      #,     #,   #      #          
             '#######'   ##     ##  '#######'  #'      '#     '####' #    #          



                #########################################################
                #                        -***-                          #
                #          Department of theory and spectroscopy        #
                #                                                       #
                #                      Frank Neese                      #
                #                                                       #
                #     Directorship, Architecture, Infrastructure        #
                #                    SHARK, DRIVERS                     #
                #        Core code/Algorithms in most modules           #
                #                                                       #
                #        Max Planck Institute fuer Kohlenforschung      #
                #                Kaiser Wilhelm Platz 1                 #
                #                 D-45470 Muelheim/Ruhr                 #
                #                      Germany                          #
                #                                                       #
                #                  All rights reserved                  #
                #                        -***-                          #
                #########################################################


                         Program Version 6.1.0-f.0  -   RELEASE   -


 With contributions from (in alphabetic order):
[Max-Planck-Institut fuer Kohlenforschung]                               
  Daniel Aravena         : Magnetic Suceptibility                        
  Michael Atanasov       : Ab Initio Ligand Field Theory (pilot matlab implementation)
  Alexander A. Auer      : GIAO ZORA, VPT2 properties, NMR spectrum      
  Ute Becker             : All parallelization in ORCA, NUMFREQ, NUMCALC 
  Giovanni Bistoni       : ED, misc. LED, open-shell LED, HFLD           
  Dmytro Bykov           : pre 5.0 version of the SCF Hessian            
  Marcos Casanova-Páez   : Triplet and SCS-CIS(D). UHF-(DLPNO)-IP/EA/STEOM-CCSD. UHF-CVS-IP/STEOM-CCSD   
  Vijay G. Chilkuri      : MRCI spin determinant printing, contributions to CSF-ICE 
  Pauline Colinet        : FMM embedding                                 
  Dipayan Datta          : RHF DLPNO-CCSD density                        
  Achintya Kumar Dutta   : EOM-CC, STEOM-CC                              
  Nicolas Foglia         : Exact transition moments, OPA infrastructure, MCD improvements    
  Dmitry Ganyushin       : Spin-Orbit,Spin-Spin,Magnetic field MRCI      
  Miquel Garcia-Rates    : C-PCM and meta-GGA Hessian, CCSD/C-PCM, Gaussian charge scheme 
  Tiago L. C. Gouveia    : GS-ROHF, GS-ROCIS                             
  Yang Guo               : DLPNO-NEVPT2, F12-NEVPT2, CIM, IAO-localization        
  Andreas Hansen         : Spin unrestricted coupled pair/coupled cluster methods 
  Ingolf Harden          : AUTO-CI MPn and infrastructure                
  Benjamin Helmich-Paris : MC-RPA, TRAH-(SCF,CASSCF), AVAS, COSX integrals, SCF dyn. polar., MC-PDFT, srDFT 
  Lee Huntington         : MR-EOM, pCC                                   
  Robert Izsak           : Overlap fitted RIJCOSX, COSX-SCS-MP3, EOM     
  Riya Kayal             : Wick's Theorem for AUTO-CI, AUTO-CI UHF-CCSDT 
  Emily Kempfer          : AUTO-CI RHF CISDT and CCSDT, approximate NEVPT4
  Christian Kollmar      : KDIIS, OOCD, Brueckner-CCSD(T), CCSD density, CASPT2, CASPT2-K, improved NEVPT2 
  Axel Koslowski         : Symmetry handling                             
  Simone Kossmann        : meta-GGA functionals, TD-DFT gradient, OOMP2, (MP2 Hessian; deprecated post 5.0) 
  Lucas Lang             : DCDCAS, Hyperfine gauge corrections, ICE-SOC+SSC
  Marvin Lechner         : AUTO-CI (C++ implementation), FIC-MRCC        
  Spencer Leger          : CASSCF response                               
  Dagmar Lenk            : GEPOL surface, SMD, ORCA-2-JSON               
  Dimitrios Liakos       : Extrapolation schemes; Compound Job, Property file
  Dimitrios Manganas     : Further ROCIS development; embedding schemes. LFT, Crystal Embedding 
  Dimitrios Pantazis     : SARC Basis sets                               
  Anastasios Papadopoulos: AUTO-CI, single reference methods and gradients 
  Taras Petrenko         : pre 6.0 DFT Hessian and TD-DFT gradient,  ECA, NRVS 
  Petra Pikulova         : Analytic Raman intensities                    
  Peter Pinski           : DLPNO-MP2, DLPNO-MP2 Gradient                 
  Shashank Vittal Rao    : ES-AILFT, MagRelax                            
  Christoph Reimann      : Effective Core Potentials                     
  Marius Retegan         : Local ZFS, SOC                                
  Christoph Riplinger    : Optimizer, TS searches, QM/MM, DLPNO-CCSD(T), (RO)-DLPNO pert. Triples 
  Michael Roemelt        : Original ROCIS implementation, recursive CI coupling coefficients
  Masaaki Saitow         : Open-shell DLPNO-CCSD energy and density      
  Barbara Sandhoefer     : DKH picture change effects                    
  Yorick L. A. Schmerwitz: GMF and freeze-and-release deltaSCF, NEB S-IDPP initial path                    
  Kantharuban Sivalingam : CASSCF convergence/infrastructure, NEVPT2, NEVPT3, NEVPT4(SD), FIC-MRCI and CEPA variants
  Bernardo de Souza      : ESD, SOC TD-DFT                               
  Georgi L. Stoychev     : AutoAux, RI-MP2 NMR, DLPNO-MP2 response, X2C  
  Van Anh Tran           : RI-MP2 g-tensors                              
  Willem Van den Heuvel  : Paramagnetic NMR                              
  Zikuan Wang            : NOTCH, Electric field optimization            
  Frank Wennmohs         : Technical directorship and infrastructure     
  Hang Xu                : AUTO-CI-Response properties                   
                                                                         
[FACCTs GmbH]                                                            
  Markus Bursch, Nicolas Foglia, Miquel Garcia-Rates, Ingolf Harden, Hagen Neugebauer, Anastasios Papadopoulos, 
  Christoph Riplinger, Bernardo de Souza, Georgi L. Stoychev                                                    
                                                                 
  APM, various basis sets, CI-OPT, improved COSX, DLPNO-Multilevel,           
  DOCKER, DRACO, updates on ESD, Fragmentator, GOAT, IRC, LR-CPCM, L-BFGS, MBIS, meta-GGA TD-DFT gradient, ML-optimized integration grids, 
  MM, NACMEs, nearIR, NEB, NEB-TS, NL-DFT gradient (VV10), 2- and 3-layer-ONIOM, interface openCOSMO-RS, QMMM,   
  Crystal-QMMM, RESP, rigid body optimization, SF, symmetry and pop. for TD-DFT, various functionals, SOLVATOR                                   
                                                                         
[Other institutions]                                                     
  V. Asgeirsson          : NEB                                           
  Christoph Bannwarth    : sTDA-DFT, sTD-DFT, PBEh-3c, B97-3c, D3        
  Giovanni Bistoni       : ETS/NOCV, ADLD/ADEX, COVALED                  
  Martin Brehm           : Molecular dynamics                            
  Ronald Cardenas        : ETS/NOCV                                      
  Martina Colucci        : COVALED                                       
  Sebastian Ehlert       : rSCAN, r2SCAN, r2SCAN-3c, D4, dhf basis sets  
  Marvin Friede          : D4 for Fr, Ra, Ac-Lr                          
  Lars Goerigk           : TD-DFT with DH, B97 family of functionals     
  Stefan Grimme          : VdW corrections, initial TS optimization, DFT functionals, gCP, sTDA/sTD-DF 
  Waldemar Hujo          : DFT-NL                                        
  H. Jonsson             : NEB                                           
  Holger Kruse           : gCP                                           
  Marcel Mueller         : wB97X-3c, vDZP basis set                      
  Hagen Neugebauer       : wr2SCAN, Native XTB                           
  Gianluca Regni         : ADLD/ADEX                                     
  Tobias Risthaus        : pre 6.0 range-separated hybrid DFT and stability analysis
  Lukas Wittmann         : regularized MP2, r2SCAN double-hybrids, wr2SCAN        
                                                                         
We gratefully acknowledge several colleagues who have allowed us to      
interface, adapt or use parts of their codes:                            
  Ed Valeev, F. Pavosevic, A. Kumar             : LibInt (2-el integral package), F12 methods 
  Garnet Chan, S. Sharma, J. Yang, R. Olivares  : DMRG                   
  Ulf Ekstrom                                   : XCFun DFT Library      
  Mihaly Kallay                                 : mrcc  (arbitrary order and MRCC methods)
  Frank Weinhold                                : gennbo (NPA and NBO analysis)           
  Simon Mueller                                 : openCOSMO-RS                            
  Christopher J. Cramer and Donald G. Truhlar   : smd solvation model                     
  S Lehtola, MJT Oliveira, MAL Marques          : LibXC Library                           
  Liviu Ungur et al                             : ANISO software                          


 Your calculation uses the libint2 library for the computation of 2-el integrals
 For citations please refer to: http://libint.valeyev.net

 Your ORCA version has been built with support for libXC version: 7.0.0
 For citations please refer to: https://libxc.gitlab.io

 This ORCA versions uses:
   CBLAS   interface :  Fast vector & matrix operations
   LAPACKE interface :  Fast linear algebra routines
   SCALAPACK package :  Parallel linear algebra routines
   Shared memory     :  Shared parallel matrices
   BLAS/LAPACK       :  OpenBLAS 0.3.29  USE64BITINT DYNAMIC_ARCH NO_AFFINITY Cooperlake SINGLE_THREADED
        Core in use  :  Cooperlake
   Copyright (c) 2011-2014, The OpenBLAS Project


  ***********************************
  * Starting time: Wed Mar  4 02:51:55 2026
  * Host name:     c07b01n02
  * Process ID:    1599063
  * Working dir.:  /lustre1/jiangy/jiangy_liuxy/NMR/B9D7C2-RSSR
  ***********************************

NOTE: MaxCore=6000 MB was set to SCF,MP2,MDCI,CIPSI,MRCI,RASCI and CIS
      => If you want to overwrite this, your respective input block should be placed after the MaxCore statement


***************************************
The coordinates will be read from file: conf-4.xyz
***************************************


Your calculation utilizes the atom-pairwise dispersion correction
based on EEQ partial charges (D4)


Warning: RI is on but no J-basis has been assigned. Assigning Def2/J (nothing to worry about!)
================================================================================

----- Orbital basis set information -----
Your calculation utilizes the basis: def2-TZVP
   F. Weigend and R. Ahlrichs, Phys. Chem. Chem. Phys. 7, 3297 (2005).

----- AuxJ basis set information -----
Your calculation utilizes the auxiliary basis: def2/J
   H-Rn: F. Weigend, Phys. Chem. Chem. Phys. 8, 1057 (2006).
   Fr-Lr: K. Eichkorn, F. Weigend, O. Treutler, R. Ahlrichs; Theor. Chem. Acc. 97, 119 (1997).

================================================================================
                                        WARNINGS
                       Please study these warnings very carefully!
================================================================================


WARNING: Geometry Optimization
  ===> : Switching off AutoStart
         For restart on a previous wavefunction, please use MOREAD

================================================================================
                                       INPUT FILE
================================================================================
NAME = opt-conf-4.inp
|  1> ! B3LYP OPT FREQ DEF2-TZVP D4 CPCM(Methanol) 
|  2> ! TightOpt
|  3> %pal nprocs 64 end
|  4> %maxcore 6000
|  5> 
|  6> %cpcm
|  7> end
|  8> 
|  9> %freq
| 10>    Temp 298.15
| 11> end
| 12> 
| 13> * xyzfile 0 1 conf-4.xyz
| 14> 
| 15> 
| 16>                          ****END OF INPUT****
================================================================================

                       *****************************
                       * Geometry Optimization Run *
                       *****************************

Geometry optimization settings:
Update method            Update   .... BFGS
Choice of coordinates    CoordSys .... (2022) Redundant Internals
Initial Hessian          InHess   .... Almloef's Model
Max. no of cycles        MaxIter  .... 246

Convergence Tolerances:
Energy Change            TolE     ....  1.0000e-06 Eh
Max. Gradient            TolMAXG  ....  1.0000e-04 Eh/bohr
RMS Gradient             TolRMSG  ....  3.0000e-05 Eh/bohr
Max. Displacement        TolMAXD  ....  1.0000e-03 bohr
RMS Displacement         TolRMSD  ....  6.0000e-04 bohr
Strict Convergence                .... False

------------------------------------------------------------------------------
                        ORCA OPTIMIZATION COORDINATE SETUP
------------------------------------------------------------------------------

The optimization will be done in redundant internal coordinates (2022)
Making redundant internal coordinates   ...  (2022 redundants) done
Evaluating the initial hessian          ...  (Almloef) done
Evaluating the coordinates              ...  done
Calculating the B-matrix                .... done
Calculating the G-matrix                .... done
The number of degrees of freedom        ....  405

    -----------------------------------------------------------------
                    Redundant Internal Coordinates


    -----------------------------------------------------------------
         Definition                    Initial Value    Approx d2E/dq
    -----------------------------------------------------------------
      1. B(C   1,C   0)                  1.3981         0.606401   
      2. B(C   2,C   1)                  1.4081         0.584698   
      3. B(C   3,C   2)                  1.3856         0.634981   
      4. B(C   4,C   3)                  1.3883         0.628822   
      5. B(C   5,C   4)                  1.3811         0.645648   
      6. B(C   5,C   0)                  1.3930         0.617912   
      7. B(C   6,C   4)                  1.5016         0.414639   
      8. B(C   7,C   6)                  1.5349         0.366964   
      9. B(C   8,C   7)                  1.5408         0.358988   
     10. B(C   9,C   8)                  1.5380         0.362811   
     11. B(C  10,C   9)                  1.5034         0.411897   
     12. B(C  11,C  10)                  1.3935         0.616893   
     13. B(C  12,C  11)                  1.3821         0.643086   
     14. B(C  13,C  12)                  1.4052         0.590857   
     15. B(C  14,C  13)                  1.3825         0.642219   
     16. B(C  15,C  10)                  1.3850         0.636330   
     17. B(C  15,C  14)                  1.3851         0.636095   
     18. B(C  16,C   7)                  1.5368         0.364346   
     19. B(C  17,C   8)                  1.5358         0.365748   
     20. B(O  18,C   2)                  1.3678         0.607117   
     21. B(O  19,C   0)                  1.3677         0.607355   
     22. B(O  20,C   1)                  1.3840         0.572046   
     23. B(O  21,C  13)                  1.3616         0.621225   
     24. B(O  22,C  12)                  1.3793         0.582051   
     25. B(C  23,O  20)                  1.4167         0.507271   
     26. B(C  24,C  23)                  1.5545         0.341472   
     27. B(C  25,C  24)                  1.5092         0.403276   
     28. B(C  26,C  23)                  1.5385         0.362093   
     29. B(O  27,C  26)                  1.3991         0.541114   
     30. B(C  28,C  25)                  1.3902         0.624299   
     31. B(C  29,C  28)                  1.3825         0.642316   
     32. B(C  30,C  29)                  1.4037         0.594092   
     33. B(C  31,C  30)                  1.3816         0.644313   
     34. B(C  32,C  31)                  1.3849         0.636648   
     35. B(C  32,C  25)                  1.3866         0.632679   
     36. B(C  33,O  19)                  1.4135         0.513372   
     37. B(C  34,O  18)                  1.4070         0.525698   
     38. B(C  35,O  22)                  1.4070         0.525655   
     39. B(O  36,C  24)                  1.4172         0.506422   
     40. B(O  37,C  16)                  1.4082         0.523484   
     41. B(O  38,C  17)                  1.4061         0.527466   
     42. B(O  39,C  29)                  1.3668         0.609291   
     43. B(O  40,C  30)                  1.3668         0.609327   
     44. B(C  41,O  39)                  1.4115         0.517042   
     45. B(H  42,C   3)                  1.0777         0.376809   
     46. B(H  43,C   5)                  1.0788         0.375182   
     47. B(H  44,C   6)                  1.0901         0.359928   
     48. B(H  45,C   6)                  1.0907         0.359233   
     49. B(H  46,C   7)                  1.0966         0.351478   
     50. B(H  47,C   8)                  1.0972         0.350697   
     51. B(H  48,C   9)                  1.0943         0.354473   
     52. B(H  49,C   9)                  1.0914         0.358313   
     53. B(H  50,C  11)                  1.0777         0.376760   
     54. B(H  51,C  14)                  1.0779         0.376411   
     55. B(H  52,C  15)                  1.0796         0.374056   
     56. B(H  53,C  16)                  1.0914         0.358262   
     57. B(H  54,C  16)                  1.0981         0.349597   
     58. B(H  55,C  17)                  1.1021         0.344415   
     59. B(H  56,C  17)                  1.0917         0.357842   
     60. B(H  57,O  21)                  0.9668         0.507085   
     61. B(H  57,O  22)                  2.1183         0.010000   
     62. B(H  58,C  23)                  1.0949         0.353703   
     63. B(H  59,C  24)                  1.0961         0.352142   
     64. B(H  60,C  26)                  1.1004         0.346656   
     65. B(H  61,C  26)                  1.0923         0.357041   
     66. B(H  62,O  36)                  1.9858         0.012006   
     67. B(H  62,O  27)                  0.9702         0.500828   
     68. B(H  63,C  28)                  1.0774         0.377151   
     69. B(H  64,C  31)                  1.0783         0.375857   
     70. B(H  65,C  32)                  1.0811         0.372134   
     71. B(H  66,C  33)                  1.0914         0.358285   
     72. B(H  67,C  33)                  1.0919         0.357562   
     73. B(H  68,C  33)                  1.0907         0.359171   
     74. B(H  69,C  34)                  1.0891         0.361276   
     75. B(H  70,H  64)                  4.5749         0.010000   
     76. B(H  70,C  34)                  1.0949         0.353677   
     77. B(H  71,C  34)                  1.0939         0.354940   
     78. B(H  72,H  64)                  4.8810         0.010000   
     79. B(H  72,C  35)                  1.0941         0.354746   
     80. B(H  73,C  35)                  1.0888         0.361683   
     81. B(H  74,C  35)                  1.0941         0.354689   
     82. B(H  75,O  36)                  0.9646         0.511205   
     83. B(H  76,O  40)                  1.9623         0.013087   
     84. B(H  76,O  37)                  0.9697         0.501807   
     85. B(H  77,O  38)                  0.9646         0.511251   
     86. B(H  78,O  39)                  2.0901         0.010000   
     87. B(H  78,O  40)                  0.9697         0.501676   
     88. B(H  79,C  41)                  1.0942         0.354602   
     89. B(H  80,O  19)                  2.4829         0.010000   
     90. B(H  80,C  41)                  1.0927         0.356512   
     91. B(H  81,O  21)                  2.3818         0.010000   
     92. B(H  81,C  41)                  1.0879         0.362879   
     93. A(C   1,C   0,O  19)          125.3649         0.427929   
     94. A(C   5,C   0,O  19)          114.6839         0.429374   
     95. A(C   1,C   0,C   5)          119.9409         0.432076   
     96. A(C   0,C   1,O  20)          119.7452         0.423365   
     97. A(C   0,C   1,C   2)          118.4884         0.427813   
     98. A(C   2,C   1,O  20)          121.6163         0.420618   
     99. A(C   3,C   2,O  18)          123.5080         0.431450   
    100. A(C   1,C   2,C   3)          120.2958         0.431363   
    101. A(C   1,C   2,O  18)          116.1953         0.425114   
    102. A(C   4,C   3,H  42)          118.7268         0.356486   
    103. A(C   2,C   3,H  42)          120.3231         0.357077   
    104. A(C   2,C   3,C   4)          120.9486         0.437047   
    105. A(C   5,C   4,C   6)          120.5986         0.406937   
    106. A(C   3,C   4,C   6)          120.5789         0.405042   
    107. A(C   3,C   4,C   5)          118.8215         0.438362   
    108. A(C   4,C   5,H  43)          120.9479         0.357826   
    109. A(C   0,C   5,H  43)          117.6999         0.355168   
    110. A(C   0,C   5,C   4)          121.3514         0.436981   
    111. A(C   4,C   6,H  44)          109.9888         0.329913   
    112. A(C   7,C   6,H  45)          108.9162         0.323242   
    113. A(C   4,C   6,C   7)          110.5973         0.368772   
    114. A(H  44,C   6,H  45)          108.8786         0.290707   
    115. A(C   4,C   6,H  45)          109.0308         0.329808   
    116. A(C   7,C   6,H  44)          109.3968         0.323344   
    117. A(C   6,C   7,C  16)          110.2372         0.360702   
    118. A(C   8,C   7,C  16)          110.6179         0.359354   
    119. A(C  16,C   7,H  46)          107.0225         0.321710   
    120. A(C   8,C   7,H  46)          106.8799         0.320931   
    121. A(C   6,C   7,H  46)          107.6527         0.322088   
    122. A(C   6,C   7,C   8)          114.0887         0.359793   
    123. A(C   7,C   8,C  17)          114.5985         0.359590   
    124. A(C  17,C   8,H  47)          107.3600         0.321795   
    125. A(C   7,C   8,C   9)          111.7259         0.359096   
    126. A(C   9,C   8,H  47)          108.5369         0.321371   
    127. A(C   7,C   8,H  47)          105.8831         0.320814   
    128. A(C   9,C   8,C  17)          108.4755         0.360239   
    129. A(H  48,C   9,H  49)          107.2689         0.289895   
    130. A(C  10,C   9,H  48)          108.8583         0.328722   
    131. A(C  10,C   9,H  49)          109.1360         0.329307   
    132. A(C   8,C   9,C  10)          113.7864         0.367633   
    133. A(C   8,C   9,H  48)          108.3229         0.321935   
    134. A(C   8,C   9,H  49)          109.2654         0.322504   
    135. A(C   9,C  10,C  11)          120.1850         0.403203   
    136. A(C  11,C  10,C  15)          118.8974         0.435708   
    137. A(C   9,C  10,C  15)          120.9143         0.405417   
    138. A(C  10,C  11,C  12)          120.6649         0.436538   
    139. A(C  10,C  11,H  50)          119.1408         0.355321   
    140. A(C  12,C  11,H  50)          120.1942         0.357840   
    141. A(C  11,C  12,C  13)          119.8865         0.433162   
    142. A(C  13,C  12,O  22)          114.5800         0.422713   
    143. A(C  11,C  12,O  22)          125.5335         0.429172   
    144. A(C  12,C  13,O  21)          120.2845         0.427669   
    145. A(C  12,C  13,C  14)          119.3583         0.433057   
    146. A(C  14,C  13,O  21)          120.3572         0.434119   
    147. A(C  13,C  14,H  51)          118.7634         0.357701   
    148. A(C  13,C  14,C  15)          120.1730         0.438850   
    149. A(C  15,C  14,H  51)          121.0632         0.357119   
    150. A(C  14,C  15,H  52)          119.2005         0.356739   
    151. A(C  10,C  15,H  52)          119.8013         0.356761   
    152. A(C  10,C  15,C  14)          120.9935         0.438122   
    153. A(O  37,C  16,H  54)          110.5184         0.339220   
    154. A(C   7,C  16,H  54)          108.5335         0.321428   
    155. A(O  37,C  16,H  53)          106.3803         0.340611   
    156. A(C   7,C  16,H  53)          110.3738         0.322720   
    157. A(C   7,C  16,O  37)          112.4370         0.381028   
    158. A(H  53,C  16,H  54)          108.5282         0.289260   
    159. A(O  38,C  17,H  56)          105.6079         0.340976   
    160. A(C   8,C  17,O  38)          114.5189         0.381784   
    161. A(H  55,C  17,H  56)          107.7283         0.288531   
    162. A(C   8,C  17,H  56)          110.8600         0.322861   
    163. A(O  38,C  17,H  55)          109.7124         0.338804   
    164. A(C   8,C  17,H  55)          108.2133         0.320845   
    165. A(C   2,O  18,C  34)          118.8001         0.414419   
    166. A(C   0,O  19,C  33)          119.8871         0.412705   
    167. A(C   1,O  20,C  23)          118.5611         0.407483   
    168. A(C  13,O  21,H  57)          107.7329         0.368651   
    169. A(C  12,O  22,C  35)          118.0477         0.411322   
    170. A(C  26,C  23,H  58)          108.4880         0.321716   
    171. A(C  24,C  23,H  58)          108.9488         0.318648   
    172. A(O  20,C  23,H  58)          111.3796         0.338103   
    173. A(C  24,C  23,C  26)          111.0895         0.355936   
    174. A(O  20,C  23,C  26)          106.0271         0.378549   
    175. A(O  20,C  23,C  24)          110.8712         0.374732   
    176. A(C  23,C  24,O  36)          110.6109         0.374623   
    177. A(O  36,C  24,H  59)          104.8830         0.337759   
    178. A(C  25,C  24,H  59)          109.8157         0.327221   
    179. A(C  23,C  24,H  59)          108.2844         0.318418   
    180. A(C  25,C  24,O  36)          111.9876         0.385583   
    181. A(C  23,C  24,C  25)          111.0202         0.362524   
    182. A(C  28,C  25,C  32)          119.4685         0.436193   
    183. A(C  24,C  25,C  32)          120.5893         0.403496   
    184. A(C  24,C  25,C  28)          119.9410         0.402548   
    185. A(O  27,C  26,H  61)          106.8594         0.342308   
    186. A(H  60,C  26,H  61)          108.4295         0.288723   
    187. A(C  23,C  26,H  61)          108.3598         0.322211   
    188. A(O  27,C  26,H  60)          111.2460         0.340622   
    189. A(C  23,C  26,H  60)          108.7459         0.320658   
    190. A(C  23,C  26,O  27)          113.0541         0.382813   
    191. A(C  26,O  27,H  62)          107.2793         0.359286   
    192. A(C  29,C  28,H  63)          120.2372         0.357830   
    193. A(C  25,C  28,H  63)          119.2251         0.356104   
    194. A(C  25,C  28,C  29)          120.5345         0.437383   
    195. A(C  30,C  29,O  39)          114.7672         0.426602   
    196. A(C  28,C  29,O  39)          125.7523         0.432619   
    197. A(C  28,C  29,C  30)          119.4744         0.433494   
    198. A(C  31,C  30,O  40)          120.5333         0.432865   
    199. A(C  29,C  30,O  40)          119.4930         0.426607   
    200. A(C  29,C  30,C  31)          119.9735         0.433737   
    201. A(C  32,C  31,H  64)          120.8049         0.357082   
    202. A(C  30,C  31,H  64)          119.2186         0.357810   
    203. A(C  30,C  31,C  32)          119.9763         0.439177   
    204. A(C  31,C  32,H  65)          118.7431         0.356479   
    205. A(C  25,C  32,H  65)          120.7182         0.356101   
    206. A(C  25,C  32,C  31)          120.5379         0.437736   
    207. A(H  67,C  33,H  68)          108.7293         0.290399   
    208. A(H  66,C  33,H  68)          109.6718         0.290491   
    209. A(O  19,C  33,H  68)          111.3672         0.339646   
    210. A(H  66,C  33,H  67)          109.5223         0.290286   
    211. A(O  19,C  33,H  67)          112.0040         0.339392   
    212. A(O  19,C  33,H  66)          105.4907         0.339506   
    213. A(H  69,C  34,H  71)          109.3336         0.290330   
    214. A(O  18,C  34,H  71)          111.5301         0.340321   
    215. A(H  69,C  34,H  70)          109.3803         0.290167   
    216. A(O  18,C  34,H  70)          111.6458         0.340118   
    217. A(O  18,C  34,H  69)          105.3645         0.341329   
    218. A(H  70,C  34,H  71)          109.4811         0.289363   
    219. A(H  73,C  35,H  74)          109.2678         0.290349   
    220. A(H  72,C  35,H  74)          109.6811         0.289468   
    221. A(O  22,C  35,H  74)          111.3656         0.340276   
    222. A(H  72,C  35,H  73)          109.4596         0.290356   
    223. A(O  22,C  35,H  73)          105.6255         0.341389   
    224. A(O  22,C  35,H  72)          111.3407         0.340285   
    225. A(C  24,O  36,H  75)          108.4534         0.356502   
    226. A(C  16,O  37,H  76)          107.4898         0.357386   
    227. A(C  17,O  38,H  77)          108.3018         0.358984   
    228. A(C  29,O  39,C  41)          117.8746         0.413461   
    229. A(C  30,O  40,H  78)          107.2371         0.366754   
    230. A(H  80,C  41,H  81)          110.2464         0.290733   
    231. A(H  79,C  41,H  81)          109.3572         0.290488   
    232. A(O  39,C  41,H  81)          105.4306         0.340635   
    233. A(H  79,C  41,H  80)          110.0323         0.289682   
    234. A(O  39,C  41,H  80)          110.5516         0.339629   
    235. A(O  39,C  41,H  79)          111.1287         0.339324   
    236. D(O  20,C   1,C   0,O  19)     -1.0385         0.025379   
    237. D(C   2,C   1,C   0,O  19)   -176.6576         0.025379   
    238. D(C   2,C   1,C   0,C   5)      4.5775         0.025379   
    239. D(O  20,C   1,C   0,C   5)   -179.8034         0.025379   
    240. D(O  18,C   2,C   1,C   0)    176.5756         0.023506   
    241. D(C   3,C   2,C   1,C   0)     -3.7658         0.023506   
    242. D(C   3,C   2,C   1,O  20)   -179.2990         0.023506   
    243. D(O  18,C   2,C   1,O  20)      1.0424         0.023506   
    244. D(C   4,C   3,C   2,C   1)      0.6718         0.027985   
    245. D(H  42,C   3,C   2,O  18)     -0.1482         0.027985   
    246. D(C   4,C   3,C   2,O  18)   -179.6956         0.027985   
    247. D(H  42,C   3,C   2,C   1)   -179.7808         0.027985   
    248. D(C   6,C   4,C   3,H  42)      2.4382         0.027410   
    249. D(C   5,C   4,C   3,H  42)   -177.9223         0.027410   
    250. D(C   5,C   4,C   3,C   2)      1.6322         0.027410   
    251. D(C   6,C   4,C   3,C   2)   -178.0073         0.027410   
    252. D(H  43,C   5,C   4,C   6)     -1.4897         0.028998   
    253. D(H  43,C   5,C   4,C   3)    178.8708         0.028998   
    254. D(C   0,C   5,C   4,C   3)     -0.7922         0.028998   
    255. D(C   4,C   5,C   0,O  19)    178.7495         0.026410   
    256. D(H  43,C   5,C   0,C   1)    177.9675         0.026410   
    257. D(H  43,C   5,C   0,O  19)     -0.9241         0.026410   
    258. D(C   0,C   5,C   4,C   6)    178.8472         0.028998   
    259. D(C   4,C   5,C   0,C   1)     -2.3589         0.026410   
    260. D(H  45,C   6,C   4,C   3)   -138.9601         0.012723   
    261. D(H  44,C   6,C   4,C   5)    160.7262         0.012723   
    262. D(H  44,C   6,C   4,C   3)    -19.6407         0.012723   
    263. D(C   7,C   6,C   4,C   5)    -78.3275         0.012723   
    264. D(C   7,C   6,C   4,C   3)    101.3056         0.012723   
    265. D(C   8,C   7,C   6,H  44)    -72.8185         0.010776   
    266. D(C   8,C   7,C   6,C   4)    165.8843         0.010776   
    267. D(C  16,C   7,C   6,H  45)    171.2458         0.010776   
    268. D(C  16,C   7,C   6,H  44)     52.3462         0.010776   
    269. D(C   8,C   7,C   6,H  45)     46.0812         0.010776   
    270. D(C  16,C   7,C   6,C   4)    -68.9511         0.010776   
    271. D(C  17,C   8,C   7,H  46)    165.6957         0.010343   
    272. D(C  17,C   8,C   7,C  16)    -78.1349         0.010343   
    273. D(C  17,C   8,C   7,C   6)     46.8277         0.010343   
    274. D(C   9,C   8,C   7,C  16)    157.9748         0.010343   
    275. D(C   9,C   8,C   7,H  46)     41.8054         0.010343   
    276. D(C   9,C   8,C   7,C   6)    -77.0625         0.010343   
    277. D(H  48,C   9,C   8,C  17)     59.8983         0.010549   
    278. D(H  48,C   9,C   8,C   7)   -172.8315         0.010549   
    279. D(C  10,C   9,C   8,H  47)     64.7519         0.010549   
    280. D(C  10,C   9,C   8,C  17)   -178.8992         0.010549   
    281. D(H  48,C   9,C   8,H  47)    -56.4507         0.010549   
    282. D(C  10,C   9,C   8,C   7)    -51.6290         0.010549   
    283. D(C  15,C  10,C   9,H  48)   -115.3913         0.012561   
    284. D(C  15,C  10,C   9,C   8)    123.7052         0.012561   
    285. D(C  11,C  10,C   9,H  49)   -179.2766         0.012561   
    286. D(C  11,C  10,C   9,H  48)     63.9438         0.012561   
    287. D(C  11,C  10,C   9,C   8)    -56.9596         0.012561   
    288. D(H  50,C  11,C  10,C  15)   -179.8717         0.026318   
    289. D(H  50,C  11,C  10,C   9)      0.7798         0.026318   
    290. D(C  12,C  11,C  10,C  15)     -0.0247         0.026318   
    291. D(C  12,C  11,C  10,C   9)   -179.3731         0.026318   
    292. D(O  22,C  12,C  11,H  50)      1.2546         0.028752   
    293. D(C  13,C  12,C  11,H  50)   -178.7301         0.028752   
    294. D(O  22,C  12,C  11,C  10)   -178.5908         0.028752   
    295. D(C  13,C  12,C  11,C  10)      1.4245         0.028752   
    296. D(O  21,C  13,C  12,C  11)    178.3964         0.024028   
    297. D(C  14,C  13,C  12,O  22)    178.3018         0.024028   
    298. D(C  14,C  13,C  12,C  11)     -1.7119         0.024028   
    299. D(O  21,C  13,C  12,O  22)     -1.5899         0.024028   
    300. D(H  51,C  14,C  13,O  21)      0.2850         0.028670   
    301. D(H  51,C  14,C  13,C  12)   -179.6067         0.028670   
    302. D(C  15,C  14,C  13,O  21)   -179.5003         0.028670   
    303. D(C  15,C  14,C  13,C  12)      0.6081         0.028670   
    304. D(H  52,C  15,C  14,H  51)      0.2345         0.028089   
    305. D(H  52,C  15,C  14,C  13)   -179.9852         0.028089   
    306. D(C  10,C  15,C  14,H  51)   -178.9754         0.028089   
    307. D(C  10,C  15,C  14,C  13)      0.8049         0.028089   
    308. D(H  52,C  15,C  10,C  11)    179.6950         0.028112   
    309. D(H  52,C  15,C  10,C   9)     -0.9614         0.028112   
    310. D(C  14,C  15,C  10,C  11)     -1.0998         0.028112   
    311. D(C  14,C  15,C  10,C   9)    178.2438         0.028112   
    312. D(H  53,C  16,C   7,H  46)    176.8957         0.010633   
    313. D(H  53,C  16,C   7,C   8)     60.8149         0.010633   
    314. D(H  53,C  16,C   7,C   6)    -66.3044         0.010633   
    315. D(O  37,C  16,C   7,H  46)     58.2873         0.010633   
    316. D(O  37,C  16,C   7,C   8)    -57.7935         0.010633   
    317. D(O  37,C  16,C   7,C   6)    175.0872         0.010633   
    318. D(H  55,C  17,C   8,H  47)     66.2053         0.010709   
    319. D(H  55,C  17,C   8,C   9)    -50.9008         0.010709   
    320. D(H  55,C  17,C   8,C   7)   -176.5061         0.010709   
    321. D(O  38,C  17,C   8,H  47)    -56.5033         0.010709   
    322. D(O  38,C  17,C   8,C   9)   -173.6094         0.010709   
    323. D(O  38,C  17,C   8,C   7)     60.7852         0.010709   
    324. D(C  34,O  18,C   2,C   3)      2.8092         0.026963   
    325. D(C  34,O  18,C   2,C   1)   -177.5444         0.026963   
    326. D(C  33,O  19,C   0,C   5)   -152.3991         0.029776   
    327. D(C  33,O  19,C   0,C   1)     28.7787         0.029776   
    328. D(C  23,O  20,C   1,C   2)    -56.8908         0.023762   
    329. D(C  23,O  20,C   1,C   0)    127.6310         0.023762   
    330. D(H  57,O  21,C  13,C  14)   -179.6496         0.031260   
    331. D(H  57,O  21,C  13,C  12)      0.2410         0.031260   
    332. D(C  35,O  22,C  12,C  13)   -177.1976         0.027185   
    333. D(C  35,O  22,C  12,C  11)      2.8170         0.027185   
    334. D(H  58,C  23,O  20,C   1)     38.7301         0.020363   
    335. D(C  26,C  23,O  20,C   1)    156.5549         0.020363   
    336. D(C  24,C  23,O  20,C   1)    -82.7684         0.020363   
    337. D(O  36,C  24,C  23,H  58)     61.2083         0.010000   
    338. D(O  36,C  24,C  23,C  26)    -58.2474         0.010000   
    339. D(O  36,C  24,C  23,O  20)   -175.8760         0.010000   
    340. D(C  25,C  24,C  23,H  58)    -63.7548         0.010000   
    341. D(C  25,C  24,C  23,C  26)    176.7895         0.010000   
    342. D(C  25,C  24,C  23,O  20)     59.1610         0.010000   
    343. D(C  32,C  25,C  24,O  36)    -57.0448         0.012061   
    344. D(C  32,C  25,C  24,C  23)     67.1394         0.012061   
    345. D(C  28,C  25,C  24,H  59)      6.4468         0.012061   
    346. D(C  28,C  25,C  24,O  36)    122.5455         0.012061   
    347. D(C  28,C  25,C  24,C  23)   -113.2703         0.012061   
    348. D(H  60,C  26,C  23,H  58)   -175.2603         0.010510   
    349. D(H  60,C  26,C  23,C  24)    -55.5297         0.010510   
    350. D(H  60,C  26,C  23,O  20)     65.0056         0.010510   
    351. D(O  27,C  26,C  23,H  58)    -51.1823         0.010510   
    352. D(O  27,C  26,C  23,C  24)     68.5483         0.010510   
    353. D(O  27,C  26,C  23,O  20)   -170.9164         0.010510   
    354. D(H  62,O  27,C  26,H  61)   -173.7567         0.023298   
    355. D(H  62,O  27,C  26,H  60)     68.0628         0.023298   
    356. D(H  62,O  27,C  26,C  23)    -54.6347         0.023298   
    357. D(H  63,C  28,C  25,C  32)    178.8975         0.026992   
    358. D(H  63,C  28,C  25,C  24)     -0.6974         0.026992   
    359. D(C  29,C  28,C  25,C  32)     -1.7462         0.026992   
    360. D(C  29,C  28,C  25,C  24)    178.6589         0.026992   
    361. D(C  30,C  29,C  28,H  63)   -178.7529         0.028679   
    362. D(C  30,C  29,C  28,C  25)      1.8973         0.028679   
    363. D(O  39,C  29,C  28,H  63)      0.2896         0.028679   
    364. D(O  39,C  29,C  28,C  25)   -179.0602         0.028679   
    365. D(O  40,C  30,C  29,O  39)      0.1820         0.024306   
    366. D(O  40,C  30,C  29,C  28)    179.3262         0.024306   
    367. D(C  31,C  30,C  29,O  39)   -179.6367         0.024306   
    368. D(C  31,C  30,C  29,C  28)     -0.4925         0.024306   
    369. D(H  64,C  31,C  30,O  40)     -1.0174         0.028870   
    370. D(H  64,C  31,C  30,C  29)    178.7993         0.028870   
    371. D(C  32,C  31,C  30,O  40)    179.1306         0.028870   
    372. D(C  32,C  31,C  30,C  29)     -1.0526         0.028870   
    373. D(H  65,C  32,C  31,H  64)      1.6763         0.028141   
    374. D(H  65,C  32,C  31,C  30)   -178.4742         0.028141   
    375. D(C  25,C  32,C  31,H  64)   -178.6375         0.028141   
    376. D(C  25,C  32,C  31,C  30)      1.2120         0.028141   
    377. D(H  65,C  32,C  25,C  28)    179.8610         0.027769   
    378. D(H  65,C  32,C  25,C  24)     -0.5469         0.027769   
    379. D(C  31,C  32,C  25,C  28)      0.1810         0.027769   
    380. D(C  31,C  32,C  25,C  24)    179.7732         0.027769   
    381. D(H  68,C  33,O  19,C   0)     39.0497         0.022653   
    382. D(H  67,C  33,O  19,C   0)    -82.9549         0.022653   
    383. D(H  66,C  33,O  19,C   0)    157.9663         0.022653   
    384. D(H  71,C  34,O  18,C   2)     59.7655         0.021930   
    385. D(H  70,C  34,O  18,C   2)    -63.0732         0.021930   
    386. D(H  69,C  34,O  18,C   2)    178.2877         0.021930   
    387. D(H  74,C  35,O  22,C  12)    -63.6060         0.023803   
    388. D(H  73,C  35,O  22,C  12)    177.8817         0.023803   
    389. D(H  72,C  35,O  22,C  12)     59.1529         0.023803   
    390. D(H  75,O  36,C  24,H  59)    166.9050         0.022018   
    391. D(H  75,O  36,C  24,C  25)     47.8542         0.022018   
    392. D(H  75,O  36,C  24,C  23)    -76.5581         0.022018   
    393. D(H  76,O  37,C  16,H  54)     57.2066         0.021738   
    394. D(H  76,O  37,C  16,H  53)    174.8300         0.021738   
    395. D(H  76,O  37,C  16,C   7)    -64.2414         0.021738   
    396. D(H  77,O  38,C  17,H  56)    175.1357         0.022085   
    397. D(H  77,O  38,C  17,H  55)    -69.0195         0.022085   
    398. D(H  77,O  38,C  17,C   8)     52.8743         0.022085   
    399. D(C  41,O  39,C  29,C  30)   -172.5955         0.029981   
    400. D(C  41,O  39,C  29,C  28)      8.3225         0.029981   
    401. D(H  78,O  40,C  30,C  31)   -178.8463         0.029985   
    402. D(H  78,O  40,C  30,C  29)      1.3360         0.029985   
    403. D(H  81,C  41,O  39,C  29)    175.8981         0.022993   
    404. D(H  80,C  41,O  39,C  29)     56.7621         0.022993   
    405. D(H  79,C  41,O  39,C  29)    -65.7230         0.022993   
    -----------------------------------------------------------------

Number of atoms                         .... 82
Number of degrees of freedom            .... 405


         *************************************************************
         *                GEOMETRY OPTIMIZATION CYCLE   1            *
         *************************************************************
---------------------------------
CARTESIAN COORDINATES (ANGSTROEM)
---------------------------------
  C     21.622419  -32.000468   -1.462266
  C     21.163239  -32.222948   -2.763971
  C     19.774709  -32.310767   -2.980523
  C     18.895626  -32.256200   -1.910887
  C     19.360402  -32.100810   -0.612011
  C     20.718862  -31.966406   -0.402588
  C     18.403600  -32.087355    0.545221
  C     18.402569  -33.445198    1.260803
  C     17.725288  -33.426260    2.644684
  C     18.633068  -32.795881    3.714205
  C     20.013389  -33.389555    3.764495
  C     20.180642  -34.757452    3.970963
  C     21.445317  -35.311728    4.031806
  C     22.577396  -34.487564    3.914549
  C     22.409702  -33.131603    3.703384
  C     21.136648  -32.592004    3.621368
  C     17.768464  -34.518956    0.362619
  C     16.364507  -32.715245    2.680757
  O     19.374341  -32.456400   -4.280296
  O     22.930735  -31.827454   -1.103103
  O     22.064968  -32.260050   -3.813254
  O     23.827037  -35.020383    4.005917
  O     21.726084  -36.651141    4.203814
  C     22.044622  -33.376904   -4.684648
  C     22.853071  -34.561669   -4.085412
  C     22.288660  -34.981775   -2.750286
  C     22.666170  -32.895287   -6.007032
  O     22.536987  -33.825633   -7.044032
  C     23.034908  -34.796205   -1.592106
  C     22.518853  -35.151095   -0.359641
  C     21.246571  -35.739704   -0.287119
  C     20.516770  -35.950558   -1.441166
  C     21.031730  -35.561175   -2.666361
  C     23.846155  -31.269579   -2.024341
  C     17.996994  -32.497150   -4.564784
  C     20.645946  -37.550458    4.269177
  O     22.908720  -35.641561   -5.001453
  O     17.843161  -35.806037    0.928973
  O     15.385773  -33.285764    1.847874
  O     23.149127  -34.999603    0.843712
  O     20.741775  -36.103397    0.929893
  C     24.358907  -34.272794    0.868177
  H     17.833014  -32.326909   -2.075791
  H     21.115852  -31.825670    0.590624
  H     17.396521  -31.862712    0.193494
  H     18.710973  -31.315525    1.251854
  H     19.447289  -33.737162    1.421562
  H     17.552704  -34.477089    2.908935
  H     18.156198  -32.926208    4.690460
  H     18.711636  -31.722595    3.532718
  H     19.309278  -35.382019    4.080760
  H     23.284745  -32.509311    3.608466
  H     21.023897  -31.531089    3.455874
  H     16.707913  -34.310193    0.211660
  H     18.270570  -34.498340   -0.613698
  H     16.007159  -32.708002    3.723314
  H     16.459248  -31.677709    2.354601
  H     23.731781  -35.972113    4.146922
  H     21.020595  -33.709626   -4.883207
  H     23.894250  -34.241188   -3.964429
  H     23.721705  -32.640174   -5.829410
  H     22.141271  -31.991632   -6.324925
  H     22.913638  -34.662420   -6.729047
  H     24.018356  -34.362063   -1.663905
  H     19.549025  -36.421399   -1.373342
  H     20.433254  -35.712940   -3.553756
  H     24.662998  -30.872318   -1.419319
  H     24.235988  -32.017646   -2.717686
  H     23.389477  -30.463224   -2.599553
  H     17.928586  -32.585142   -5.648179
  H     17.513760  -33.362093   -4.098777
  H     17.493380  -31.580785   -4.243335
  H     20.040367  -37.512213    3.358783
  H     21.092584  -38.538661    4.366479
  H     20.014437  -37.352298    5.140401
  H     22.057937  -36.096012   -4.989774
  H     18.781475  -36.041886    0.993811
  H     15.325309  -34.226573    2.052001
  H     21.397485  -35.853597    1.599255
  H     25.143368  -34.793788    0.311012
  H     24.212349  -33.270095    0.459319
  H     24.640166  -34.214113    1.917458

----------------------------
CARTESIAN COORDINATES (A.U.)
----------------------------
  NO LB      ZA    FRAG     MASS         X           Y           Z
   0 C     6.0000    0    12.011   40.860451  -60.472121   -2.763282
   1 C     6.0000    0    12.011   39.992725  -60.892546   -5.223149
   2 C     6.0000    0    12.011   37.368784  -61.058500   -5.632371
   3 C     6.0000    0    12.011   35.707558  -60.955384   -3.611054
   4 C     6.0000    0    12.011   36.585857  -60.661740   -1.156533
   5 C     6.0000    0    12.011   39.152975  -60.407753   -0.760780
   6 C     6.0000    0    12.011   34.777763  -60.636314    1.030318
   7 C     6.0000    0    12.011   34.775816  -63.202264    2.382573
   8 C     6.0000    0    12.011   33.495940  -63.166478    4.997729
   9 C     6.0000    0    12.011   35.211395  -61.975234    7.018830
  10 C     6.0000    0    12.011   37.819824  -63.097114    7.113864
  11 C     6.0000    0    12.011   38.135887  -65.682065    7.504032
  12 C     6.0000    0    12.011   40.525777  -66.729495    7.619009
  13 C     6.0000    0    12.011   42.665095  -65.172052    7.397426
  14 C     6.0000    0    12.011   42.348200  -62.609656    6.998382
  15 C     6.0000    0    12.011   39.942476  -61.589962    6.843394
  16 C     6.0000    0    12.011   33.577531  -65.231373    0.685251
  17 C     6.0000    0    12.011   30.924437  -61.822853    5.065897
  18 O     8.0000    0    15.999   36.612198  -61.333707   -8.088587
  19 O     8.0000    0    15.999   43.332810  -60.145171   -2.084563
  20 O     8.0000    0    15.999   41.696747  -60.962660   -7.206005
  21 O     8.0000    0    15.999   45.026575  -66.178932    7.570086
  22 O     8.0000    0    15.999   41.056348  -69.260619    7.944057
  23 C     6.0000    0    12.011   41.658298  -63.073208   -8.852703
  24 C     6.0000    0    12.011   43.186046  -65.312088   -7.720309
  25 C     6.0000    0    12.011   42.119464  -66.105974   -5.197287
  26 C     6.0000    0    12.011   42.832854  -62.163084  -11.351645
  27 O     8.0000    0    15.999   42.588734  -63.921182  -13.311292
  28 C     6.0000    0    12.011   43.529668  -65.755298   -3.008644
  29 C     6.0000    0    12.011   42.554464  -66.425943   -0.679623
  30 C     6.0000    0    12.011   40.150200  -67.538253   -0.542576
  31 C     6.0000    0    12.011   38.771076  -67.936709   -2.723409
  32 C     6.0000    0    12.011   39.744209  -67.200882   -5.038692
  33 C     6.0000    0    12.011   45.062702  -59.090941   -3.825450
  34 C     6.0000    0    12.011   34.009390  -61.410713   -8.626192
  35 C     6.0000    0    12.011   39.015184  -70.960082    8.067575
  36 O     8.0000    0    15.999   43.291206  -67.352789   -9.451377
  37 O     8.0000    0    15.999   33.718688  -67.663603    1.755505
  38 O     8.0000    0    15.999   29.074898  -62.900979    3.491975
  39 O     8.0000    0    15.999   43.745511  -66.139665    1.594384
  40 O     8.0000    0    15.999   39.196275  -68.225533    1.757244
  41 C     6.0000    0    12.011   46.031662  -64.766194    1.640616
  42 H     1.0000    0     1.008   33.699512  -61.089004   -3.922677
  43 H     1.0000    0     1.008   39.903177  -60.141800    1.116118
  44 H     1.0000    0     1.008   32.874660  -60.211799    0.365651
  45 H     1.0000    0     1.008   35.358615  -59.177765    2.365661
  46 H     1.0000    0     1.008   36.750050  -63.753997    2.686363
  47 H     1.0000    0     1.008   33.169804  -65.152255    5.497090
  48 H     1.0000    0     1.008   34.310241  -62.221516    8.863684
  49 H     1.0000    0     1.008   35.359867  -59.947016    6.675870
  50 H     1.0000    0     1.008   36.489248  -66.862326    7.711519
  51 H     1.0000    0     1.008   44.001791  -61.433695    6.819013
  52 H     1.0000    0     1.008   39.729407  -59.585122    6.530655
  53 H     1.0000    0     1.008   31.573381  -64.836869    0.399980
  54 H     1.0000    0     1.008   34.526373  -65.192416   -1.159722
  55 H     1.0000    0     1.008   30.249146  -61.809167    7.036043
  56 H     1.0000    0     1.008   31.103472  -59.862194    4.449551
  57 H     1.0000    0     1.008   44.846567  -67.977442    7.836547
  58 H     1.0000    0     1.008   39.723168  -63.701961   -9.227924
  59 H     1.0000    0     1.008   45.153589  -64.706469   -7.491684
  60 H     1.0000    0     1.008   44.827526  -61.680990  -11.015988
  61 H     1.0000    0     1.008   41.840938  -60.455423  -11.952376
  62 H     1.0000    0     1.008   43.300500  -65.502481  -12.716056
  63 H     1.0000    0     1.008   45.388115  -64.934888   -3.144325
  64 H     1.0000    0     1.008   36.942303  -68.826469   -2.595240
  65 H     1.0000    0     1.008   38.613255  -67.487676   -6.715625
  66 H     1.0000    0     1.008   46.606312  -58.340225   -2.682124
  67 H     1.0000    0     1.008   45.799380  -60.504583   -5.135682
  68 H     1.0000    0     1.008   44.199705  -57.567150   -4.912444
  69 H     1.0000    0     1.008   33.880118  -61.576994  -10.673511
  70 H     1.0000    0     1.008   33.096210  -63.045218   -7.745566
  71 H     1.0000    0     1.008   33.057698  -59.679035   -8.018740
  72 H     1.0000    0     1.008   37.870805  -70.887809    6.347180
  73 H     1.0000    0     1.008   39.859207  -72.827515    8.251450
  74 H     1.0000    0     1.008   37.821805  -70.585613    9.713950
  75 H     1.0000    0     1.008   41.683460  -68.211576   -9.429306
  76 H     1.0000    0     1.008   35.491845  -68.109294    1.878031
  77 H     1.0000    0     1.008   28.960638  -64.678850    3.877720
  78 H     1.0000    0     1.008   40.435387  -67.753478    3.022154
  79 H     1.0000    0     1.008   47.514080  -65.750731    0.587728
  80 H     1.0000    0     1.008   45.754708  -62.871367    0.867986
  81 H     1.0000    0     1.008   46.563165  -64.655304    3.623471

--------------------------------
INTERNAL COORDINATES (ANGSTROEM)
--------------------------------
 C      0   0   0     0.000000000000     0.00000000     0.00000000
 C      1   0   0     1.398134921635     0.00000000     0.00000000
 C      2   1   0     1.408055955792   118.48841601     0.00000000
 C      3   2   1     1.385598577569   120.29579890   356.23421267
 C      4   3   2     1.388251706635   120.94859716     0.67178163
 C      5   4   3     1.381063748367   118.82149492     1.63223195
 C      5   4   3     1.501611076833   120.57887923   181.99269517
 C      7   5   4     1.534860166399   110.59732149   101.30564238
 C      8   7   5     1.540841974305   114.08866547   165.88428921
 C      9   8   7     1.537958257199   111.72594721   282.93746725
 C     10   9   8     1.503417316414   113.78644016   308.37104349
 C     11  10   9     1.393465250568   120.18495717   303.04036190
 C     12  11  10     1.382145852119   120.66487146   180.62685885
 C     13  12  11     1.405203241005   119.88647622     1.42445223
 C     14  13  12     1.382513358636   119.35827616   358.28808504
 C     11  10   9     1.385020818592   120.91433753   123.70521905
 C      8   7   5     1.536808847275   110.23721842   291.04891624
 C      9   8   7     1.535763298097   114.59849515    46.82768331
 O      3   2   1     1.367813696376   116.19528857   176.57562850
 O      1   2   3     1.367706978283   125.36491288   183.34241109
 O      2   1   3     1.384010943020   119.74518830   175.61911923
 O     14  13  12     1.361560328522   120.28447445   178.39638093
 O     13  12  11     1.379290915922   125.53349032   181.40916873
 C     21   2   1     1.416723253526   118.56107992   127.63100419
 C     24  21   2     1.554458885419   110.87120579   277.23163767
 C     25  24  21     1.509174821027   111.02020480    59.16096770
 C     24  21   2     1.538497493375   106.02706695   156.55487601
 O     27  24  21     1.399142996340   113.05407674   189.08362382
 C     26  25  24     1.390216949138   119.94095007   246.72966640
 C     29  26  25     1.382472294103   120.53453222   178.65889028
 C     30  29  26     1.403716959832   119.47435035     1.89732760
 C     31  30  29     1.381627264672   119.97346432   359.50751950
 C     32  31  30     1.384884872687   119.97631082   358.94736160
 C     20   1   2     1.413469232468   119.88707436    28.77870024
 C     19   3   2     1.407010414504   118.80006533   182.45564522
 C     23  13  12     1.407032776417   118.04770502     2.81696143
 O     25  24  21     1.417179280617   110.61091740   184.12399564
 O     17   8   7     1.408159490496   112.43704705   175.08720198
 O     18   9   8     1.406096649482   114.51887708    60.78519826
 O     30  29  26     1.366840571771   125.75226957   180.93983787
 O     31  30  29     1.366824605962   119.49295891   179.32619945
 C     40  30  29     1.411529875070   117.87463592     8.32254010
 H      4   3   2     1.077653800808   120.32313915   180.21918362
 H      6   5   4     1.078831247221   120.94791706   178.87083001
 H      7   5   4     1.090130028368   109.98876747   340.35933106
 H      7   5   4     1.090656352406   109.03075390   221.03987927
 H      8   7   5     1.096597081078   107.65270241    47.45599866
 H      9   8   7     1.097202691223   105.88307556   164.95573566
 H     10   9   8     1.094286988451   108.32286621   187.16846708
 H     10   9   8     1.091354270588   109.26536179    70.61662909
 H     12  11  10     1.077689197772   119.14076974     0.77978275
 H     15  14  13     1.077940848647   118.76341429   180.39334553
 H     16  11  10     1.079649603421   119.80125019   359.03858343
 H     17   8   7     1.091392687184   110.37384903   293.69561733
 H     17   8   7     1.098057943932   108.53351524    52.51313246
 H     18   9   8     1.102122461793   108.21331124   183.49385425
 H     18   9   8     1.091711915293   110.85998947   301.42655482
 H     22  14  13     0.966823112817   107.73294614     0.24100607
 H     24  21   2     1.094878864839   111.37957651    38.73012973
 H     25  24  21     1.096083025823   108.28437932   298.53428214
 H     27  24  21     1.100357245249   108.74588315    65.00560282
 H     27  24  21     1.092322461875   108.35984299   307.33527816
 H     28  27  24     0.970203200153   107.27930383   305.36534067
 H     29  26  25     1.077406445573   119.22508407   359.30262556
 H     32  31  30     1.078342232376   119.21858525   178.79934007
 H     33  32  31     1.081052195259   118.74310266   181.52584279
 H     34  20   1     1.091375669143   105.49068729   157.96629175
 H     34  20   1     1.091925499015   112.00399064   277.04509874
 H     34  20   1     1.090703214364   111.36723228    39.04969543
 H     35  19   3     1.089112599810   105.36448216   178.28765546
 H     35  19   3     1.094899168488   111.64579064   296.92678275
 H     35  19   3     1.093928932346   111.53014885    59.76551523
 H     36  23  13     1.094077840772   111.34069272    59.15288682
 H     36  23  13     1.088806118873   105.62549045   177.88174459
 H     36  23  13     1.094121671517   111.36556783   296.39403888
 H     37  25  24     0.964620543534   108.45340364   283.44191318
 H     38  17   8     0.969671448991   107.48981330   295.75858022
 H     39  18   9     0.964596044436   108.30182486    52.87434057
 H     41  31  30     0.969742650289   107.23708281     1.33604583
 H     42  40  30     1.094188294252   111.12874565   294.27698561
 H     42  40  30     1.092726100093   110.55158410    56.76213955
 H     42  40  30     1.087907079607   105.43059555   175.89808629

---------------------------
INTERNAL COORDINATES (A.U.)
---------------------------
 C      0   0   0     0.000000000000     0.00000000     0.00000000
 C      1   0   0     2.642092100162     0.00000000     0.00000000
 C      2   1   0     2.660840137684   118.48841601     0.00000000
 C      3   2   1     2.618401843157   120.29579890   356.23421267
 C      4   3   2     2.623415530488   120.94859716     0.67178163
 C      5   4   3     2.609832257901   118.82149492     1.63223195
 C      5   4   3     2.837633694878   120.57887923   181.99269517
 C      7   5   4     2.900465368359   110.59732149   101.30564238
 C      8   7   5     2.911769347088   114.08866547   165.88428921
 C      9   8   7     2.906319911510   111.72594721   282.93746725
 C     10   9   8     2.841046993017   113.78644016   308.37104349
 C     11  10   9     2.633267700709   120.18495717   303.04036190
 C     12  11  10     2.611877137639   120.66487146   180.62685885
 C     13  12  11     2.655449287998   119.88647622     1.42445223
 C     14  13  12     2.612571624311   119.35827616   358.28808504
 C     11  10   9     2.617310036919   120.91433753   123.70521905
 C      8   7   5     2.904147841538   110.23721842   291.04891624
 C      9   8   7     2.902172039931   114.59849515    46.82768331
 O      3   2   1     2.584793288377   116.19528857   176.57562850
 O      1   2   3     2.584591620407   125.36491288   183.34241109
 O      2   1   3     2.615401648658   119.74518830   175.61911923
 O     14  13  12     2.572976135718   120.28447445   178.39638093
 O     13  12  11     2.606482090099   125.53349032   181.40916873
 C     21   2   1     2.677218956722   118.56107992   127.63100419
 C     24  21   2     2.937501579883   110.87120579   277.23163767
 C     25  24  21     2.851927099950   111.02020480    59.16096770
 C     24  21   2     2.907338920204   106.02706695   156.55487601
 O     27  24  21     2.643997085276   113.05407674   189.08362382
 C     26  25  24     2.627129300607   119.94095007   246.72966640
 C     29  26  25     2.612494023588   120.53453222   178.65889028
 C     30  29  26     2.652640623624   119.47435035     1.89732760
 C     31  30  29     2.610897149389   119.97346432   359.50751950
 C     32  31  30     2.617053136389   119.97631082   358.94736160
 C     20   1   2     2.671069748089   119.88707436    28.77870024
 C     19   3   2     2.658864350988   118.80006533   182.45564522
 C     23  13  12     2.658906608879   118.04770502     2.81696143
 O     25  24  21     2.678080723034   110.61091740   184.12399564
 O     17   8   7     2.661035789920   112.43704705   175.08720198
 O     18   9   8     2.657137585345   114.51887708    60.78519826
 O     30  29  26     2.582954349380   125.75226957   180.93983787
 O     31  30  29     2.582924178373   119.49295891   179.32619945
 C     40  30  29     2.667404893730   117.87463592     8.32254010
 H      4   3   2     2.036470550706   120.32313915   180.21918362
 H      6   5   4     2.038695601965   120.94791706   178.87083001
 H      7   5   4     2.060047203978   109.98876747   340.35933106
 H      7   5   4     2.061041812268   109.03075390   221.03987927
 H      8   7   5     2.072268162495   107.65270241    47.45599866
 H      9   8   7     2.073412599813   105.88307556   164.95573566
 H     10   9   8     2.067902720085   108.32286621   187.16846708
 H     10   9   8     2.062360686497   109.26536179    70.61662909
 H     12  11  10     2.036537441275   119.14076974     0.77978275
 H     15  14  13     2.037012992510   118.76341429   180.39334553
 H     16  11  10     2.040242071063   119.80125019   359.03858343
 H     17   8   7     2.062433283343   110.37384903   293.69561733
 H     17   8   7     2.075028793208   108.53351524    52.51313246
 H     18   9   8     2.082709618831   108.21331124   183.49385425
 H     18   9   8     2.063036537042   110.85998947   301.42655482
 H     22  14  13     1.827030903169   107.73294614     0.24100607
 H     24  21   2     2.069021204364   111.37957651    38.73012973
 H     25  24  21     2.071296738845   108.28437932   298.53428214
 H     27  24  21     2.079373842996   108.74588315    65.00560282
 H     27  24  21     2.064190302874   108.35984299   307.33527816
 H     28  27  24     1.833418342543   107.27930383   305.36534067
 H     29  26  25     2.036003117055   119.22508407   359.30262556
 H     32  31  30     2.037771497832   119.21858525   178.79934007
 H     33  32  31     2.042892585514   118.74310266   181.52584279
 H     34  20   1     2.062401123905   105.49068729   157.96629175
 H     34  20   1     2.063440151784   112.00399064   277.04509874
 H     34  20   1     2.061130368535   111.36723228    39.04969543
 H     35  19   3     2.058124542644   105.36448216   178.28765546
 H     35  19   3     2.069059572700   111.64579064   296.92678275
 H     35  19   3     2.067226092107   111.53014885    59.76551523
 H     36  23  13     2.067507488252   111.34069272    59.15288682
 H     36  23  13     2.057545377608   105.62549045   177.88174459
 H     36  23  13     2.067590316355   111.36556783   296.39403888
 H     37  25  24     1.822868650434   108.45340364   283.44191318
 H     38  17   8     1.832413478476   107.48981330   295.75858022
 H     39  18   9     1.822822353847   108.30182486    52.87434057
 H     41  31  30     1.832548029429   107.23708281     1.33604583
 H     42  40  30     2.067716215078   111.12874565   294.27698561
 H     42  40  30     2.064953068564   110.55158410    56.76213955
 H     42  40  30     2.055846439611   105.43059555   175.89808629

---------------------
BASIS SET INFORMATION
---------------------
There are 3 groups of distinct atoms

 Group   1 Type C   : 11s6p2d1f contracted to 5s3p2d1f pattern {62111/411/11/1}
 Group   2 Type O   : 11s6p2d1f contracted to 5s3p2d1f pattern {62111/411/11/1}
 Group   3 Type H   : 5s1p contracted to 3s1p pattern {311/1}

Atom   0C    basis set group =>   1
Atom   1C    basis set group =>   1
Atom   2C    basis set group =>   1
Atom   3C    basis set group =>   1
Atom   4C    basis set group =>   1
Atom   5C    basis set group =>   1
Atom   6C    basis set group =>   1
Atom   7C    basis set group =>   1
Atom   8C    basis set group =>   1
Atom   9C    basis set group =>   1
Atom  10C    basis set group =>   1
Atom  11C    basis set group =>   1
Atom  12C    basis set group =>   1
Atom  13C    basis set group =>   1
Atom  14C    basis set group =>   1
Atom  15C    basis set group =>   1
Atom  16C    basis set group =>   1
Atom  17C    basis set group =>   1
Atom  18O    basis set group =>   2
Atom  19O    basis set group =>   2
Atom  20O    basis set group =>   2
Atom  21O    basis set group =>   2
Atom  22O    basis set group =>   2
Atom  23C    basis set group =>   1
Atom  24C    basis set group =>   1
Atom  25C    basis set group =>   1
Atom  26C    basis set group =>   1
Atom  27O    basis set group =>   2
Atom  28C    basis set group =>   1
Atom  29C    basis set group =>   1
Atom  30C    basis set group =>   1
Atom  31C    basis set group =>   1
Atom  32C    basis set group =>   1
Atom  33C    basis set group =>   1
Atom  34C    basis set group =>   1
Atom  35C    basis set group =>   1
Atom  36O    basis set group =>   2
Atom  37O    basis set group =>   2
Atom  38O    basis set group =>   2
Atom  39O    basis set group =>   2
Atom  40O    basis set group =>   2
Atom  41C    basis set group =>   1
Atom  42H    basis set group =>   3
Atom  43H    basis set group =>   3
Atom  44H    basis set group =>   3
Atom  45H    basis set group =>   3
Atom  46H    basis set group =>   3
Atom  47H    basis set group =>   3
Atom  48H    basis set group =>   3
Atom  49H    basis set group =>   3
Atom  50H    basis set group =>   3
Atom  51H    basis set group =>   3
Atom  52H    basis set group =>   3
Atom  53H    basis set group =>   3
Atom  54H    basis set group =>   3
Atom  55H    basis set group =>   3
Atom  56H    basis set group =>   3
Atom  57H    basis set group =>   3
Atom  58H    basis set group =>   3
Atom  59H    basis set group =>   3
Atom  60H    basis set group =>   3
Atom  61H    basis set group =>   3
Atom  62H    basis set group =>   3
Atom  63H    basis set group =>   3
Atom  64H    basis set group =>   3
Atom  65H    basis set group =>   3
Atom  66H    basis set group =>   3
Atom  67H    basis set group =>   3
Atom  68H    basis set group =>   3
Atom  69H    basis set group =>   3
Atom  70H    basis set group =>   3
Atom  71H    basis set group =>   3
Atom  72H    basis set group =>   3
Atom  73H    basis set group =>   3
Atom  74H    basis set group =>   3
Atom  75H    basis set group =>   3
Atom  76H    basis set group =>   3
Atom  77H    basis set group =>   3
Atom  78H    basis set group =>   3
Atom  79H    basis set group =>   3
Atom  80H    basis set group =>   3
Atom  81H    basis set group =>   3
---------------------------------
AUXILIARY/J BASIS SET INFORMATION
---------------------------------
There are 3 groups of distinct atoms

 Group   1 Type C   : 12s5p4d2f1g contracted to 6s4p3d1f1g pattern {711111/2111/211/2/1}
 Group   2 Type O   : 12s5p4d2f1g contracted to 6s4p3d1f1g pattern {711111/2111/211/2/1}
 Group   3 Type H   : 5s2p1d contracted to 3s1p1d pattern {311/2/1}

Atom   0C    basis set group =>   1
Atom   1C    basis set group =>   1
Atom   2C    basis set group =>   1
Atom   3C    basis set group =>   1
Atom   4C    basis set group =>   1
Atom   5C    basis set group =>   1
Atom   6C    basis set group =>   1
Atom   7C    basis set group =>   1
Atom   8C    basis set group =>   1
Atom   9C    basis set group =>   1
Atom  10C    basis set group =>   1
Atom  11C    basis set group =>   1
Atom  12C    basis set group =>   1
Atom  13C    basis set group =>   1
Atom  14C    basis set group =>   1
Atom  15C    basis set group =>   1
Atom  16C    basis set group =>   1
Atom  17C    basis set group =>   1
Atom  18O    basis set group =>   2
Atom  19O    basis set group =>   2
Atom  20O    basis set group =>   2
Atom  21O    basis set group =>   2
Atom  22O    basis set group =>   2
Atom  23C    basis set group =>   1
Atom  24C    basis set group =>   1
Atom  25C    basis set group =>   1
Atom  26C    basis set group =>   1
Atom  27O    basis set group =>   2
Atom  28C    basis set group =>   1
Atom  29C    basis set group =>   1
Atom  30C    basis set group =>   1
Atom  31C    basis set group =>   1
Atom  32C    basis set group =>   1
Atom  33C    basis set group =>   1
Atom  34C    basis set group =>   1
Atom  35C    basis set group =>   1
Atom  36O    basis set group =>   2
Atom  37O    basis set group =>   2
Atom  38O    basis set group =>   2
Atom  39O    basis set group =>   2
Atom  40O    basis set group =>   2
Atom  41C    basis set group =>   1
Atom  42H    basis set group =>   3
Atom  43H    basis set group =>   3
Atom  44H    basis set group =>   3
Atom  45H    basis set group =>   3
Atom  46H    basis set group =>   3
Atom  47H    basis set group =>   3
Atom  48H    basis set group =>   3
Atom  49H    basis set group =>   3
Atom  50H    basis set group =>   3
Atom  51H    basis set group =>   3
Atom  52H    basis set group =>   3
Atom  53H    basis set group =>   3
Atom  54H    basis set group =>   3
Atom  55H    basis set group =>   3
Atom  56H    basis set group =>   3
Atom  57H    basis set group =>   3
Atom  58H    basis set group =>   3
Atom  59H    basis set group =>   3
Atom  60H    basis set group =>   3
Atom  61H    basis set group =>   3
Atom  62H    basis set group =>   3
Atom  63H    basis set group =>   3
Atom  64H    basis set group =>   3
Atom  65H    basis set group =>   3
Atom  66H    basis set group =>   3
Atom  67H    basis set group =>   3
Atom  68H    basis set group =>   3
Atom  69H    basis set group =>   3
Atom  70H    basis set group =>   3
Atom  71H    basis set group =>   3
Atom  72H    basis set group =>   3
Atom  73H    basis set group =>   3
Atom  74H    basis set group =>   3
Atom  75H    basis set group =>   3
Atom  76H    basis set group =>   3
Atom  77H    basis set group =>   3
Atom  78H    basis set group =>   3
Atom  79H    basis set group =>   3
Atom  80H    basis set group =>   3
Atom  81H    basis set group =>   3
--------------------------------------------------------------------------
WARNING: There was an error initializing an OpenFabrics device.

  Local host:   c07b01n02
  Local device: mlx5_0
--------------------------------------------------------------------------
--------------------------------------------------------------------------
WARNING: There is at least one non-excluded one OpenFabrics device found,
but there are no active ports detected (or Open MPI was unable to use
them).  This is most certainly not what you wanted.  Check your
cables, subnet manager configuration, etc.  The openib BTL will be
ignored for this job.

  Local host: c07b01n02
--------------------------------------------------------------------------
[c07b01n02:1599072] 59 more processes have sent help message help-mpi-btl-openib.txt / error in device init
[c07b01n02:1599072] Set MCA parameter "orte_base_help_aggregate" to 0 to see all help / error messages
[c07b01n02:1599072] 3 more processes have sent help message help-mpi-btl-openib.txt / no active ports found


           ************************************************************
           *        Program running with 64 parallel MPI-processes    *
           *              working on a common directory               *
           ************************************************************
------------------------------------------------------------------------------
                             ORCA STARTUP CALCULATIONS
                           -- RI-GTO INTEGRALS CHOSEN --
------------------------------------------------------------------------------
------------------------------------------------------------------------------
                   ___                                                        
                  /   \      - P O W E R E D   B Y -                         
                 /     \                                                     
                 |  |  |   _    _      __       _____    __    __             
                 |  |  |  | |  | |    /  \     |  _  \  |  |  /  |          
                  \  \/   | |  | |   /    \    | | | |  |  | /  /          
                 / \  \   | |__| |  /  /\  \   | |_| |  |  |/  /          
                |  |  |   |  __  | /  /__\  \  |    /   |      \           
                |  |  |   | |  | | |   __   |  |    \   |  |\   \          
                \     /   | |  | | |  |  |  |  | |\  \  |  | \   \       
                 \___/    |_|  |_| |__|  |__|  |_| \__\ |__|  \__/        
                                                                              
                      - O R C A' S   B I G   F R I E N D -                    
                                      &                                       
                       - I N T E G R A L  F E E D E R -                       
                                                                              
 v1 FN, 2020, v2 2021, v3 2022-2024                                           
------------------------------------------------------------------------------


----------------------
SHARK INTEGRAL PACKAGE
----------------------

Number of atoms                             ...     82
Number of basis functions                   ...   1542
Number of shells                            ...    622
Maximum angular momentum                    ...      3
Integral batch strategy                     ... SHARK/LIBINT Hybrid
RI-J (if used) integral strategy            ... SPLIT-RIJ (Revised 2003 algorithm where possible)
Printlevel                                  ...      1
Contraction scheme used                     ... SEGMENTED contraction
Prescreening option                         ... SCHWARTZ
   Thresh                                   ... 2.500e-11
   Tcut                                     ... 2.500e-12
   Tpresel                                  ... 2.500e-12 
Coulomb Range Separation                    ... NOT USED
Exchange Range Separation                   ... NOT USED
Multipole approximations                    ... NOT USED
Finite Nucleus Model                        ... NOT USED
CABS basis                                  ... NOT available
Auxiliary Coulomb fitting basis             ... AVAILABLE
   # of basis functions in Aux-J            ...   2498
   # of shells in Aux-J                     ...    830
   Maximum angular momentum in Aux-J        ...      4
Auxiliary J/K fitting basis                 ... NOT available
Auxiliary Correlation fitting basis         ... NOT available
Auxiliary 'external' fitting basis          ... NOT available

Checking pre-screening integrals            ... done (  0.8 sec) Dimension = 622
   => SHARK Basis and OBASIS are compatible. Storing Pre-screening
Shell pair information
Shell pair cut-off parameter TPreSel        ...   2.5e-12
Total number of shell pairs                 ...    193753
Shell pairs after pre-screening             ...    115341
Total number of primitive shell pairs       ...    584784
Primitive shell pairs kept                  ...    217715
          la=0 lb=0:  32009 shell pairs
          la=1 lb=0:  34415 shell pairs
          la=1 lb=1:   9347 shell pairs
          la=2 lb=0:  15675 shell pairs
          la=2 lb=1:   8598 shell pairs
          la=2 lb=2:   1972 shell pairs
          la=3 lb=0:   7128 shell pairs
          la=3 lb=1:   4018 shell pairs
          la=3 lb=2:   1761 shell pairs
          la=3 lb=3:    418 shell pairs

Checking whether 4 symmetric matrices of dimension 1542 fit in memory
:Max Core in MB      =   6000.00
 MB in use           =    138.28
 MB left             =   5861.72
 MB needed           =     36.31
 Data fit in memory  = YES
Calculating RI/J V-Matrix + Cholesky decomp.... done (  5.4 sec)
Calculating Nuclear repulsion               ... done (  0.0 sec) ENN=   5743.377732173834 Eh

Diagonalization of the overlap matrix:
Smallest eigenvalue                        ... 3.849e-06
Time for diagonalization                   ...    5.884 sec
Threshold for overlap eigenvalues          ... 1.000e-07
Number of eigenvalues below threshold      ... 0
Time for construction of square roots      ...    1.778 sec
Total time needed                          ...    8.338 sec

-------------------
DFT GRID GENERATION
-------------------

General Integration Accuracy     IntAcc      ... 4.388
Radial Grid Type                 RadialGrid  ... OptM3 with GC (2021)
Angular Grid (max. ang.)         AngularGrid ... 4 (Lebedev-302)
Angular grid pruning method      GridPruning ... 4 (adaptive)
Weight generation scheme         WeightScheme... mBecke (2022)
Basis function cutoff            BFCut       ... 1.0000e-11
Integration weight cutoff        WCut        ... 1.0000e-14
Partially contracted basis set               ... off
Rotationally invariant grid construction     ... off
Angular grids for H and He will be reduced by one unit

Total number of grid points                  ...   373501
Total number of batches                      ...     5877
Average number of points per batch           ...       63
Average number of grid points per atom       ...     4555

--------------------
COSX GRID GENERATION
--------------------

GRIDX 1
-------
General Integration Accuracy     IntAcc      ... 3.816
Radial Grid Type                 RadialGrid  ... OptM3 with GC (2021)
Angular Grid (max. ang.)         AngularGrid ... 1 (Lebedev-50)
Angular grid pruning method      GridPruning ... 4 (adaptive)
Weight generation scheme         WeightScheme... mBecke (2022)
Basis function cutoff            BFCut       ... 1.0000e-11
Integration weight cutoff        WCut        ... 1.0000e-14
Partially contracted basis set               ... on
Rotationally invariant grid construction     ... off
Angular grids for H and He will be reduced by one unit

Total number of grid points                  ...    47301
Total number of batches                      ...      417
Average number of points per batch           ...      113
Average number of grid points per atom       ...      577
UseSFitting                                  ... on

GRIDX 2
-------
General Integration Accuracy     IntAcc      ... 4.020
Radial Grid Type                 RadialGrid  ... OptM3 with GC (2021)
Angular Grid (max. ang.)         AngularGrid ... 2 (Lebedev-110)
Angular grid pruning method      GridPruning ... 4 (adaptive)
Weight generation scheme         WeightScheme... mBecke (2022)
Basis function cutoff            BFCut       ... 1.0000e-11
Integration weight cutoff        WCut        ... 1.0000e-14
Partially contracted basis set               ... on
Rotationally invariant grid construction     ... off
[...]
Sum of individual times     ....      49.168 sec  ( 89.5%)

SCF preparation             ....       5.370 sec  (  9.8%)
Fock matrix formation       ....      37.232 sec  ( 67.7%)
  Startup                   ....       0.435 sec  (  1.2% of F)
  Split-RI-J                ....       3.359 sec  (  9.0% of F)
  Chain of spheres X        ....      26.610 sec  ( 71.5% of F)
  XC integration            ....       2.873 sec  (  7.7% of F)
    Basis function eval.    ....       0.320 sec  ( 11.1% of XC)
    Density eval.           ....       0.505 sec  ( 17.6% of XC)
    XC-Functional eval.     ....       0.017 sec  (  0.6% of XC)
    XC-Potential eval.      ....       0.348 sec  ( 12.1% of XC)
  CPCM terms                ....       5.137 sec  ( 13.8% of F)
Diagonalization             ....       0.000 sec  (  0.0%)
Density matrix formation    ....       0.850 sec  (  1.5%)
Total Energy calculation    ....       0.440 sec  (  0.8%)
Population analysis         ....       0.778 sec  (  1.4%)
Orbital Transformation      ....       0.771 sec  (  1.4%)
Orbital Orthonormalization  ....       0.000 sec  (  0.0%)
DIIS solution               ....       0.956 sec  (  1.7%)
SOSCF solution              ....       2.772 sec  (  5.0%)
Finished LeanSCF after  56.5 sec

Maximum memory used throughout the entire LEANSCF-calculation: 340.2 MB
--------------------------------------------------------------------------
WARNING: There was an error initializing an OpenFabrics device.

  Local host:   c07b01n02
  Local device: mlx5_0
--------------------------------------------------------------------------
--------------------------------------------------------------------------
WARNING: There is at least one non-excluded one OpenFabrics device found,
but there are no active ports detected (or Open MPI was unable to use
them).  This is most certainly not what you wanted.  Check your
cables, subnet manager configuration, etc.  The openib BTL will be
ignored for this job.

  Local host: c07b01n02
--------------------------------------------------------------------------


           ************************************************************
           *        Program running with 64 parallel MPI-processes    *
           *              working on a common directory               *
           ************************************************************

------------------------------------------------------------------------------
                         ORCA PROPERTY INTEGRAL CALCULATIONS
------------------------------------------------------------------------------

GBWName                                   ... opt-conf-4.gbw
Number of atoms                           ...     82
Number of basis functions                 ...   1542
Max core memory                           ...   6000 MB

Dipole integrals                          ... YES
Quadrupole integrals                      ...  NO
Linear momentum integrals                 ...  NO
Angular momentum integrals                ...  NO
Higher moments length integrals           ...  NO
Higher moments velocity integrals         ...  NO
Kinetic energy integrals                  ...  NO
GIAO right hand sides                     ...  NO
GIAO dipole derivative integrals          ...  NO
SOC integrals                             ...  NO
EPR diamagnetic integrals (GIAO)          ...  NO
EPR gauge integrals                       ...  NO
Field gradient integrals                  ...  NO (   0 nuclei)
Spin-dipole/Fermi contact integrals       ...  NO (   0 nuclei)
Contact density integrals                 ...  NO (   0 nuclei)
Nucleus-orbit integrals                   ...  NO (   0 nuclei)
Geometric perturbations                   ... YES (  82 nuclei)

Choice of electric origin   ... Center of mass
Position of electric origin ... ( 39.3414,-64.0576, -0.5209) 
Choice of magnetic origin   ... GIAO
Position of magnetic origin ... (  0.0000,  0.0000,  0.0000) 

Calculating integrals                     ... Electric Dipole (Length)     done (  0.3 sec)
Calculating integrals                     ... Geometrical perturbation right hand sides
[c07b01n02:1809524] 58 more processes have sent help message help-mpi-btl-openib.txt / error in device init
[c07b01n02:1809524] Set MCA parameter "orte_base_help_aggregate" to 0 to see all help / error messages
[c07b01n02:1809524] 4 more processes have sent help message help-mpi-btl-openib.txt / no active ports found

-----------------------
GEOMETRIC PERTURBATIONS (82 nuclei)
-----------------------

MaxCore                            ...   6000 MB
Number of batches                  ...      5

BATCH   0: Atoms    0 -   18 ( 57 perturbations)
   => H(core) and overlap derivative integrals     ... done (     5.6 sec)
   => Making and storing internal U-coefficients   ... done (     0.2 sec)
   => RI-J derivative integrals                    ... done (    17.0 sec)
   => RI-J response operators                      ... done (     5.9 sec)
   => Chain of spheres derivative integrals        ... done (    25.2 sec)
   => Chain of spheres response operator           ... done (    87.7 sec)
   => XC derivative integrals                      ... done (    24.7 sec)
   => XC response operators                        ... done (    10.9 sec)
   => CPCM derivative integrals                    ... done (    28.7 sec)
   => CPCM response operators                      ... done (    56.3 sec)
   => Completing and storing right hand sides      ... done (     0.1 sec)
BATCH   1: Atoms   19 -   37 ( 57 perturbations)
   => H(core) and overlap derivative integrals     ... done (     4.5 sec)
   => Making and storing internal U-coefficients   ... done (     0.1 sec)
   => RI-J derivative integrals                    ... done (    14.3 sec)
   => RI-J response operators                      ... done (     5.3 sec)
   => Chain of spheres derivative integrals        ... done (    21.0 sec)
   => Chain of spheres response operator           ... done (    85.6 sec)
   => XC derivative integrals                      ... done (    22.7 sec)
   => XC response operators                        ... done (    10.4 sec)
   => CPCM derivative integrals                    ... done (    29.6 sec)
   => CPCM response operators                      ... done (    56.5 sec)
   => Completing and storing right hand sides      ... done (     0.0 sec)
BATCH   2: Atoms   38 -   56 ( 57 perturbations)
   => H(core) and overlap derivative integrals     ... done (     3.0 sec)
   => Making and storing internal U-coefficients   ... done (     0.1 sec)
   => RI-J derivative integrals                    ... done (    14.0 sec)
   => RI-J response operators                      ... done (     3.8 sec)
   => Chain of spheres derivative integrals        ... done (    13.7 sec)
   => Chain of spheres response operator           ... done (    80.4 sec)
   => XC derivative integrals                      ... done (    16.9 sec)
   => XC response operators                        ... done (     9.7 sec)
   => CPCM derivative integrals                    ... done (    32.5 sec)
   => CPCM response operators                      ... done (    58.4 sec)
   => Completing and storing right hand sides      ... done (     0.1 sec)
BATCH   3: Atoms   57 -   75 ( 57 perturbations)
   => H(core) and overlap derivative integrals     ... done (     2.4 sec)
   => Making and storing internal U-coefficients   ... done (     0.1 sec)
   => RI-J derivative integrals                    ... done (    13.8 sec)
   => RI-J response operators                      ... done (     4.0 sec)
   => Chain of spheres derivative integrals        ... done (    11.1 sec)
   => Chain of spheres response operator           ... done (    75.7 sec)
   => XC derivative integrals                      ... done (    14.0 sec)
   => XC response operators                        ... done (     9.0 sec)
   => CPCM derivative integrals                    ... done (    31.4 sec)
   => CPCM response operators                      ... done (    56.7 sec)
   => Completing and storing right hand sides      ... done (     0.0 sec)
BATCH   4: Atoms   76 -   81 ( 18 perturbations)
   => H(core) and overlap derivative integrals     ... done (     1.7 sec)
   => Making and storing internal U-coefficients   ... done (     0.1 sec)
   => RI-J derivative integrals                    ... done (     6.2 sec)
   => RI-J response operators                      ... done (     1.5 sec)
   => Chain of spheres derivative integrals        ... done (     3.9 sec)
   => Chain of spheres response operator           ... done (    20.5 sec)
   => XC derivative integrals                      ... done (     8.8 sec)
   => XC response operators                        ... done (     3.2 sec)
   => CPCM derivative integrals                    ... done (    19.1 sec)
   => CPCM response operators                      ... done (    27.7 sec)
   => Completing and storing right hand sides      ... done (     0.1 sec)
   => Total time for right hand sides = 937.6 sec

  geometrical perturbations done (938.4 sec)

Property integrals calculated in 939.0 sec

Maximum memory used throughout the entire PROPINT-calculation: 4354.3 MB


-------------------------------------------------------------------------------
                          DFT DISPERSION CORRECTION                            
                                                                               
                                DFTD4 V3.4.0                                   
-------------------------------------------------------------------------------
The B3LYP functional is recognized
Active option DFTDOPT                   ...         5   

-------------------------   ----------------
Dispersion correction           -0.191803433
-------------------------   ----------------


-------------------------   --------------------
FINAL SINGLE POINT ENERGY     -2032.629057486875
-------------------------   --------------------

                                *** OPTIMIZATION RUN DONE ***

--------------------------------------------------------------------------
WARNING: There was an error initializing an OpenFabrics device.

  Local host:   c07b01n02
  Local device: mlx5_0
--------------------------------------------------------------------------
--------------------------------------------------------------------------
WARNING: There is at least one non-excluded one OpenFabrics device found,
but there are no active ports detected (or Open MPI was unable to use
them).  This is most certainly not what you wanted.  Check your
cables, subnet manager configuration, etc.  The openib BTL will be
ignored for this job.

  Local host: c07b01n02
--------------------------------------------------------------------------


           ************************************************************
           *        Program running with 64 parallel MPI-processes    *
           *              working on a common directory               *
           ************************************************************
------------------------------------------------------------------------------
                            ORCA SCF RESPONSE CALCULATION
------------------------------------------------------------------------------

GBWName                                 ... opt-conf-4.gbw
Number of atoms                         ...     82
Number of basis functions               ...   1542
Max core memory                         ...   6000 MB

Electric field perturbation             ...  NO
Quadrupolar field perturbation          ...  NO
Magnetic field perturbation (no GIAO)   ...  NO
Magnetic field perturbation (with GIAO) ...  NO
Linear momentum (velocity) perturbation ...  NO
Spin-orbit coupling perturbation        ...  NO
Choice of electric origin               ... Center of mass
Position of electric origin             ...    39.341428   -64.057557    -0.520921
Choice of magnetic origin               ... GIAO
Position of magnetic origin             ...     0.000000     0.000000     0.000000
Nuclear geometric perturbations         ... YES ( 246 perturbations)
Nucleus-orbit perturbations             ...  NO (   0 perturbations)
Spin-dipole/Fermi contact perturbations ...  NO (   0 perturbations)

Total number of real perturbations      ...    246
Total number of imaginary perturbations ...      0
Total number of triplet perturbations   ...      0
Total number of SOC perturbations       ...      0

Using XC Grid                  ... (opt-conf-4.grid_cpscf.tmp) 
Recalculating density on grid  ... (opt-conf-4.grho_cpscf0.tmp) done
Calculating the xc-kernel      ... (opt-conf-4.fxc_cpscf0.tmp) done

                                **********************
                                * REAL PERTURBATIONS *
                                **********************


[c07b01n02:1810142] 58 more processes have sent help message help-mpi-btl-openib.txt / error in device init
[c07b01n02:1810142] Set MCA parameter "orte_base_help_aggregate" to 0 to see all help / error messages
[c07b01n02:1810142] 4 more processes have sent help message help-mpi-btl-openib.txt / no active ports found

-------------------
SHARK CP-SCF DRIVER
-------------------

Dimension of the orbital basis          ...   1542
Dimension of the CPSCF-problem          ... 217445
Number of operators                     ...      1
Max. number of iterations               ...    128
Convergence Tolerance                   ... 1.0e-04
Number of perturbations                 ...    246
Perturbation type                       ... REAL

----------------------------
POPLE LINEAR EQUATION SOLVER
----------------------------

  ITERATION   0:   ||err||_max =   4.7286e-01 ( 329.9 sec   0/246 done)
  ITERATION   1:   ||err||_max =   5.8921e-02 ( 313.5 sec   0/246 done)
  ITERATION   2:   ||err||_max =   2.8157e-02 ( 313.7 sec   0/246 done)
  ITERATION   3:   ||err||_max =   1.0127e-02 ( 310.2 sec   0/246 done)
  ITERATION   4:   ||err||_max =   3.6898e-03 ( 310.0 sec   2/246 done)
  ITERATION   5:   ||err||_max =   8.3320e-04 ( 349.6 sec  55/246 done)
  ITERATION   6:   ||err||_max =   2.6911e-04 ( 274.3 sec 177/246 done)
  ITERATION   7: [c07b01n02:1810258:0:1810258] Caught signal 11 (Segmentation fault: address not mapped to object at address (nil))
==== backtrace (tid:1810258) ====
 0 0x0000000000012cf0 __funlockfile()  :0
 1 0x0000000000002ce4 uct_knem_md_query()  ???:0
 2 0x0000000000044ffd ucp_rkey_pack_memh()  ???:0
 3 0x0000000000094444 ucp_tag_rndv_proto_rts_pack()  ???:0
 4 0x0000000000094748 ucp_tag_rndv_rts_progress()  ???:0
 5 0x000000000009933d ucp_tag_send_nbx()  ???:0
 6 0x0000000000005b19 mca_pml_ucx_send()  ???:0
 7 0x00000000000ad913 ompi_coll_base_sendrecv_actual()  ???:0
 8 0x00000000000b5699 ompi_coll_base_allreduce_intra_redscat_allgather()  ???:0
 9 0x0000000000005581 ompi_coll_tuned_allreduce_intra_dec_fixed()  ???:0
10 0x0000000000069f29 MPI_Allreduce()  ???:0
11 0x000000000462472c PAL_AllReduce<double>()  ???:0
12 0x00000000044b1f5b TIntegrationGrid::CalcSFitData()  ???:0
13 0x0000000000962701 SHARK_DRIVER_RPA_Sigma()  ???:0
14 0x0000000000918a79 TShark_Pople::BuildSigmaVectors()  ???:0
15 0x00000000047b0917 TLinEq_Solver::Solve()  ???:0
16 0x000000000091b174 SHARK_Solve_CPSCF_Equations()  ???:0
17 0x0000000000024a04 std::__shared_ptr<TMatrix<double>, (__gnu_cxx::_Lock_policy)2>::~__shared_ptr()  ???:0
18 0x000000000000a5eb ???()  /lustre1/jiangy/jiangy_liuxy/orca-6.1.0-f.0_linux_x86-64/bin/orca_scfresp_mpi:0
19 0x000000000003ad85 __libc_start_main()  ???:0
20 0x0000000000008e2b ???()  /lustre1/jiangy/jiangy_liuxy/orca-6.1.0-f.0_linux_x86-64/bin/orca_scfresp_mpi:0
=================================
[c07b01n02:1810258] *** Process received signal ***
[c07b01n02:1810258] Signal: Segmentation fault (11)
[c07b01n02:1810258] Signal code:  (-6)
[c07b01n02:1810258] Failing at address: 0x4db001b9f52
[c07b01n02:1810258] [ 0] /lib64/libpthread.so.0(+0x12cf0)[0x7ff9b2f3bcf0]
[c07b01n02:1810258] [ 1] /lib64/ucx/libuct_knem.so.0(+0x2ce4)[0x7ff9a00d6ce4]
[c07b01n02:1810258] [ 2] /lib64/libucp.so.0(ucp_rkey_pack_memh+0xed)[0x7ff9a11d1ffd]
[c07b01n02:1810258] [ 3] /lib64/libucp.so.0(ucp_tag_rndv_proto_rts_pack+0xb4)[0x7ff9a1221444]
[c07b01n02:1810258] [ 4] /lib64/libucp.so.0(ucp_tag_rndv_rts_progress+0x288)[0x7ff9a1221748]
[c07b01n02:1810258] [ 5] /lib64/libucp.so.0(ucp_tag_send_nbx+0x3ed)[0x7ff9a122633d]
[c07b01n02:1810258] [ 6] /home/jiangy/jiangy_liuxy/lustre1/openmpi-4.1.8-install/lib/openmpi/mca_pml_ucx.so(mca_pml_ucx_send+0xf9)[0x7ff9a1477b19]
[c07b01n02:1810258] [ 7] /home/jiangy/jiangy_liuxy/lustre1/openmpi-4.1.8-install/lib/libmpi.so.40(ompi_coll_base_sendrecv_actual+0x93)[0x7ff9b4467913]
[c07b01n02:1810258] [ 8] /home/jiangy/jiangy_liuxy/lustre1/openmpi-4.1.8-install/lib/libmpi.so.40(ompi_coll_base_allreduce_intra_redscat_allgather+0x469)[0x7ff9b446f699]
[c07b01n02:1810258] [ 9] /home/jiangy/jiangy_liuxy/lustre1/openmpi-4.1.8-install/lib/openmpi/mca_coll_tuned.so(ompi_coll_tuned_allreduce_intra_dec_fixed+0x41)[0x7ff99e25a581]
[c07b01n02:1810258] [10] /home/jiangy/jiangy_liuxy/lustre1/openmpi-4.1.8-install/lib/libmpi.so.40(PMPI_Allreduce+0x169)[0x7ff9b4423f29]
[c07b01n02:1810258] [11] /home/jiangy/jiangy_liuxy/lustre1/orca-6.1.0-f.0_linux_x86-64/lib/liborca_tools_mpi-87695a6.so.6(_Z13PAL_AllReduceIdEvRT_mN3PAL8ReduceOpENS2_13CommunicatorsE+0x15c)[0x7ff9c1c0172c]
[c07b01n02:1810258] [12] /home/jiangy/jiangy_liuxy/lustre1/orca-6.1.0-f.0_linux_x86-64/lib/liborca_tools_mpi-87695a6.so.6(_ZN16TIntegrationGrid12CalcSFitDataEPcRK6TBasisidR7TMatrixIdEbdbidi+0x124b)[0x7ff9c1a8ef5b]
[c07b01n02:1810258] [13] /home/jiangy/jiangy_liuxy/lustre1/orca-6.1.0-f.0_linux_x86-64/lib/liborca_tools_mpi-87695a6.so.6(_Z22SHARK_DRIVER_RPA_SigmaR13TORCAPointersR15TSharkInterfaceR13TResponseDataiiRK17TGeneralVectorSetPS5_S8_P7TVectorIlEb+0x3e11)[0x7ff9bdf3f701]
[c07b01n02:1810258] [14] /home/jiangy/jiangy_liuxy/lustre1/orca-6.1.0-f.0_linux_x86-64/lib/liborca_tools_mpi-87695a6.so.6(_ZN12TShark_Pople17BuildSigmaVectorsER17TGeneralVectorSetR7TVectorIbES1_+0xd9)[0x7ff9bdef5a79]
[c07b01n02:1810258] [15] /home/jiangy/jiangy_liuxy/lustre1/orca-6.1.0-f.0_linux_x86-64/lib/liborca_tools_mpi-87695a6.so.6(_ZN13TLinEq_Solver5SolveEv+0x807)[0x7ff9c1d8d917]
[c07b01n02:1810258] [16] /home/jiangy/jiangy_liuxy/lustre1/orca-6.1.0-f.0_linux_x86-64/lib/liborca_tools_mpi-87695a6.so.6(_Z27SHARK_Solve_CPSCF_EquationsR13TORCAPointersR13TResponseDataR15TSharkInterface14SHARK_PertType18SHARK_LinEq_SolverdR17TGeneralVectorSetS8_+0x394)[0x7ff9bdef8174]
[c07b01n02:1810258] [17] /home/jiangy/jiangy_liuxy/lustre1/orca-6.1.0-f.0_linux_x86-64/bin/orca_scfresp_mpi(+0x24a04)[0x55c1d1a83a04]
[c07b01n02:1810258] [18] /home/jiangy/jiangy_liuxy/lustre1/orca-6.1.0-f.0_linux_x86-64/bin/orca_scfresp_mpi(+0xa5eb)[0x55c1d1a695eb]
[c07b01n02:1810258] [19] /lib64/libc.so.6(__libc_start_main+0xe5)[0x7ff9b2b9ed85]
[c07b01n02:1810258] [20] /home/jiangy/jiangy_liuxy/lustre1/orca-6.1.0-f.0_linux_x86-64/bin/orca_scfresp_mpi(+0x8e2b)[0x55c1d1a67e2b]
[c07b01n02:1810258] *** End of error message ***
--------------------------------------------------------------------------
Primary job  terminated normally, but 1 process returned
a non-zero exit code. Per user-direction, the job has been aborted.
--------------------------------------------------------------------------
--------------------------------------------------------------------------
mpirun noticed that process rank 41 with PID 1810258 on node c07b01n02 exited on signal 11 (Segmentation fault).
--------------------------------------------------------------------------

ORCA finished by error termination in SCF RESPONSE
Calling Command: mpirun -np 64  /home/jiangy/jiangy_liuxy/lustre1/orca-6.1.0-f.0_linux_x86-64/bin/orca_scfresp_mpi opt-conf-4.respinp.tmp opt-conf-4 1 opt-conf-4 
[file orca_tools/qcmsg.cpp, line 394]: 
  .... aborting the run

[file orca_tools/qcmsg.cpp, line 394]: 
  .... aborting the run

