
                                 *****************
                                 * O   R   C   A *
                                 *****************

                                            #,                                       
                                            ###                                      
                                            ####                                     
                                            #####                                    
                                            ######                                   
                                           ########,                                 
                                     ,,################,,,,,                         
                               ,,#################################,,                 
                          ,,##########################################,,             
                       ,#########################################, ''#####,          
                    ,#############################################,,   '####,        
                  ,##################################################,,,,####,       
                ,###########''''           ''''###############################       
              ,#####''   ,,,,##########,,,,          '''####'''          '####       
            ,##' ,,,,###########################,,,                        '##       
           ' ,,###''''                  '''############,,,                           
         ,,##''                                '''############,,,,        ,,,,,,###''
      ,#''                                            '''#######################'''  
     '                                                          ''''####''''         
             ,#######,   #######,   ,#######,      ##                                
            ,#'     '#,  ##    ##  ,#'     '#,    #''#        ,####,    ,#,          
            ##       ##  ##   ,#'  ##            #'  '#       #'       ,# #          
            ##       ##  #######   ##           ,######,      #####,      #          
            '#,     ,#'  ##    ##  '#,     ,#' ,#      #,     #,   #      #          
             '#######'   ##     ##  '#######'  #'      '#     '####' #    #          



                #########################################################
                #                        -***-                          #
                #          Department of theory and spectroscopy        #
                #                                                       #
                #                      Frank Neese                      #
                #                                                       #
                #     Directorship, Architecture, Infrastructure        #
                #                    SHARK, DRIVERS                     #
                #        Core code/Algorithms in most modules           #
                #                                                       #
                #        Max Planck Institute fuer Kohlenforschung      #
                #                Kaiser Wilhelm Platz 1                 #
                #                 D-45470 Muelheim/Ruhr                 #
                #                      Germany                          #
                #                                                       #
                #                  All rights reserved                  #
                #                        -***-                          #
                #########################################################


                         Program Version 6.1.0-f.0  -   RELEASE   -


 With contributions from (in alphabetic order):
[Max-Planck-Institut fuer Kohlenforschung]                               
  Daniel Aravena         : Magnetic Suceptibility                        
  Michael Atanasov       : Ab Initio Ligand Field Theory (pilot matlab implementation)
  Alexander A. Auer      : GIAO ZORA, VPT2 properties, NMR spectrum      
  Ute Becker             : All parallelization in ORCA, NUMFREQ, NUMCALC 
  Giovanni Bistoni       : ED, misc. LED, open-shell LED, HFLD           
  Dmytro Bykov           : pre 5.0 version of the SCF Hessian            
  Marcos Casanova-Páez   : Triplet and SCS-CIS(D). UHF-(DLPNO)-IP/EA/STEOM-CCSD. UHF-CVS-IP/STEOM-CCSD   
  Vijay G. Chilkuri      : MRCI spin determinant printing, contributions to CSF-ICE 
  Pauline Colinet        : FMM embedding                                 
  Dipayan Datta          : RHF DLPNO-CCSD density                        
  Achintya Kumar Dutta   : EOM-CC, STEOM-CC                              
  Nicolas Foglia         : Exact transition moments, OPA infrastructure, MCD improvements    
  Dmitry Ganyushin       : Spin-Orbit,Spin-Spin,Magnetic field MRCI      
  Miquel Garcia-Rates    : C-PCM and meta-GGA Hessian, CCSD/C-PCM, Gaussian charge scheme 
  Tiago L. C. Gouveia    : GS-ROHF, GS-ROCIS                             
  Yang Guo               : DLPNO-NEVPT2, F12-NEVPT2, CIM, IAO-localization        
  Andreas Hansen         : Spin unrestricted coupled pair/coupled cluster methods 
  Ingolf Harden          : AUTO-CI MPn and infrastructure                
  Benjamin Helmich-Paris : MC-RPA, TRAH-(SCF,CASSCF), AVAS, COSX integrals, SCF dyn. polar., MC-PDFT, srDFT 
  Lee Huntington         : MR-EOM, pCC                                   
  Robert Izsak           : Overlap fitted RIJCOSX, COSX-SCS-MP3, EOM     
  Riya Kayal             : Wick's Theorem for AUTO-CI, AUTO-CI UHF-CCSDT 
  Emily Kempfer          : AUTO-CI RHF CISDT and CCSDT, approximate NEVPT4
  Christian Kollmar      : KDIIS, OOCD, Brueckner-CCSD(T), CCSD density, CASPT2, CASPT2-K, improved NEVPT2 
  Axel Koslowski         : Symmetry handling                             
  Simone Kossmann        : meta-GGA functionals, TD-DFT gradient, OOMP2, (MP2 Hessian; deprecated post 5.0) 
  Lucas Lang             : DCDCAS, Hyperfine gauge corrections, ICE-SOC+SSC
  Marvin Lechner         : AUTO-CI (C++ implementation), FIC-MRCC        
  Spencer Leger          : CASSCF response                               
  Dagmar Lenk            : GEPOL surface, SMD, ORCA-2-JSON               
  Dimitrios Liakos       : Extrapolation schemes; Compound Job, Property file
  Dimitrios Manganas     : Further ROCIS development; embedding schemes. LFT, Crystal Embedding 
  Dimitrios Pantazis     : SARC Basis sets                               
  Anastasios Papadopoulos: AUTO-CI, single reference methods and gradients 
  Taras Petrenko         : pre 6.0 DFT Hessian and TD-DFT gradient,  ECA, NRVS 
  Petra Pikulova         : Analytic Raman intensities                    
  Peter Pinski           : DLPNO-MP2, DLPNO-MP2 Gradient                 
  Shashank Vittal Rao    : ES-AILFT, MagRelax                            
  Christoph Reimann      : Effective Core Potentials                     
  Marius Retegan         : Local ZFS, SOC                                
  Christoph Riplinger    : Optimizer, TS searches, QM/MM, DLPNO-CCSD(T), (RO)-DLPNO pert. Triples 
  Michael Roemelt        : Original ROCIS implementation, recursive CI coupling coefficients
  Masaaki Saitow         : Open-shell DLPNO-CCSD energy and density      
  Barbara Sandhoefer     : DKH picture change effects                    
  Yorick L. A. Schmerwitz: GMF and freeze-and-release deltaSCF, NEB S-IDPP initial path                    
  Kantharuban Sivalingam : CASSCF convergence/infrastructure, NEVPT2, NEVPT3, NEVPT4(SD), FIC-MRCI and CEPA variants
  Bernardo de Souza      : ESD, SOC TD-DFT                               
  Georgi L. Stoychev     : AutoAux, RI-MP2 NMR, DLPNO-MP2 response, X2C  
  Van Anh Tran           : RI-MP2 g-tensors                              
  Willem Van den Heuvel  : Paramagnetic NMR                              
  Zikuan Wang            : NOTCH, Electric field optimization            
  Frank Wennmohs         : Technical directorship and infrastructure     
  Hang Xu                : AUTO-CI-Response properties                   
                                                                         
[FACCTs GmbH]                                                            
  Markus Bursch, Nicolas Foglia, Miquel Garcia-Rates, Ingolf Harden, Hagen Neugebauer, Anastasios Papadopoulos, 
  Christoph Riplinger, Bernardo de Souza, Georgi L. Stoychev                                                    
                                                                 
  APM, various basis sets, CI-OPT, improved COSX, DLPNO-Multilevel,           
  DOCKER, DRACO, updates on ESD, Fragmentator, GOAT, IRC, LR-CPCM, L-BFGS, MBIS, meta-GGA TD-DFT gradient, ML-optimized integration grids, 
  MM, NACMEs, nearIR, NEB, NEB-TS, NL-DFT gradient (VV10), 2- and 3-layer-ONIOM, interface openCOSMO-RS, QMMM,   
  Crystal-QMMM, RESP, rigid body optimization, SF, symmetry and pop. for TD-DFT, various functionals, SOLVATOR                                   
                                                                         
[Other institutions]                                                     
  V. Asgeirsson          : NEB                                           
  Christoph Bannwarth    : sTDA-DFT, sTD-DFT, PBEh-3c, B97-3c, D3        
  Giovanni Bistoni       : ETS/NOCV, ADLD/ADEX, COVALED                  
  Martin Brehm           : Molecular dynamics                            
  Ronald Cardenas        : ETS/NOCV                                      
  Martina Colucci        : COVALED                                       
  Sebastian Ehlert       : rSCAN, r2SCAN, r2SCAN-3c, D4, dhf basis sets  
  Marvin Friede          : D4 for Fr, Ra, Ac-Lr                          
  Lars Goerigk           : TD-DFT with DH, B97 family of functionals     
  Stefan Grimme          : VdW corrections, initial TS optimization, DFT functionals, gCP, sTDA/sTD-DF 
  Waldemar Hujo          : DFT-NL                                        
  H. Jonsson             : NEB                                           
  Holger Kruse           : gCP                                           
  Marcel Mueller         : wB97X-3c, vDZP basis set                      
  Hagen Neugebauer       : wr2SCAN, Native XTB                           
  Gianluca Regni         : ADLD/ADEX                                     
  Tobias Risthaus        : pre 6.0 range-separated hybrid DFT and stability analysis
  Lukas Wittmann         : regularized MP2, r2SCAN double-hybrids, wr2SCAN        
                                                                         
We gratefully acknowledge several colleagues who have allowed us to      
interface, adapt or use parts of their codes:                            
  Ed Valeev, F. Pavosevic, A. Kumar             : LibInt (2-el integral package), F12 methods 
  Garnet Chan, S. Sharma, J. Yang, R. Olivares  : DMRG                   
  Ulf Ekstrom                                   : XCFun DFT Library      
  Mihaly Kallay                                 : mrcc  (arbitrary order and MRCC methods)
  Frank Weinhold                                : gennbo (NPA and NBO analysis)           
  Simon Mueller                                 : openCOSMO-RS                            
  Christopher J. Cramer and Donald G. Truhlar   : smd solvation model                     
  S Lehtola, MJT Oliveira, MAL Marques          : LibXC Library                           
  Liviu Ungur et al                             : ANISO software                          


 Your calculation uses the libint2 library for the computation of 2-el integrals
 For citations please refer to: http://libint.valeyev.net

 Your ORCA version has been built with support for libXC version: 7.0.0
 For citations please refer to: https://libxc.gitlab.io

 This ORCA versions uses:
   CBLAS   interface :  Fast vector & matrix operations
   LAPACKE interface :  Fast linear algebra routines
   SCALAPACK package :  Parallel linear algebra routines
   Shared memory     :  Shared parallel matrices
   BLAS/LAPACK       :  OpenBLAS 0.3.29  USE64BITINT DYNAMIC_ARCH NO_AFFINITY Cooperlake SINGLE_THREADED
        Core in use  :  Cooperlake
   Copyright (c) 2011-2014, The OpenBLAS Project


  ***********************************
  * Starting time: Wed Mar  4 13:44:39 2026
  * Host name:     c02b01n03
  * Process ID:    3046664
  * Working dir.:  /lustre1/jiangy/jiangy_liuxy/NMR/B9D7C2-SSRR-NMR/opt_conf
  ***********************************

NOTE: MaxCore=5000 MB was set to SCF,MP2,MDCI,CIPSI,MRCI,RASCI and CIS
      => If you want to overwrite this, your respective input block should be placed after the MaxCore statement


***************************************
The coordinates will be read from file: opt-conf-15.xyz
***************************************



Warning: The global flag for NMR shieldings has been found
         but shieldings for certain elements have also been explicitly requested in the EPRNMR block
         ==>> only the requested shieldings will be calculated

================================================================================

----- Orbital basis set information -----
Your calculation utilizes the basis: pcSseg-2
   F. Jensen, J. Chem. Theory Comput. 11, 132 (2015).

----- AuxJ basis set information -----
Your calculation utilizes the AutoAux generation procedure.
  G. L. Stoychev, A. A. Auer, F. Neese, J. Chem. Theory Comput. 13, 554 (2017)

----- AuxC basis set information -----
Your calculation utilizes the AutoAux generation procedure.
  G. L. Stoychev, A. A. Auer, F. Neese, J. Chem. Theory Comput. 13, 554 (2017)

----- AuxJK basis set information -----
Your calculation utilizes the AutoAux generation procedure.
  G. L. Stoychev, A. A. Auer, F. Neese, J. Chem. Theory Comput. 13, 554 (2017)

----- AuxX basis set information -----
Your calculation utilizes the AutoAux generation procedure.
  G. L. Stoychev, A. A. Auer, F. Neese, J. Chem. Theory Comput. 13, 554 (2017)

================================================================================
                                        WARNINGS
                       Please study these warnings very carefully!
================================================================================


================================================================================
                                       INPUT FILE
================================================================================
NAME = nmr-conf-15.inp
|  1> !TPSS PCSSEG-2 AUTOAUX NMR CPCM(Methanol)
|  2> 
|  3> %pal nprocs 60 end
|  4> %maxcore 5000
|  5> 
|  6> *XYZFILE 0 1 opt-conf-15.xyz
|  7> 
|  8> %EPRNMR
|  9>    NUCLEI = ALL C {SHIFT}
| 10>    NUCLEI = ALL H {SHIFT}
| 11>    TAU DOBSON
| 12> END
| 13> 
| 14> 
| 15>                          ****END OF INPUT****
================================================================================

                       ****************************
                       * Single Point Calculation *
                       ****************************

---------------------------------
CARTESIAN COORDINATES (ANGSTROEM)
---------------------------------
  C     23.355770  -30.917540   -2.121577
  C     23.298151  -30.068725   -1.012817
  C     22.053396  -29.712728   -0.486858
  C     20.891412  -30.230170   -1.052269
  C     20.952154  -31.067167   -2.164462
  C     22.189766  -31.398661   -2.707777
  C     19.668826  -31.629121   -2.724370
  C     19.147012  -32.849289   -1.923307
  C     17.624738  -33.066720   -2.146105
  C     16.893321  -33.618291   -0.907285
  C     17.106175  -32.846505    0.375431
  C     17.292103  -33.547430    1.573092
  C     17.448398  -32.873796    2.775943
  C     17.427985  -31.473150    2.804530
  C     17.256846  -30.772638    1.624497
  C     17.091859  -31.455052    0.421003
  C     20.035697  -34.052030   -2.252256
  C     17.280738  -33.903974   -3.391620
  O     22.067645  -28.871765    0.580648
  O     24.612254  -31.244588   -2.539363
  O     24.488788  -29.573806   -0.530715
  O     17.591736  -30.806768    3.987009
  O     17.642861  -33.457152    3.996056
  C     24.884326  -29.853187    0.826168
  C     25.247334  -31.342429    0.991455
  C     24.005439  -32.225485    1.034563
  C     26.073744  -28.938967    1.072696
  O     25.719741  -27.567898    0.929344
  C     22.999208  -31.941420    1.963585
  C     21.827985  -32.677866    1.975188
  C     21.660389  -33.740018    1.077422
  C     22.673244  -34.058588    0.193868
  C     23.841705  -33.298846    0.169557
  C     24.744298  -32.158854   -3.624187
  C     20.821317  -28.403416    1.085345
  C     17.678776  -34.878668    4.066848
  O     26.172261  -31.734935   -0.009968
  O     19.679044  -35.260805   -1.578261
  O     17.318609  -35.318837   -3.205899
  O     20.763363  -32.464566    2.799596
  O     20.495020  -34.460635    1.086240
  C     20.873497  -31.450918    3.793835
  H     19.926188  -29.979887   -0.635491
  H     22.236831  -32.047545   -3.569940
  H     19.803898  -31.910823   -3.772102
  H     18.908666  -30.846636   -2.693186
  H     19.286053  -32.615100   -0.865372
  H     17.204122  -32.079089   -2.352872
  H     17.177090  -34.656534   -0.745242
  H     15.821937  -33.631568   -1.140886
  H     17.312231  -34.628585    1.550206
  H     17.248134  -29.689776    1.657809
  H     16.951217  -30.883579   -0.487549
  H     19.978200  -34.276718   -3.319498
  H     21.073262  -33.793026   -2.030990
  H     16.258418  -33.676403   -3.701607
  H     17.939944  -33.608245   -4.216872
  H     17.630426  -31.463281    4.699783
  H     24.082442  -29.582958    1.510540
  H     25.773954  -31.435173    1.946083
  H     26.423544  -29.074516    2.096541
  H     26.884094  -29.208628    0.388202
  H     25.268306  -27.476162    0.079209
  H     23.132023  -31.131917    2.667637
  H     22.542902  -34.901046   -0.474213
  H     24.624300  -33.543519   -0.533457
  H     25.812692  -32.299695   -3.769582
  H     24.278387  -33.119176   -3.391088
  H     24.303359  -31.753350   -4.537729
  H     21.065559  -27.709950    1.886709
  H     20.252642  -27.881222    0.312017
  H     20.219163  -29.221650    1.485301
  H     16.736913  -35.314536    3.724262
  H     18.502600  -35.281518    3.472215
  H     17.833309  -35.125788    5.114467
  H     25.816120  -31.442478   -0.864725
  H     19.849350  -35.146207   -0.630572
  H     18.094465  -35.552260   -2.674268
  H     19.899578  -34.076834    1.750065
  H     19.910907  -31.413585    4.293334
  H     21.661284  -31.693118    4.511758
  H     21.080679  -30.479564    3.342176

----------------------------
CARTESIAN COORDINATES (A.U.)
----------------------------
  NO LB      ZA    FRAG     MASS         X           Y           Z
   0 C     6.0000    0    12.011   44.136010  -58.425684   -4.009199
   1 C     6.0000    0    12.011   44.027124  -56.821655   -1.913947
   2 C     6.0000    0    12.011   41.674879  -56.148920   -0.920027
   3 C     6.0000    0    12.011   39.479048  -57.126743   -1.988499
   4 C     6.0000    0    12.011   39.593833  -58.708436   -4.090241
   5 C     6.0000    0    12.011   41.932581  -59.334870   -5.116957
   6 C     6.0000    0    12.011   37.168695  -59.770376   -5.148312
   7 C     6.0000    0    12.011   36.182610  -62.076160   -3.634523
   8 C     6.0000    0    12.011   33.305929  -62.487045   -4.055550
   9 C     6.0000    0    12.011   31.923751  -63.529364   -1.714520
  10 C     6.0000    0    12.011   32.325985  -62.070899    0.709463
  11 C     6.0000    0    12.011   32.677339  -63.395456    2.972713
  12 C     6.0000    0    12.011   32.972693  -62.122471    5.245771
  13 C     6.0000    0    12.011   32.934118  -59.475634    5.299793
  14 C     6.0000    0    12.011   32.610712  -58.151858    3.069854
  15 C     6.0000    0    12.011   32.298934  -59.441433    0.795580
  16 C     6.0000    0    12.011   37.861981  -64.349011   -4.256146
  17 C     6.0000    0    12.011   32.655862  -64.069226   -6.409234
  18 O     8.0000    0    15.999   41.701806  -54.559728    1.097266
  19 O     8.0000    0    15.999   46.510419  -59.043715   -4.798701
  20 O     8.0000    0    15.999   46.277103  -55.886395   -1.002905
  21 O     8.0000    0    15.999   33.243563  -58.216355    7.534356
  22 O     8.0000    0    15.999   33.340175  -63.224855    7.551451
  23 C     6.0000    0    12.011   47.024561  -56.414348    1.561231
  24 C     6.0000    0    12.011   47.710547  -59.228606    1.873578
  25 C     6.0000    0    12.011   45.363706  -60.897341    1.955041
  26 C     6.0000    0    12.011   49.272235  -54.686722    2.027101
  27 O     8.0000    0    15.999   48.603267  -52.095777    1.756205
  28 C     6.0000    0    12.011   43.462205  -60.360537    3.710638
  29 C     6.0000    0    12.011   41.248914  -61.752217    3.732564
  30 C     6.0000    0    12.011   40.932202  -63.759393    2.036032
  31 C     6.0000    0    12.011   42.846221  -64.361403    0.366358
  32 C     6.0000    0    12.011   45.054293  -62.925700    0.320416
  33 C     6.0000    0    12.011   46.759947  -60.771426   -6.848721
  34 C     6.0000    0    12.011   39.346588  -53.674678    2.051004
  35 C     6.0000    0    12.011   33.408045  -65.911130    7.685229
  36 O     8.0000    0    15.999   49.458406  -59.970337   -0.018836
  37 O     8.0000    0    15.999   37.188003  -66.633265   -2.982481
  38 O     8.0000    0    15.999   32.727429  -66.742929   -6.058272
  39 O     8.0000    0    15.999   39.237069  -61.349138    5.290470
  40 O     8.0000    0    15.999   38.729975  -65.121163    2.052696
  41 C     6.0000    0    12.011   39.445193  -59.433622    7.169310
  42 H     1.0000    0     1.008   37.655038  -56.653776   -1.200904
  43 H     1.0000    0     1.008   42.021520  -60.561083   -6.746208
  44 H     1.0000    0     1.008   37.423944  -60.302716   -7.128240
  45 H     1.0000    0     1.008   35.732200  -58.291694   -5.089384
  46 H     1.0000    0     1.008   36.445359  -61.633607   -1.635315
  47 H     1.0000    0     1.008   32.511078  -60.620693   -4.446283
  48 H     1.0000    0     1.008   32.459995  -65.491357   -1.408303
  49 H     1.0000    0     1.008   29.899128  -63.554454   -2.155962
  50 H     1.0000    0     1.008   32.715375  -65.438542    2.929465
  51 H     1.0000    0     1.008   32.594250  -56.105546    3.132804
  52 H     1.0000    0     1.008   32.033158  -58.361507   -0.921334
  53 H     1.0000    0     1.008   37.753327  -64.773609   -6.272942
  54 H     1.0000    0     1.008   39.822693  -63.859564   -3.838016
  55 H     1.0000    0     1.008   30.723957  -63.639178   -6.995024
  56 H     1.0000    0     1.008   33.901581  -63.510378   -7.968733
  57 H     1.0000    0     1.008   33.316676  -59.456984    8.881302
  58 H     1.0000    0     1.008   45.509221  -55.903689    2.854506
  59 H     1.0000    0     1.008   48.705715  -59.403868    3.677564
  60 H     1.0000    0     1.008   49.933262  -54.942873    3.961889
  61 H     1.0000    0     1.008   50.803575  -55.196308    0.733595
  62 H     1.0000    0     1.008   47.750178  -51.922421    0.149684
  63 H     1.0000    0     1.008   43.713188  -58.830796    5.041104
  64 H     1.0000    0     1.008   42.599911  -65.953418   -0.896132
  65 H     1.0000    0     1.008   46.533184  -63.388065   -1.008088
  66 H     1.0000    0     1.008   48.778918  -61.037578   -7.123477
  67 H     1.0000    0     1.008   45.879503  -62.586173   -6.408227
  68 H     1.0000    0     1.008   45.926693  -60.005135   -8.575065
  69 H     1.0000    0     1.008   39.808136  -52.364217    3.565362
  70 H     1.0000    0     1.008   38.271946  -52.687875    0.589627
  71 H     1.0000    0     1.008   38.208680  -55.220915    2.806812
  72 H     1.0000    0     1.008   31.628182  -66.734801    7.037835
  73 H     1.0000    0     1.008   34.964847  -66.672407    6.561536
  74 H     1.0000    0     1.008   33.700071  -66.378119    9.664942
  75 H     1.0000    0     1.008   48.785396  -59.417673   -1.634093
  76 H     1.0000    0     1.008   37.509836  -66.416707   -1.191609
  77 H     1.0000    0     1.008   34.193584  -67.184035   -5.053634
  78 H     1.0000    0     1.008   37.604752  -64.395884    3.307143
  79 H     1.0000    0     1.008   37.626161  -59.363072    8.113226
  80 H     1.0000    0     1.008   40.933895  -59.891314    8.525987
  81 H     1.0000    0     1.008   39.836709  -57.598028    6.315798

--------------------------------
INTERNAL COORDINATES (ANGSTROEM)
--------------------------------
 C      0   0   0     0.000000000000     0.00000000     0.00000000
 C      1   0   0     1.397553134451     0.00000000     0.00000000
 C      2   1   0     1.397419490841   119.34416330     0.00000000
 C      3   2   1     1.391992154344   119.73489733     1.46348739
 C      4   3   2     1.393279210600   120.74118415   357.97402133
 C      1   2   3     1.390925649626   120.65586813     0.51254116
 C      5   4   3     1.508713986169   118.87629495   178.64247313
 C      7   5   4     1.550097540266   112.81464683   280.10221064
 C      8   7   5     1.553780509628   111.46035154   158.25903612
 C      9   8   7     1.540738992793   113.57168331   213.56166727
 C     10   9   8     1.512058784913   115.62862977    52.42282680
 C     11  10   9     1.400091322659   119.26389807   221.12027310
 C     12  11  10     1.387465880866   120.89671290   182.03662336
 C     13  12  11     1.401086195576   120.09328134   359.69743613
 C     14  13  12     1.382925958792   119.39167698   359.72158858
 C     11  10   9     1.392273072209   122.44162649    42.76560331
 C      8   7   5     1.531193672886   108.17414180   286.06302520
 C      9   8   7     1.539688355781   114.26652225    85.59572976
 O      3   2   1     1.359040757223   116.35553807   180.78561920
 O      1   2   3     1.363912259995   115.25421475   182.00862545
 O      2   1   3     1.376584858271   117.42248481   182.94796379
 O     14  13  12     1.367163712217   120.20983733   180.48864971
 O     13  12  11     1.366307643271   125.65595278   180.40548959
 C     21   2   1     1.440706141369   119.84003577   239.65864520
 C     24  21   2     1.541731169915   110.66668592    69.69032342
 C     25  24  21     1.524450744186   111.76242396   284.36218185
 C     24  21   2     1.520292351186   104.53099717   190.78982885
 O     27  24  21     1.423270357359   111.61477788    60.55677177
 C     26  25  24     1.398668876678   119.15754097   305.85010556
 C     29  26  25     1.383564649315   120.42921807   176.30750453
 C     30  29  26     1.400799607027   119.96740962     1.81511136
 C     31  30  29     1.381314283860   119.80771441     0.78654688
 C     26  25  24     1.388217963564   121.75889273   125.37395264
 C     20   1   2     1.424836834605   118.19372860   176.97922231
 C     19   3   2     1.423868339002   118.21480114   175.36338454
 C     23  13  12     1.423729967834   118.31296766   359.33415393
 O     25  24  21     1.418590809607   110.18812434    50.88695531
 O     17   8   7     1.429198410931   114.72100577   179.72525787
 O     18   9   8     1.427502019519   115.32766871    84.30526361
 O     30  29  26     1.363292534638   125.65194465   182.36567589
 O     31  30  29     1.370201141260   119.76285369   180.45474871
 C     40  30  29     1.424121922529   118.23896013   356.15884973
 H      4   3   2     1.080742288152   120.18597314   178.42644033
 H      6   1   2     1.080087728585   120.51010513   179.45844222
 H      7   5   4     1.093317783925   110.27496992   157.30351668
 H      7   5   4     1.091374724176   108.34924722    40.08334283
 H      8   7   5     1.092429803841   106.79049005    41.63793798
 H      9   8   7     1.093200178281   106.12016682   330.86358428
 H     10   9   8     1.088452685987   109.71950770   288.81155663
 H     10   9   8     1.096635855384   107.26834704   174.15367819
 H     12  11  10     1.081583993242   118.99942680     2.00639380
 H     15  14  13     1.083408691185   118.75378791   180.33230716
 H     16  11  10     1.082509353421   120.09714482   358.30946004
 H     17   8   7     1.092152434263   109.93634963   298.90212776
 H     17   8   7     1.092053594809   108.75992415    56.07224151
 H     18   9   8     1.092253966640   108.98986462   202.77823976
 H     18   9   8     1.096835924719   109.13213287   319.33973653
 H     22  14  13     0.969820154838   108.08912087   355.16024096
 H     24  21   2     1.088304032628   109.98747684   307.64402534
 H     25  24  21     1.094187029820   106.78204098   165.78260447
 H     27  24  21     1.090409913731   109.17685930   178.76946580
 H     27  24  21     1.094494053438   109.24926055   297.40760095
 H     28  27  24     0.966921935913   107.22193215   309.08428811
 H     29  26  25     1.081029742070   119.75475810   357.18897462
 H     32  31  30     1.083077298716   119.05871641   178.14817049
 H     33  26  25     1.080068822933   119.68770171     2.14149121
 H     34  20   1     1.087400672762   106.01945574   181.68051490
 H     34  20   1     1.092532690522   111.22617354   300.62341383
 H     34  20   1     1.092437418780   111.16783451    62.83046080
 H     35  19   3     1.087535358130   105.92296597   183.24020696
 H     35  19   3     1.092755138478   111.21434555   302.11511325
 H     35  19   3     1.091815362852   111.47453090    64.35785480
 H     36  23  13     1.092910096244   111.15349016   299.43215859
 H     36  23  13     1.092960368813   111.09868655    61.49935347
 H     36  23  13     1.087407475788   106.16422692   180.43028634
 H     37  25  24     0.971070279583   107.39271385   309.92331115
 H     38  17   8     0.969665556199   108.48863134   292.77422199
 H     39  18   9     0.969056757042   109.35135223   317.96750338
 H     41  31  30     0.970833954252   108.54990472     1.92064423
 H     42  40  30     1.085114324891   106.09634752   177.02992886
 H     42  40  30     1.093015095739   110.89015810   296.63865814
 H     42  40  30     1.091077009309   111.06044691    58.51745469

---------------------------
INTERNAL COORDINATES (A.U.)
---------------------------
 C      0   0   0     0.000000000000     0.00000000     0.00000000
 C      1   0   0     2.640992681716     0.00000000     0.00000000
 C      2   1   0     2.640740131892   119.34416330     0.00000000
 C      3   2   1     2.630483952277   119.73489733     1.46348739
 C      4   3   2     2.632916136120   120.74118415   357.97402133
 C      1   2   3     2.628468550440   120.65586813     0.51254116
 C      5   4   3     2.851056248276   118.87629495   178.64247313
 C      7   5   4     2.929259831968   112.81464683   280.10221064
 C      8   7   5     2.936219635421   111.46035154   158.25903612
 C      9   8   7     2.911574740232   113.57168331   213.56166727
 C     10   9   8     2.857377001875   115.62862977    52.42282680
 C     11  10   9     2.645789162305   119.26389807   221.12027310
 C     12  11  10     2.621930534996   120.89671290   182.03662336
 C     13  12  11     2.647669199656   120.09328134   359.69743613
 C     14  13  12     2.613351325607   119.39167698   359.72158858
 C     11  10   9     2.631014810108   122.44162649    42.76560331
 C      8   7   5     2.893536699748   108.17414180   286.06302520
 C      9   8   7     2.909589324013   114.26652225    85.59572976
 O      3   2   1     2.568214835988   116.35553807   180.78561920
 O      1   2   3     2.577420642088   115.25421475   182.00862545
 O      2   1   3     2.601368382236   117.42248481   182.94796379
 O     14  13  12     2.583564996326   120.20983733   180.48864971
 O     13  12  11     2.581947260466   125.65595278   180.40548959
 C     21   2   1     2.722540046646   119.84003577   239.65864520
 C     24  21   2     2.913449683270   110.66668592    69.69032342
 C     25  24  21     2.880794411165   111.76242396   284.36218185
 C     24  21   2     2.872936187238   104.53099717   190.78982885
 O     27  24  21     2.689591189937   111.61477788    60.55677177
 C     26  25  24     2.643101128960   119.15754097   305.85010556
 C     29  26  25     2.614558275780   120.42921807   176.30750453
 C     30  29  26     2.647127625785   119.96740962     1.81511136
 C     31  30  29     2.610305701369   119.80771441     0.78654688
 C     26  25  24     2.623351765325   121.75889273   125.37395264
 C     20   1   2     2.692551402926   118.19372860   176.97922231
 C     19   3   2     2.690721211475   118.21480114   175.36338454
 C     23  13  12     2.690459727863   118.31296766   359.33415393
 O     25  24  21     2.680748126255   110.18812434    50.88695531
 O     17   8   7     2.700793587695   114.72100577   179.72525787
 O     18   9   8     2.697587872510   115.32766871    84.30526361
 O     30  29  26     2.576249530885   125.65194465   182.36567589
 O     31  30  29     2.589304905369   119.76285369   180.45474871
 C     40  30  29     2.691200414892   118.23896013   356.15884973
 H      4   3   2     2.042306945954   120.18597314   178.42644033
 H      6   1   2     2.041070007634   120.51010513   179.45844222
 H      7   5   4     2.066071188964   110.27496992   157.30351668
 H      7   5   4     2.062399338176   108.34924722    40.08334283
 H      8   7   5     2.064393149793   106.79049005    41.63793798
 H      9   8   7     2.065848946505   106.12016682   330.86358428
 H     10   9   8     2.056877486246   109.71950770   288.81155663
 H     10   9   8     2.072341435314   107.26834704   174.15367819
 H     12  11  10     2.043897538061   118.99942680     2.00639380
 H     15  14  13     2.047345717449   118.75378791   180.33230716
 H     16  11  10     2.045646215373   120.09714482   358.30946004
 H     17   8   7     2.063868997253   109.93634963   298.90212776
 H     17   8   7     2.063682217754   108.75992415    56.07224151
 H     18   9   8     2.064060865639   108.98986462   202.77823976
 H     18   9   8     2.072719511564   109.13213287   319.33973653
 H     22  14  13     1.832694491802   108.08912087   355.16024096
 H     24  21   2     2.056596572109   109.98747684   307.64402534
 H     25  24  21     2.067713825648   106.78204098   165.78260447
 H     27  24  21     2.060576110665   109.17685930   178.76946580
 H     27  24  21     2.068294016203   109.24926055   297.40760095
 H     28  27  24     1.827217651756   107.22193215   309.08428811
 H     29  26  25     2.042850155137   119.75475810   357.18897462
 H     32  31  30     2.046719476441   119.05871641   178.14817049
 H     33  26  25     2.041034281130   119.68770171     2.14149121
 H     34  20   1     2.054889469363   106.01945574   181.68051490
 H     34  20   1     2.064587577443   111.22617354   300.62341383
 H     34  20   1     2.064407539942   111.16783451    62.83046080
 H     35  19   3     2.055143987822   105.92296597   183.24020696
 H     35  19   3     2.065007943160   111.21434555   302.11511325
 H     35  19   3     2.063232024599   111.47453090    64.35785480
 H     36  23  13     2.065300770898   111.15349016   299.43215859
 H     36  23  13     2.065395772286   111.09868655    61.49935347
 H     36  23  13     2.054902325218   106.16422692   180.43028634
 H     37  25  24     1.835056885202   107.39271385   309.92331115
 H     38  17   8     1.832402342713   108.48863134   292.77422199
 H     39  18   9     1.831251879035   109.35135223   317.96750338
 H     41  31  30     1.834610295047   108.54990472     1.92064423
 H     42  40  30     2.050568898039   106.09634752   177.02992886
 H     42  40  30     2.065499191188   110.89015810   296.63865814
 H     42  40  30     2.061836738612   111.06044691    58.51745469

---------------------
BASIS SET INFORMATION
---------------------
There are 3 groups of distinct atoms

 Group   1 Type C   : 11s7p2d1f contracted to 4s5p2d1f pattern {7211/31111/11/1}
 Group   2 Type O   : 11s7p2d1f contracted to 4s5p2d1f pattern {7211/31111/11/1}
 Group   3 Type H   : 6s3p1d contracted to 3s2p1d pattern {411/21/1}

Atom   0C    basis set group =>   1
Atom   1C    basis set group =>   1
Atom   2C    basis set group =>   1
Atom   3C    basis set group =>   1
Atom   4C    basis set group =>   1
Atom   5C    basis set group =>   1
Atom   6C    basis set group =>   1
Atom   7C    basis set group =>   1
Atom   8C    basis set group =>   1
Atom   9C    basis set group =>   1
Atom  10C    basis set group =>   1
Atom  11C    basis set group =>   1
Atom  12C    basis set group =>   1
Atom  13C    basis set group =>   1
Atom  14C    basis set group =>   1
Atom  15C    basis set group =>   1
Atom  16C    basis set group =>   1
Atom  17C    basis set group =>   1
Atom  18O    basis set group =>   2
Atom  19O    basis set group =>   2
Atom  20O    basis set group =>   2
Atom  21O    basis set group =>   2
Atom  22O    basis set group =>   2
Atom  23C    basis set group =>   1
Atom  24C    basis set group =>   1
Atom  25C    basis set group =>   1
Atom  26C    basis set group =>   1
Atom  27O    basis set group =>   2
Atom  28C    basis set group =>   1
Atom  29C    basis set group =>   1
Atom  30C    basis set group =>   1
Atom  31C    basis set group =>   1
Atom  32C    basis set group =>   1
Atom  33C    basis set group =>   1
Atom  34C    basis set group =>   1
Atom  35C    basis set group =>   1
Atom  36O    basis set group =>   2
Atom  37O    basis set group =>   2
Atom  38O    basis set group =>   2
Atom  39O    basis set group =>   2
Atom  40O    basis set group =>   2
Atom  41C    basis set group =>   1
Atom  42H    basis set group =>   3
Atom  43H    basis set group =>   3
Atom  44H    basis set group =>   3
Atom  45H    basis set group =>   3
Atom  46H    basis set group =>   3
Atom  47H    basis set group =>   3
Atom  48H    basis set group =>   3
Atom  49H    basis set group =>   3
Atom  50H    basis set group =>   3
Atom  51H    basis set group =>   3
Atom  52H    basis set group =>   3
Atom  53H    basis set group =>   3
Atom  54H    basis set group =>   3
Atom  55H    basis set group =>   3
Atom  56H    basis set group =>   3
Atom  57H    basis set group =>   3
Atom  58H    basis set group =>   3
Atom  59H    basis set group =>   3
Atom  60H    basis set group =>   3
Atom  61H    basis set group =>   3
Atom  62H    basis set group =>   3
Atom  63H    basis set group =>   3
Atom  64H    basis set group =>   3
Atom  65H    basis set group =>   3
Atom  66H    basis set group =>   3
Atom  67H    basis set group =>   3
Atom  68H    basis set group =>   3
Atom  69H    basis set group =>   3
Atom  70H    basis set group =>   3
Atom  71H    basis set group =>   3
Atom  72H    basis set group =>   3
Atom  73H    basis set group =>   3
Atom  74H    basis set group =>   3
Atom  75H    basis set group =>   3
Atom  76H    basis set group =>   3
Atom  77H    basis set group =>   3
Atom  78H    basis set group =>   3
Atom  79H    basis set group =>   3
Atom  80H    basis set group =>   3
Atom  81H    basis set group =>   3
---------------------------------
AUXILIARY/J BASIS SET INFORMATION
---------------------------------
There are 3 groups of distinct atoms

 Group   1 Type C   : 15s13p12d5f5g contracted to 15s13p12d5f5g pattern {111111111111111/1111111111111/111111111111/11111/11111}
 Group   2 Type O   : 15s13p12d5f5g contracted to 15s13p12d5f5g pattern {111111111111111/1111111111111/111111111111/11111/11111}
 Group   3 Type H   : 12s4p3d2f contracted to 12s4p3d2f pattern {111111111111/1111/111/11}

Atom   0C    basis set group =>   1
Atom   1C    basis set group =>   1
Atom   2C    basis set group =>   1
Atom   3C    basis set group =>   1
Atom   4C    basis set group =>   1
Atom   5C    basis set group =>   1
Atom   6C    basis set group =>   1
Atom   7C    basis set group =>   1
Atom   8C    basis set group =>   1
Atom   9C    basis set group =>   1
Atom  10C    basis set group =>   1
Atom  11C    basis set group =>   1
Atom  12C    basis set group =>   1
Atom  13C    basis set group =>   1
Atom  14C    basis set group =>   1
Atom  15C    basis set group =>   1
Atom  16C    basis set group =>   1
Atom  17C    basis set group =>   1
Atom  18O    basis set group =>   2
Atom  19O    basis set group =>   2
Atom  20O    basis set group =>   2
Atom  21O    basis set group =>   2
Atom  22O    basis set group =>   2
Atom  23C    basis set group =>   1
Atom  24C    basis set group =>   1
Atom  25C    basis set group =>   1
Atom  26C    basis set group =>   1
Atom  27O    basis set group =>   2
Atom  28C    basis set group =>   1
Atom  29C    basis set group =>   1
Atom  30C    basis set group =>   1
Atom  31C    basis set group =>   1
Atom  32C    basis set group =>   1
Atom  33C    basis set group =>   1
Atom  34C    basis set group =>   1
Atom  35C    basis set group =>   1
Atom  36O    basis set group =>   2
Atom  37O    basis set group =>   2
Atom  38O    basis set group =>   2
Atom  39O    basis set group =>   2
Atom  40O    basis set group =>   2
Atom  41C    basis set group =>   1
Atom  42H    basis set group =>   3
Atom  43H    basis set group =>   3
Atom  44H    basis set group =>   3
Atom  45H    basis set group =>   3
Atom  46H    basis set group =>   3
Atom  47H    basis set group =>   3
Atom  48H    basis set group =>   3
Atom  49H    basis set group =>   3
Atom  50H    basis set group =>   3
Atom  51H    basis set group =>   3
Atom  52H    basis set group =>   3
Atom  53H    basis set group =>   3
Atom  54H    basis set group =>   3
Atom  55H    basis set group =>   3
Atom  56H    basis set group =>   3
Atom  57H    basis set group =>   3
Atom  58H    basis set group =>   3
Atom  59H    basis set group =>   3
Atom  60H    basis set group =>   3
Atom  61H    basis set group =>   3
Atom  62H    basis set group =>   3
Atom  63H    basis set group =>   3
Atom  64H    basis set group =>   3
Atom  65H    basis set group =>   3
Atom  66H    basis set group =>   3
Atom  67H    basis set group =>   3
Atom  68H    basis set group =>   3
Atom  69H    basis set group =>   3
Atom  70H    basis set group =>   3
Atom  71H    basis set group =>   3
Atom  72H    basis set group =>   3
Atom  73H    basis set group =>   3
Atom  74H    basis set group =>   3
Atom  75H    basis set group =>   3
Atom  76H    basis set group =>   3
Atom  77H    basis set group =>   3
Atom  78H    basis set group =>   3
Atom  79H    basis set group =>   3
Atom  80H    basis set group =>   3
Atom  81H    basis set group =>   3
---------------------------------
AUXILIARY/C BASIS SET INFORMATION
---------------------------------
There are 3 groups of distinct atoms

 Group   1 Type C   : 15s13p12d5f5g contracted to 15s13p12d5f5g pattern {111111111111111/1111111111111/111111111111/11111/11111}
 Group   2 Type O   : 15s13p12d5f5g contracted to 15s13p12d5f5g pattern {111111111111111/1111111111111/111111111111/11111/11111}
 Group   3 Type H   : 12s4p3d2f contracted to 12s4p3d2f pattern {111111111111/1111/111/11}

Atom   0C    basis set group =>   1
Atom   1C    basis set group =>   1
Atom   2C    basis set group =>   1
Atom   3C    basis set group =>   1
Atom   4C    basis set group =>   1
Atom   5C    basis set group =>   1
Atom   6C    basis set group =>   1
Atom   7C    basis set group =>   1
Atom   8C    basis set group =>   1
Atom   9C    basis set group =>   1
Atom  10C    basis set group =>   1
Atom  11C    basis set group =>   1
Atom  12C    basis set group =>   1
Atom  13C    basis set group =>   1
Atom  14C    basis set group =>   1
Atom  15C    basis set group =>   1
Atom  16C    basis set group =>   1
Atom  17C    basis set group =>   1
Atom  18O    basis set group =>   2
Atom  19O    basis set group =>   2
Atom  20O    basis set group =>   2
Atom  21O    basis set group =>   2
Atom  22O    basis set group =>   2
Atom  23C    basis set group =>   1
Atom  24C    basis set group =>   1
Atom  25C    basis set group =>   1
Atom  26C    basis set group =>   1
Atom  27O    basis set group =>   2
Atom  28C    basis set group =>   1
Atom  29C    basis set group =>   1
Atom  30C    basis set group =>   1
Atom  31C    basis set group =>   1
Atom  32C    basis set group =>   1
Atom  33C    basis set group =>   1
Atom  34C    basis set group =>   1
Atom  35C    basis set group =>   1
Atom  36O    basis set group =>   2
Atom  37O    basis set group =>   2
Atom  38O    basis set group =>   2
Atom  39O    basis set group =>   2
Atom  40O    basis set group =>   2
Atom  41C    basis set group =>   1
Atom  42H    basis set group =>   3
Atom  43H    basis set group =>   3
Atom  44H    basis set group =>   3
Atom  45H    basis set group =>   3
Atom  46H    basis set group =>   3
Atom  47H    basis set group =>   3
Atom  48H    basis set group =>   3
Atom  49H    basis set group =>   3
Atom  50H    basis set group =>   3
Atom  51H    basis set group =>   3
Atom  52H    basis set group =>   3
Atom  53H    basis set group =>   3
Atom  54H    basis set group =>   3
Atom  55H    basis set group =>   3
Atom  56H    basis set group =>   3
Atom  57H    basis set group =>   3
Atom  58H    basis set group =>   3
Atom  59H    basis set group =>   3
Atom  60H    basis set group =>   3
Atom  61H    basis set group =>   3
Atom  62H    basis set group =>   3
Atom  63H    basis set group =>   3
Atom  64H    basis set group =>   3
Atom  65H    basis set group =>   3
Atom  66H    basis set group =>   3
Atom  67H    basis set group =>   3
Atom  68H    basis set group =>   3
Atom  69H    basis set group =>   3
Atom  70H    basis set group =>   3
Atom  71H    basis set group =>   3
Atom  72H    basis set group =>   3
Atom  73H    basis set group =>   3
Atom  74H    basis set group =>   3
Atom  75H    basis set group =>   3
Atom  76H    basis set group =>   3
Atom  77H    basis set group =>   3
Atom  78H    basis set group =>   3
Atom  79H    basis set group =>   3
Atom  80H    basis set group =>   3
Atom  81H    basis set group =>   3
----------------------------------
AUXILIARY/JK BASIS SET INFORMATION
----------------------------------
There are 3 groups of distinct atoms

 Group   1 Type C   : 15s13p12d5f5g contracted to 15s13p12d5f5g pattern {111111111111111/1111111111111/111111111111/11111/11111}
 Group   2 Type O   : 15s13p12d5f5g contracted to 15s13p12d5f5g pattern {111111111111111/1111111111111/111111111111/11111/11111}
 Group   3 Type H   : 12s4p3d2f contracted to 12s4p3d2f pattern {111111111111/1111/111/11}

Atom   0C    basis set group =>   1
Atom   1C    basis set group =>   1
Atom   2C    basis set group =>   1
Atom   3C    basis set group =>   1
Atom   4C    basis set group =>   1
Atom   5C    basis set group =>   1
Atom   6C    basis set group =>   1
Atom   7C    basis set group =>   1
Atom   8C    basis set group =>   1
Atom   9C    basis set group =>   1
Atom  10C    basis set group =>   1
Atom  11C    basis set group =>   1
Atom  12C    basis set group =>   1
Atom  13C    basis set group =>   1
Atom  14C    basis set group =>   1
Atom  15C    basis set group =>   1
Atom  16C    basis set group =>   1
Atom  17C    basis set group =>   1
Atom  18O    basis set group =>   2
Atom  19O    basis set group =>   2
Atom  20O    basis set group =>   2
Atom  21O    basis set group =>   2
Atom  22O    basis set group =>   2
Atom  23C    basis set group =>   1
Atom  24C    basis set group =>   1
Atom  25C    basis set group =>   1
Atom  26C    basis set group =>   1
Atom  27O    basis set group =>   2
Atom  28C    basis set group =>   1
Atom  29C    basis set group =>   1
Atom  30C    basis set group =>   1
Atom  31C    basis set group =>   1
Atom  32C    basis set group =>   1
Atom  33C    basis set group =>   1
Atom  34C    basis set group =>   1
Atom  35C    basis set group =>   1
Atom  36O    basis set group =>   2
Atom  37O    basis set group =>   2
Atom  38O    basis set group =>   2
Atom  39O    basis set group =>   2
Atom  40O    basis set group =>   2
Atom  41C    basis set group =>   1
Atom  42H    basis set group =>   3
Atom  43H    basis set group =>   3
Atom  44H    basis set group =>   3
Atom  45H    basis set group =>   3
Atom  46H    basis set group =>   3
Atom  47H    basis set group =>   3
Atom  48H    basis set group =>   3
Atom  49H    basis set group =>   3
Atom  50H    basis set group =>   3
Atom  51H    basis set group =>   3
Atom  52H    basis set group =>   3
Atom  53H    basis set group =>   3
Atom  54H    basis set group =>   3
Atom  55H    basis set group =>   3
Atom  56H    basis set group =>   3
Atom  57H    basis set group =>   3
Atom  58H    basis set group =>   3
Atom  59H    basis set group =>   3
Atom  60H    basis set group =>   3
Atom  61H    basis set group =>   3
Atom  62H    basis set group =>   3
Atom  63H    basis set group =>   3
Atom  64H    basis set group =>   3
Atom  65H    basis set group =>   3
Atom  66H    basis set group =>   3
Atom  67H    basis set group =>   3
Atom  68H    basis set group =>   3
Atom  69H    basis set group =>   3
Atom  70H    basis set group =>   3
Atom  71H    basis set group =>   3
Atom  72H    basis set group =>   3
Atom  73H    basis set group =>   3
Atom  74H    basis set group =>   3
Atom  75H    basis set group =>   3
Atom  76H    basis set group =>   3
Atom  77H    basis set group =>   3
Atom  78H    basis set group =>   3
Atom  79H    basis set group =>   3
Atom  80H    basis set group =>   3
Atom  81H    basis set group =>   3
---------------------------------
AUXILIARY/X BASIS SET INFORMATION
---------------------------------
There are 3 groups of distinct atoms

 Group   1 Type C   : 15s13p12d5f5g contracted to 15s13p12d5f5g pattern {111111111111111/1111111111111/111111111111/11111/11111}
 Group   2 Type O   : 15s13p12d5f5g contracted to 15s13p12d5f5g pattern {111111111111111/1111111111111/111111111111/11111/11111}
 Group   3 Type H   : 12s4p3d2f contracted to 12s4p3d2f pattern {111111111111/1111/111/11}

Atom   0C    basis set group =>   1
Atom   1C    basis set group =>   1
Atom   2C    basis set group =>   1
Atom   3C    basis set group =>   1
Atom   4C    basis set group =>   1
Atom   5C    basis set group =>   1
Atom   6C    basis set group =>   1
Atom   7C    basis set group =>   1
Atom   8C    basis set group =>   1
Atom   9C    basis set group =>   1
Atom  10C    basis set group =>   1
Atom  11C    basis set group =>   1
Atom  12C    basis set group =>   1
Atom  13C    basis set group =>   1
Atom  14C    basis set group =>   1
Atom  15C    basis set group =>   1
Atom  16C    basis set group =>   1
Atom  17C    basis set group =>   1
Atom  18O    basis set group =>   2
Atom  19O    basis set group =>   2
Atom  20O    basis set group =>   2
Atom  21O    basis set group =>   2
Atom  22O    basis set group =>   2
Atom  23C    basis set group =>   1
Atom  24C    basis set group =>   1
Atom  25C    basis set group =>   1
Atom  26C    basis set group =>   1
Atom  27O    basis set group =>   2
Atom  28C    basis set group =>   1
Atom  29C    basis set group =>   1
Atom  30C    basis set group =>   1
Atom  31C    basis set group =>   1
Atom  32C    basis set group =>   1
Atom  33C    basis set group =>   1
Atom  34C    basis set group =>   1
Atom  35C    basis set group =>   1
Atom  36O    basis set group =>   2
Atom  37O    basis set group =>   2
Atom  38O    basis set group =>   2
Atom  39O    basis set group =>   2
Atom  40O    basis set group =>   2
Atom  41C    basis set group =>   1
Atom  42H    basis set group =>   3
Atom  43H    basis set group =>   3
Atom  44H    basis set group =>   3
Atom  45H    basis set group =>   3
Atom  46H    basis set group =>   3
Atom  47H    basis set group =>   3
Atom  48H    basis set group =>   3
Atom  49H    basis set group =>   3
Atom  50H    basis set group =>   3
Atom  51H    basis set group =>   3
Atom  52H    basis set group =>   3
Atom  53H    basis set group =>   3
Atom  54H    basis set group =>   3
Atom  55H    basis set group =>   3
Atom  56H    basis set group =>   3
Atom  57H    basis set group =>   3
Atom  58H    basis set group =>   3
Atom  59H    basis set group =>   3
Atom  60H    basis set group =>   3
Atom  61H    basis set group =>   3
Atom  62H    basis set group =>   3
Atom  63H    basis set group =>   3
Atom  64H    basis set group =>   3
Atom  65H    basis set group =>   3
Atom  66H    basis set group =>   3
Atom  67H    basis set group =>   3
Atom  68H    basis set group =>   3
Atom  69H    basis set group =>   3
Atom  70H    basis set group =>   3
Atom  71H    basis set group =>   3
Atom  72H    basis set group =>   3
Atom  73H    basis set group =>   3
Atom  74H    basis set group =>   3
Atom  75H    basis set group =>   3
Atom  76H    basis set group =>   3
Atom  77H    basis set group =>   3
Atom  78H    basis set group =>   3
Atom  79H    basis set group =>   3
Atom  80H    basis set group =>   3
Atom  81H    basis set group =>   3
--------------------------------------------------------------------------
WARNING: There was an error initializing an OpenFabrics device.

  Local host:   c02b01n03
  Local device: mlx5_0
--------------------------------------------------------------------------
--------------------------------------------------------------------------
WARNING: There is at least one non-excluded one OpenFabrics device found,
but there are no active ports detected (or Open MPI was unable to use
them).  This is most certainly not what you wanted.  Check your
cables, subnet manager configuration, etc.  The openib BTL will be
ignored for this job.

  Local host: c02b01n03
--------------------------------------------------------------------------
[c02b01n03:3046665] 49 more processes have sent help message help-mpi-btl-openib.txt / error in device init
[c02b01n03:3046665] Set MCA parameter "orte_base_help_aggregate" to 0 to see all help / error messages
[c02b01n03:3046665] 9 more processes have sent help message help-mpi-btl-openib.txt / no active ports found


           ************************************************************
           *        Program running with 60 parallel MPI-processes    *
           *              working on a common directory               *
           ************************************************************
------------------------------------------------------------------------------
                             ORCA STARTUP CALCULATIONS
                           -- RI-GTO INTEGRALS CHOSEN --
------------------------------------------------------------------------------
------------------------------------------------------------------------------
                   ___                                                        
                  /   \      - P O W E R E D   B Y -                         
                 /     \                                                     
                 |  |  |   _    _      __       _____    __    __             
                 |  |  |  | |  | |    /  \     |  _  \  |  |  /  |          
                  \  \/   | |  | |   /    \    | | | |  |  | /  /          
                 / \  \   | |__| |  /  /\  \   | |_| |  |  |/  /          
                |  |  |   |  __  | /  /__\  \  |    /   |      \           
                |  |  |   | |  | | |   __   |  |    \   |  |\   \          
                \     /   | |  | | |  |  |  |  | |\  \  |  | \   \       
                 \___/    |_|  |_| |__|  |__|  |_| \__\ |__|  \__/        
                                                                              
                      - O R C A' S   B I G   F R I E N D -                    
                                      &                                       
                       - I N T E G R A L  F E E D E R -                       
                                                                              
 v1 FN, 2020, v2 2021, v3 2022-2024                                           
------------------------------------------------------------------------------


----------------------
SHARK INTEGRAL PACKAGE
----------------------

Number of atoms                             ...     82
Number of basis functions                   ...   2072
Number of shells                            ...    744
Maximum angular momentum                    ...      3
Integral batch strategy                     ... SHARK/LIBINT Hybrid
RI-J (if used) integral strategy            ... SPLIT-RIJ (Revised 2003 algorithm where possible)
Printlevel                                  ...      1
Contraction scheme used                     ... SEGMENTED contraction
Prescreening option                         ... SCHWARTZ
   Thresh                                   ... 1.000e-10
   Tcut                                     ... 1.000e-11
   Tpresel                                  ... 1.000e-11 
Coulomb Range Separation                    ... NOT USED
Exchange Range Separation                   ... NOT USED
Multipole approximations                    ... NOT USED
Finite Nucleus Model                        ... NOT USED
CABS basis                                  ... NOT available
Auxiliary Coulomb fitting basis             ... AVAILABLE
   # of basis functions in Aux-J            ...  10268
   # of shells in Aux-J                     ...   2940
   Maximum angular momentum in Aux-J        ...      4
Auxiliary J/K fitting basis                 ... AVAILABLE
   # of basis functions in Aux-JK           ...  10268
   # of shells in Aux-JK                    ...   2940
   Maximum angular momentum in Aux-JK       ...      4
Auxiliary Correlation fitting basis         ... AVAILABLE
   # of basis functions in Aux-C            ...  10268
   # of shells in Aux-C                     ...   2940
   Maximum angular momentum in Aux-C        ...      4
Auxiliary 'external' fitting basis          ... NOT available

Checking pre-screening integrals            ... done (  0.0 sec) Dimension = 744
   => SHARK Basis and OBASIS are compatible. Storing Pre-screening
Shell pair information
Shell pair cut-off parameter TPreSel        ...   1.0e-11
Total number of shell pairs                 ...    277140
Shell pairs after pre-screening             ...    151673
Total number of primitive shell pairs       ...    823733
Primitive shell pairs kept                  ...    277731
          la=0 lb=0:  28866 shell pairs
          la=1 lb=0:  50412 shell pairs
          la=1 lb=1:  20579 shell pairs
          la=2 lb=0:  19898 shell pairs
          la=2 lb=1:  15067 shell pairs
          la=2 lb=2:   2686 shell pairs
          la=3 lb=0:   6860 shell pairs
          la=3 lb=1:   5155 shell pairs
          la=3 lb=2:   1809 shell pairs
          la=3 lb=3:    341 shell pairs

Checking whether 4 symmetric matrices of dimension 2072 fit in memory
:Max Core in MB      =   5000.00
 MB in use           =    187.24
 MB left             =   4812.76
 MB needed           =     65.54
 Data fit in memory  = YES
Calculating RI/J V-Matrix + Cholesky decomp.... done (  6.4 sec)
Calculating RI/JK V-Matrix + Cholesky decomp.... done (  3.9 sec)
Calculating RI/C V-Matrix + Cholesky decomp.... done (  4.1 sec)
Calculating Nuclear repulsion               ... done (  0.1 sec) ENN=   5733.700394734497 Eh

Diagonalization of the overlap matrix:
Smallest eigenvalue                        ... 7.795e-06
Time for diagonalization                   ...    8.079 sec
Threshold for overlap eigenvalues          ... 1.000e-07
Number of eigenvalues below threshold      ... 0
Time for construction of square roots      ...    0.779 sec
Total time needed                          ...    8.902 sec

-------------------
DFT GRID GENERATION
-------------------

General Integration Accuracy     IntAcc      ... 4.388
Radial Grid Type                 RadialGrid  ... OptM3 with GC (2021)
Angular Grid (max. ang.)         AngularGrid ... 4 (Lebedev-302)
Angular grid pruning method      GridPruning ... 4 (adaptive)
Weight generation scheme         WeightScheme... mBecke (2022)
Basis function cutoff            BFCut       ... 1.0000e-10
Integration weight cutoff        WCut        ... 1.0000e-14
Partially contracted basis set               ... off
Rotationally invariant grid construction     ... off
Angular grids for H and He will be reduced by one unit
Diffuse basis detected: some atoms will have their outermost
                        angular grid increased by 1.

Total number of grid points                  ...   376630
Total number of batches                      ...     5923
Average number of points per batch           ...       63
Average number of grid points per atom       ...     4593
Grids setup in   3.2 sec
Initializing property integral containers    ... done (  0.2 sec)

SHARK setup successfully completed in  37.0 seconds

Maximum memory used throughout the entire STARTUP-calculation: 259.3 MB
--------------------------------------------------------------------------
WARNING: There is at least one non-excluded one OpenFabrics device found,
but there are no active ports detected (or Open MPI was unable to use
them).  This is most certainly not what you wanted.  Check your
cables, subnet manager configuration, etc.  The openib BTL will be
ignored for this job.

  Local host: c02b01n03
--------------------------------------------------------------------------
--------------------------------------------------------------------------
WARNING: There was an error initializing an OpenFabrics device.

  Local host:   c02b01n03
  Local device: mlx5_0
--------------------------------------------------------------------------


           ************************************************************
           *        Program running with 60 parallel MPI-processes    *
           *              working on a common directory               *
           ************************************************************
-------------------------------------------------------------------------------
                                 ORCA GUESS
                   Start orbitals & Density for SCF / CASSCF
-------------------------------------------------------------------------------

------------
SCF SETTINGS
------------
Hamiltonian:
 Density Functional     Method          .... DFT(GTOs)
 Exchange Functional    Exchange        .... TPSS
 Correlation Functional Correlation     .... TPSS
 LDA part of GGA corr.  LDAOpt          .... PW91-LDA
 Gradients option       PostSCFGGA      .... off
   NL short-range parameter             ....  5.000000
 RI-approximation to the Coulomb term is turned on
   Number of AuxJ basis functions       .... 10268


General Settings:
 Integral files         IntName         .... nmr-conf-15
 Hartree-Fock type      HFTyp           .... RHF
 Total Charge           Charge          ....    0
 Multiplicity           Mult            ....    1
 Number of Electrons    NEL             ....  314
 Basis Dimension        Dim             .... 2072
 Nuclear Repulsion      ENuc            ....   5733.7003947345 Eh

Convergence Acceleration:
 AO-DIIS                CNVDIIS         .... on
   Start iteration      DIISMaxIt       ....    12
   Startup error        DIISStart       ....  0.200000
   # of expansion vecs  DIISMaxEq       ....     5
   Bias factor          DIISBfac        ....   1.050
   Max. coefficient     DIISMaxC        ....  10.000
 MO-DIIS                CNVKDIIS        .... off
 Trust-Rad. Augm. Hess. CNVTRAH         .... auto
   Auto Start mean grad. ratio tolernc. ....  1.125000
   Auto Start start iteration           ....    50
   Auto Start num. interpolation iter.  ....    10
   Max. Number of Micro iterations      ....    24
   Max. Number of Macro iterations      .... Maxiter - #DIIS iter
   Number of Davidson start vectors     ....     2
   Converg. threshold    (grad. norm)   ....   5.000e-05
   Grad. Scal. Fac. for Micro threshold ....   0.100
   Minimum threshold for Micro iter.    ....   1.000e-02
   NR start threshold (gradient norm)   ....   1.000e-04
   Initial trust radius                 ....   0.400
   Minimum AH scaling param. (alpha)    ....   1.000
   Maximum AH scaling param. (alpha)    .... 1000.000
   Quad. conv. algorithm                .... NR
   White noise on init. David. guess    .... on
   Maximum white noise                  ....   0.010
   Pseudo random numbers                .... off
   Inactive MOs                         .... canonical
   Orbital update algorithm             .... Taylor
   Preconditioner                       .... Diag
   Full preconditioner red. dimension   ....   250
 SOSCF                 CNVSOSCF           .... on
   Start iteration     SOSCFMaxIt         ....   150
   Startup grad/error  SOSCFStart         ....  0.003300
   Hessian update      SOSCFHessUp        .... L-BFGS
   Autom. constraints  SOSCFAutoConstrain .... off
 Level Shifting         CNVShift        .... on
   Level shift para.    LevelShift      ....    0.2500
   Turn off err/grad.   ShiftErr        ....    0.0010
 Zerner damping         CNVZerner       .... off
 Static damping         CNVDamp         .... on
   Fraction old density DampFac         ....    0.7000
   Max. Damping (<1)    DampMax         ....    0.9800
   Min. Damping (>=0)   DampMin         ....    0.0000
   Turn off err/grad.   DampErr         ....    0.1000

SCF Procedure:
 Maximum # iterations   MaxIter         ....   125
 SCF integral mode      SCFMode         .... Direct
   Integral package                     .... SHARK and LIBINT hybrid scheme
 Reset frequency        DirectResetFreq ....    20
 Integral Threshold     Thresh          ....  1.000e-10 Eh
 Primitive CutOff       TCut            ....  1.000e-11 Eh

Convergence Tolerance:
 Convergence Check Mode ConvCheckMode   .... Total+1el-Energy
 Convergence forced     ConvForced      .... 0
 Energy Change          TolE            ....  1.000e-06 Eh
 1-El. energy change                    ....  1.000e-03 Eh
 Orbital Gradient       TolG            ....  5.000e-05
 Orbital Rotation angle TolX            ....  5.000e-05
 DIIS Error             TolErr          ....  1.000e-06

------------------------------
INITIAL GUESS: MODEL POTENTIAL
------------------------------
Loading Hartree-Fock densities                     ... done
Calculating cut-offs                               ... done
Initializing the effective Hamiltonian             ... done
Setting up the integral package (SHARK)            ... done
Starting the Coulomb interaction                   ... done (   0.9 sec)
Making the grid                                    ... done (   0.7 sec)
Mapping shells                                     ... done
Starting the XC term evaluation                    ... done (   0.1 sec)
  promolecular density results
     # of electrons  =    313.983933796
     EX              =   -260.302490068
     EC              =    -10.645686539
     EX+EC           =   -270.948176607
Transforming the Hamiltonian                       ... done (   0.4 sec)
Diagonalizing the Hamiltonian                      ... [c02b01n03:3047053] 8 more processes have sent help message help-mpi-btl-openib.txt / no active ports found
[c02b01n03:3047053] Set MCA parameter "orte_base_help_aggregate" to 0 to see all help / error messages
[c02b01n03:3047053] 50 more processes have sent help message help-mpi-btl-openib.txt / error in device init
done (   0.6 sec)
Back transforming the eigenvectors                 ... done (   0.2 sec)
Now organizing SCF variables                       ... done
                      ------------------
                      INITIAL GUESS DONE (   3.5 sec)
                      ------------------
             **** ENERGY FILE WAS UPDATED (nmr-conf-15.en.tmp) ****
Finished Guess after   7.7 sec
Maximum memory used throughout the entire GUESS-calculation: 292.0 MB
--------------------------------------------------------------------------
WARNING: There was an error initializing an OpenFabrics device.

  Local host:   c02b01n03
  Local device: mlx5_0
--------------------------------------------------------------------------
--------------------------------------------------------------------------
WARNING: There is at least one non-excluded one OpenFabrics device found,
but there are no active ports detected (or Open MPI was unable to use
them).  This is most certainly not what you wanted.  Check your
cables, subnet manager configuration, etc.  The openib BTL will be
ignored for this job.

  Local host: c02b01n03
--------------------------------------------------------------------------


           ************************************************************
           *        Program running with 60 parallel MPI-processes    *
           *              working on a common directory               *
           ************************************************************

-------------------------------------------------------------------------------------------
                                      ORCA LEAN-SCF
                              memory conserving SCF solver
-------------------------------------------------------------------------------------------

--------------------
CPCM SOLVATION MODEL
--------------------
CPCM parameters:
  Epsilon                                         ...      33.4280
  Refrac                                          ...       1.3288
  Rsolv                                           ...       1.3000
  Surface type                                    ... GAUSSIAN VDW
  Discretization scheme                           ... Constant charge density
    Threshold for H atoms                         ...       5.0000 (charges/Ang^2)
    Threshold for non-H atoms                     ...       5.0000 (charges/Ang^2)
  Epsilon function type                           ...         CPCM
Solvent:                                          ... METHANOL
Radii:
  Scheme                                          ... Element-dependent radii
  Radius for C  used is    3.8550 Bohr (=   2.0400 Ang.)
  Radius for O  used is    3.4469 Bohr (=   1.8240 Ang.)
  Radius for H  used is    2.4944 Bohr (=   1.3200 Ang.)
Calculating surface                               ...        done! (  0.0s)
Cavity surface points                             ...         6122
Cavity Volume                                     ...    4582.8127
Cavity Surface-area                               ...    2046.5742
Calculating surface distance matrix               ...        done! (  0.2s)
Performing Cholesky decomposition & store         ...        done! (  0.7s)
Overall time for CPCM initialization              ...                 0.9s

----------------------------------------D-I-I-S--------------------------------------------
Iteration    Energy (Eh)           Delta-E    RMSDP     MaxDP     DIISErr   Damp  Time(sec)
-------------------------------------------------------------------------------------------
               ***  Starting incremental Fock matrix formation  ***
[c02b01n03:3047541] 50 more processes have sent help message help-mpi-btl-openib.txt / error in device init
[c02b01n03:3047541] Set MCA parameter "orte_base_help_aggregate" to 0 to see all help / error messages
[c02b01n03:3047541] 8 more processes have sent help message help-mpi-btl-openib.txt / no active ports found
    1    -2033.0277184454171220     0.00e+00  7.72e-03  2.77e-01  2.40e-01  0.700   9.5
    2    -2033.4306945618527607    -4.03e-01  6.32e-03  2.14e-01  8.38e-02  0.700   8.9
                               ***Turning on AO-DIIS***
    3    -2033.5820560098090937    -1.51e-01  2.71e-03  7.04e-02  2.57e-02  0.700   7.2
    4    -2033.6733538429489272    -9.13e-02  4.60e-03  8.02e-02  1.19e-02  0.000   7.0
    5    -2033.8751977003385036    -2.02e-01  1.20e-03  3.01e-02  4.95e-03  0.000   6.7
                              *** Initializing SOSCF ***
---------------------------------------S-O-S-C-F--------------------------------------
Iteration    Energy (Eh)           Delta-E    RMSDP     MaxDP     MaxGrad    Time(sec)
--------------------------------------------------------------------------------------
    6    -2033.8765548214605587    -1.36e-03  3.86e-04  8.38e-03  1.33e-03     7.9
               *** Restarting incremental Fock matrix formation ***
    7    -2033.8766582751050009    -1.03e-04  3.01e-04  5.27e-03  1.61e-04     6.5
    8    -2033.8766339654639523     2.43e-05  7.24e-05  1.93e-03  6.56e-04     5.7
    9    -2033.8766740239243518    -4.01e-05  6.64e-05  1.11e-03  1.22e-04     5.7
   10    -2033.8766740619239499    -3.80e-08  1.90e-05  6.00e-04  1.18e-04     5.6
                 **** Energy Check signals convergence ****

               *****************************************************
               *                     SUCCESS                       *
               *           SCF CONVERGED AFTER  10 CYCLES          *
               *****************************************************

             **** ENERGY FILE WAS UPDATED (nmr-conf-15.en.tmp) ****

----------------
TOTAL SCF ENERGY
----------------

Total Energy       :      -2033.87667416104978 Eh          -55344.59797 eV

Components:
Nuclear Repulsion  :       5733.70039473449651 Eh          156021.91974 eV
Electronic Energy  :      -7767.53342025296388 Eh         -211365.32997 eV
One Electron Energy:     -14194.32516851411492 Eh         -386247.22426 eV
Two Electron Energy:       6426.79174826115104 Eh          174881.89429 eV
CPCM Dielectric    :         -0.04364864258235 Eh              -1.18774 eV

Virial components:
Potential Energy   :      -4061.11909667580039 Eh         -110508.66877 eV
Kinetic Energy     :       2027.24242251475039 Eh           55164.07080 eV
Virial Ratio       :          2.00327254973190

DFT components:
N(Alpha)           :      157.000268935829 electrons
N(Beta)            :      157.000268935829 electrons
N(Total)           :      314.000537871658 electrons
E(X)               :     -268.094880753948 Eh       
E(C)               :      -10.607361014973 Eh       
E(XC)              :     -278.702241768921 Eh       

CPCM Solvation Model Properties:
Surface-charge          :         -0.04302562740321
Corrected charge        :         -0.00000000000000
Outlying charge corr.   :          0.00008007223256 Eh               0.00218 eV
Free-energy (cav+disp)  :  This term is not implemented in the current solvation scheme

---------------
SCF CONVERGENCE
---------------

  Last Energy change         ...    3.8000e-08  Tolerance :   1.0000e-06
  Last MAX-Density change    ...    6.0006e-04  Tolerance :   1.0000e-05
  Last RMS-Density change    ...    1.9046e-05  Tolerance :   1.0000e-06
  Last DIIS Error            ...    1.3335e-03  Tolerance :   1.0000e-06
  Last Orbital Gradient      ...    1.1793e-04  Tolerance :   5.0000e-05
  Last Orbital Rotation      ...    2.4221e-04  Tolerance :   5.0000e-05


----------------
ORBITAL ENERGIES
----------------

  NO   OCC          E(Eh)            E(eV) 
   0   2.0000     -18.919738      -514.8322 
   1   2.0000     -18.919035      -514.8131 
   2   2.0000     -18.918861      -514.8084 
   3   2.0000     -18.918377      -514.7952 
   4   2.0000     -18.914078      -514.6782 
   5   2.0000     -18.911144      -514.5984 
   6   2.0000     -18.907324      -514.4944 
   7   2.0000     -18.881176      -513.7829 
   8   2.0000     -18.879804      -513.7456 
   9   2.0000     -18.878649      -513.7142 
  10   2.0000     -18.867671      -513.4154 
  11   2.0000     -10.046243      -273.3722 
  12   2.0000     -10.046222      -273.3716 
  13   2.0000     -10.045529      -273.3527 
  14   2.0000     -10.045414      -273.3496 
  15   2.0000     -10.044995      -273.3382 
  16   2.0000     -10.044906      -273.3358 
  17   2.0000     -10.042064      -273.2584 
  18   2.0000     -10.041676      -273.2479 
  19   2.0000     -10.037341      -273.1299 
  20   2.0000     -10.036095      -273.0960 
  21   2.0000     -10.035391      -273.0769 
  22   2.0000     -10.033897      -273.0362 
  23   2.0000     -10.033853      -273.0350 
  24   2.0000     -10.031001      -272.9574 
  25   2.0000     -10.024949      -272.7927 
  26   2.0000     -10.023925      -272.7649 
  27   2.0000      -9.992775      -271.9172 
  28   2.0000      -9.990306      -271.8500 
  29   2.0000      -9.989287      -271.8223 
  30   2.0000      -9.986469      -271.7456 
  31   2.0000      -9.986362      -271.7427 
  32   2.0000      -9.985883      -271.7297 
  33   2.0000      -9.985120      -271.7089 
  34   2.0000      -9.984763      -271.6992 
  35   2.0000      -9.984753      -271.6989 
  36   2.0000      -9.984617      -271.6952 
  37   2.0000      -9.980760      -271.5903 
  38   2.0000      -9.980655      -271.5874 
  39   2.0000      -9.979805      -271.5643 
  40   2.0000      -9.978183      -271.5202 
  41   2.0000      -9.977147      -271.4920 
  42   2.0000      -1.015551       -27.6346 
  43   2.0000      -1.013481       -27.5782 
  44   2.0000      -1.012810       -27.5600 
  45   2.0000      -1.001760       -27.2593 
  46   2.0000      -0.989109       -26.9150 
  47   2.0000      -0.986954       -26.8564 
  48   2.0000      -0.984831       -26.7986 
  49   2.0000      -0.955742       -26.0071 
  50   2.0000      -0.955001       -25.9869 
  51   2.0000      -0.951590       -25.8941 
  52   2.0000      -0.939462       -25.5641 
  53   2.0000      -0.798790       -21.7362 
  54   2.0000      -0.797201       -21.6929 
  55   2.0000      -0.796005       -21.6604 
  56   2.0000      -0.758741       -20.6464 
  57   2.0000      -0.734961       -19.9993 
  58   2.0000      -0.720136       -19.5959 
  59   2.0000      -0.704045       -19.1580 
  60   2.0000      -0.700903       -19.0725 
  61   2.0000      -0.699403       -19.0317 
  62   2.0000      -0.697876       -18.9902 
  63   2.0000      -0.687899       -18.7187 
  64   2.0000      -0.671692       -18.2777 
  65   2.0000      -0.652528       -17.7562 
  66   2.0000      -0.649300       -17.6684 
  67   2.0000      -0.647747       -17.6261 
  68   2.0000      -0.640623       -17.4322 
  69   2.0000      -0.622256       -16.9324 
  70   2.0000      -0.619445       -16.8559 
  71   2.0000      -0.616588       -16.7782 
  72   2.0000      -0.582250       -15.8438 
  73   2.0000      -0.567449       -15.4411 
  74   2.0000      -0.561685       -15.2842 
  75   2.0000      -0.558989       -15.2109 
  76   2.0000      -0.548745       -14.9321 
  77   2.0000      -0.547206       -14.8902 
  78   2.0000      -0.540203       -14.6997 
  79   2.0000      -0.532651       -14.4942 
  80   2.0000      -0.517144       -14.0722 
  81   2.0000      -0.511891       -13.9293 
  82   2.0000      -0.508249       -13.8302 
  83   2.0000      -0.500283       -13.6134 
  84   2.0000      -0.483154       -13.1473 
  85   2.0000      -0.479394       -13.0450 
  86   2.0000      -0.474222       -12.9042 
  87   2.0000      -0.469527       -12.7765 
  88   2.0000      -0.463122       -12.6022 
  89   2.0000      -0.456947       -12.4342 
  90   2.0000      -0.452335       -12.3087 
  91   2.0000      -0.448490       -12.2040 
  92   2.0000      -0.447402       -12.1744 
  93   2.0000      -0.444978       -12.1085 
  94   2.0000      -0.441429       -12.0119 
  95   2.0000      -0.433101       -11.7853 
  96   2.0000      -0.429439       -11.6856 
  97   2.0000      -0.426115       -11.5952 
  98   2.0000      -0.424355       -11.5473 
  99   2.0000      -0.423709       -11.5297 
 100   2.0000      -0.419817       -11.4238 
 101   2.0000      -0.417265       -11.3544 
 102   2.0000      -0.412205       -11.2167 
 103   2.0000      -0.404312       -11.0019 
 104   2.0000      -0.403777       -10.9873 
 105   2.0000      -0.402461       -10.9515 
 106   2.0000      -0.399141       -10.8612 
 107   2.0000      -0.392681       -10.6854 
 108   2.0000      -0.387234       -10.5372 
 109   2.0000      -0.386548       -10.5185 
 110   2.0000      -0.384854       -10.4724 
 111   2.0000      -0.382097       -10.3974 
 112   2.0000      -0.381186       -10.3726 
 113   2.0000      -0.375980       -10.2309 
 114   2.0000      -0.375197       -10.2096 
 115   2.0000      -0.372370       -10.1327 
 116   2.0000      -0.369530       -10.0554 
 117   2.0000      -0.365295        -9.9402 
[...]
 
 sDSO           -66.696            5.381           59.077  iso=      -0.746
 sPSO            90.086           20.310          -24.958  iso=      28.479
        ---------------  ---------------  ---------------
 Total           23.390           25.691           34.119  iso=      27.733

 Orientation: 
  X           0.8173860   -0.0309959   -0.5752559
  Y          -0.5596967    0.1937921   -0.8057197
  Z           0.1364541    0.9805528    0.1410546

 --------------
 Nucleus  73H :
 --------------

Diamagnetic contribution to the shielding tensor (ppm) : 
          -158.137        -13.073       -32.603
          -117.870         40.384       -26.323
            31.799        -32.516       -71.722

Paramagnetic contribution to the shielding tensor (ppm): 
           184.749         10.558        31.039
           115.871         -9.932        26.854
           -33.885         31.365        98.037

Total shielding tensor (ppm): 
            26.612         -2.515        -1.565
            -1.999         30.452         0.531
            -2.086         -1.151        26.315


 Diagonalized sT*s matrix:
 
 sDSO          -144.169          -91.306           46.000  iso=     -63.158
 sPSO           168.274          119.036          -14.456  iso=      90.951
        ---------------  ---------------  ---------------
 Total           24.105           27.729           31.544  iso=      27.793

 Orientation: 
  X           0.7174654   -0.5401702   -0.4398404
  Y           0.2731228   -0.3627207    0.8909756
  Z           0.6408177    0.7593746    0.1127067

 --------------
 Nucleus  74H :
 --------------

Diamagnetic contribution to the shielding tensor (ppm) : 
           -96.497         35.629       -12.948
           -66.496         49.441       -20.682
            78.155       -100.979       -11.929

Paramagnetic contribution to the shielding tensor (ppm): 
           119.794        -35.282        13.085
            66.907        -19.929        15.456
           -78.324         98.262        41.610

Total shielding tensor (ppm): 
            23.297          0.347         0.137
             0.411         29.512        -5.227
            -0.169         -2.717        29.681


 Diagonalized sT*s matrix:
 
 sDSO           -95.861          -38.554           75.430  iso=     -19.662
 sPSO           119.122           64.210          -41.857  iso=      47.158
        ---------------  ---------------  ---------------
 Total           23.261           25.656           33.573  iso=      27.497

 Orientation: 
  X           0.9940545    0.1049319   -0.0290662
  Y          -0.0962881    0.7225350   -0.6845961
  Z          -0.0508347    0.6833245    0.7283429

 --------------
 Nucleus  75H :
 --------------

Diamagnetic contribution to the shielding tensor (ppm) : 
            67.337       -128.757        66.721
            16.387        -53.769        35.020
            58.750        106.594        10.124

Paramagnetic contribution to the shielding tensor (ppm): 
           -43.875        125.590       -60.597
           -20.400         74.303       -37.192
           -53.058       -108.856        28.958

Total shielding tensor (ppm): 
            23.462         -3.168         6.125
            -4.013         20.534        -2.172
             5.691         -2.262        39.082


 Diagonalized sT*s matrix:
 
 sDSO           -78.855           63.358           39.189  iso=       7.897
 sPSO            96.846          -39.846            2.385  iso=      19.795
        ---------------  ---------------  ---------------
 Total           17.991           23.513           41.574  iso=      27.692

 Orientation: 
  X           0.6040071   -0.7245724    0.3319189
  Y           0.7924553    0.5903257   -0.1533957
  Z          -0.0847939    0.3556830    0.9307522

 --------------
 Nucleus  76H :
 --------------

Diamagnetic contribution to the shielding tensor (ppm) : 
          -126.704         48.789       -72.085
           -94.930         72.933       -46.299
           -46.430        -12.232       -48.776

Paramagnetic contribution to the shielding tensor (ppm): 
           146.457        -47.756        76.992
            96.499        -51.352        47.377
            52.156         15.292        91.031

Total shielding tensor (ppm): 
            19.753          1.034         4.907
             1.569         21.580         1.078
             5.726          3.060        42.256


 Diagonalized sT*s matrix:
 
 sDSO           -79.190           61.714          -85.070  iso=     -34.182
 sPSO            97.531          -40.149          128.754  iso=      62.045
        ---------------  ---------------  ---------------
 Total           18.340           21.565           43.683  iso=      27.863

 Orientation: 
  X           0.9435662    0.2407298    0.2274466
  Y          -0.2720235    0.9550722    0.1176446
  Z          -0.1889074   -0.1728763    0.9666581

 --------------
 Nucleus  77H :
 --------------

Diamagnetic contribution to the shielding tensor (ppm) : 
          -142.224         72.779       -37.766
          -109.228         87.095       -27.621
            14.971        -28.766       -38.287

Paramagnetic contribution to the shielding tensor (ppm): 
           175.848        -75.749        50.236
           106.713        -61.139        27.035
            -2.638         27.875        63.464

Total shielding tensor (ppm): 
            33.624         -2.970        12.470
            -2.516         25.956        -0.586
            12.333         -0.891        25.177


 Diagonalized sT*s matrix:
 
 sDSO           -59.728           69.529         -103.216  iso=     -31.138
 sPSO            75.923          -43.885          146.136  iso=      59.391
        ---------------  ---------------  ---------------
 Total           16.195           25.643           42.920  iso=      28.253

 Orientation: 
  X          -0.5887724    0.0681575    0.8054202
  Y          -0.1041332    0.9817389   -0.1592009
  Z           0.8015631    0.1776041    0.5709233

 --------------
 Nucleus  78H :
 --------------

Diamagnetic contribution to the shielding tensor (ppm) : 
           -92.034         11.484       -88.048
           -90.432         57.191       -48.481
            26.230        -35.524        12.811

Paramagnetic contribution to the shielding tensor (ppm): 
           123.372        -14.600        80.904
            91.532        -35.942        54.282
           -33.277         43.125        12.872

Total shielding tensor (ppm): 
            31.338         -3.117        -7.143
             1.100         21.249         5.802
            -7.047          7.601        25.683


 Diagonalized sT*s matrix:
 
 sDSO            73.995          -87.314           -8.713  iso=      -7.344
 sPSO           -58.418          112.462           46.258  iso=      33.434
        ---------------  ---------------  ---------------
 Total           15.577           25.148           37.545  iso=      26.090

 Orientation: 
  X          -0.2177700    0.6484297   -0.7294622
  Y           0.7175108    0.6130249    0.3307247
  Z          -0.6616302    0.4513751    0.5987537

 --------------
 Nucleus  79H :
 --------------

Diamagnetic contribution to the shielding tensor (ppm) : 
            42.254        -27.523       -48.276
             1.170         14.857       -20.839
            96.485       -152.906        75.975

Paramagnetic contribution to the shielding tensor (ppm): 
           -11.412         28.572        48.404
            -2.014          9.159        23.829
          -100.010        155.477       -49.200

Total shielding tensor (ppm): 
            30.843          1.049         0.128
            -0.843         24.017         2.990
            -3.525          2.572        26.774


 Diagonalized sT*s matrix:
 
 sDSO           117.409           -9.587           25.265  iso=      44.362
 sPSO           -95.233           37.475            6.305  iso=     -17.151
        ---------------  ---------------  ---------------
 Total           22.176           27.888           31.570  iso=      27.211

 Orientation: 
  X           0.1124898    0.3730558    0.9209644
  Y          -0.8310342    0.5434256   -0.1186205
  Z           0.5447277    0.7520093   -0.3711520

 --------------
 Nucleus  80H :
 --------------

Diamagnetic contribution to the shielding tensor (ppm) : 
           -11.678        -95.888         9.442
           -29.944        -36.781        -0.296
           119.874       -220.574        20.330

Paramagnetic contribution to the shielding tensor (ppm): 
            38.903         96.794        -6.341
            32.302         61.122         1.136
          -116.999        222.424        12.920

Total shielding tensor (ppm): 
            27.225          0.906         3.101
             2.358         24.340         0.840
             2.875          1.850        33.250


 Diagonalized sT*s matrix:
 
 sDSO            15.571          -58.326           14.626  iso=      -9.376
 sPSO             8.035           84.719           20.190  iso=      37.648
        ---------------  ---------------  ---------------
 Total           23.606           26.393           34.816  iso=      28.272

 Orientation: 
  X           0.3977413    0.8289166    0.3933182
  Y          -0.9174466    0.3547996    0.1800250
  Z           0.0096766   -0.4324518    0.9016051

 --------------
 Nucleus  81H :
 --------------

Diamagnetic contribution to the shielding tensor (ppm) : 
            90.422        -43.635        -5.306
            39.069         21.174         1.610
            82.060       -161.281       143.085

Paramagnetic contribution to the shielding tensor (ppm): 
           -63.784         44.796         4.618
           -37.304         10.023        -1.858
           -82.722        163.135      -116.883

Total shielding tensor (ppm): 
            26.637          1.160        -0.689
             1.765         31.198        -0.248
            -0.662          1.854        26.202


 Diagonalized sT*s matrix:
 
 sDSO           178.448           62.290           13.943  iso=      84.894
 sPSO          -153.143          -35.245           17.745  iso=     -56.881
        ---------------  ---------------  ---------------
 Total           25.305           27.045           31.688  iso=      28.012

 Orientation: 
  X           0.6490965   -0.7123135   -0.2669891
  Y          -0.2483538    0.1333089   -0.9594525
  Z           0.7190230    0.6890850   -0.0903754



--------------------------------
CHEMICAL SHIELDING SUMMARY (ppm)
--------------------------------


  Nucleus  Element    Isotropic     Anisotropy
  -------  -------  ------------   ------------
      0       C           25.550        123.014 
      1       C           45.559         92.783 
      2       C           25.290        120.760 
      3       C           75.733        132.293 
      4       C           39.161        195.805 
      5       C           76.659        129.027 
      6       C          136.971         36.782 
      7       C          134.217         21.916 
      8       C          131.470         20.900 
      9       C          140.312         24.362 
     10       C           43.509        184.819 
     11       C           68.468        137.893 
     12       C           29.734        120.748 
     13       C           32.529        121.404 
     14       C           65.619        146.045 
     15       C           59.630        169.355 
     16       C          111.796         67.900 
     17       C          113.090         64.602 
     23       C           93.297         23.183 
     24       C          102.921         42.562 
     25       C           41.931        170.546 
     26       C          111.514         56.860 
     28       C           74.033        153.617 
     29       C           32.238        117.237 
     30       C           34.847        117.747 
     31       C           68.144        146.433 
     32       C           64.312        175.667 
     33       C          125.429         78.553 
     34       C          125.298         75.005 
     35       C          124.552         77.926 
     41       C          124.325         73.654 
     42       H           25.743          8.471 
     43       H           25.646          9.449 
     44       H           29.557          5.528 
     45       H           29.390          4.497 
     46       H           30.282          5.633 
     47       H           29.191          4.617 
     48       H           28.515          3.789 
     49       H           28.619          8.361 
     50       H           24.662          8.517 
     51       H           24.471          3.352 
     52       H           24.518          7.525 
     53       H           28.114          4.506 
     54       H           27.718          8.069 
     55       H           27.754          8.319 
     56       H           27.255          5.219 
     57       H           25.271         12.267 
     58       H           26.094          4.493 
     59       H           27.029          5.321 
     60       H           27.876          5.169 
     61       H           27.488          5.959 
     62       H           29.513         13.772 
     63       H           25.003          9.945 
     64       H           25.157          5.662 
     65       H           24.881          6.891 
     66       H           27.574          9.507 
     67       H           27.981          6.818 
     68       H           28.010          9.961 
     69       H           27.563          7.906 
     70       H           28.160          8.561 
     71       H           28.177          9.248 
     72       H           27.733          9.579 
     73       H           27.793          5.627 
     74       H           27.497          9.114 
     75       H           27.692         20.822 
     76       H           27.863         23.731 
     77       H           28.253         22.001 
     78       H           26.090         17.183 
     79       H           27.211          6.537 
     80       H           28.272          9.816 
     81       H           28.012          5.513 


NMR shielding tensor and spin rotation calculation done in   3.7 sec 

Maximum memory used throughout the entire PROP-calculation: 368.2 MB
--------------------------------------------------------------------------
WARNING: There was an error initializing an OpenFabrics device.

  Local host:   c02b01n03
  Local device: mlx5_0
--------------------------------------------------------------------------
--------------------------------------------------------------------------
WARNING: There is at least one non-excluded one OpenFabrics device found,
but there are no active ports detected (or Open MPI was unable to use
them).  This is most certainly not what you wanted.  Check your
cables, subnet manager configuration, etc.  The openib BTL will be
ignored for this job.

  Local host: c02b01n03
--------------------------------------------------------------------------
[c02b01n03:3049274] 47 more processes have sent help message help-mpi-btl-openib.txt / error in device init
[c02b01n03:3049274] Set MCA parameter "orte_base_help_aggregate" to 0 to see all help / error messages
[c02b01n03:3049274] 11 more processes have sent help message help-mpi-btl-openib.txt / no active ports found

--------------------------------
SUGGESTED CITATIONS FOR THIS RUN
--------------------------------

Below you find a list of papers that are relevant to this ORCA run
We neither can nor want to force you to cite these papers, but we appreciate if you do
You receive ORCA, which is the product of decades of hard work by many enthusiastic individuals, for free
The only thing we kindly ask in return is that you cite our papers,
We deeply appreciate it, if you show your appreciation for ORCA by not just citing the generic ORCA reference.

Please note that relegating all ORCA citations to the supporting information does *not* help us.
SI sections are not indexed - citations you put there will not count into any citation statistics
But we need these citations in order to attract the funding resources that allow us to do what we are doing

Therefore, if you are a happy ORCA user, please consider citing a few of the papers listed below in the main body of your paper

In addition to the list printed below, the program has created the file nmr-conf-15.bibtex that contains the list in bibtex format
You can import this file easily into all common literature databanks and citation aid programs


List of essential papers. We consider these as the minimum necessary citations

  1. Neese, F.
     Software update: the ORCA program system, version 6.0
     WIRES Comput. Molec. Sci. 2025 15(1), e70019
     doi.org/10.1002/wcms.7019

List of papers to cite with high priority. The work reported in these papers was absolutely
necessary for this run to complete.
Our perspective: the developers of density functionals and basis sets usually get cited in chemistry papers
Good! But without the algorithms to do something with them, the functionals or basis sets would not do anything.
Hence, in our opinion, the algorithm design and method developments papers are equally worthy of getting cited

  1. Neese, F.
     An improvement of the resolution of the identity approximation for the formation of the Coulomb matrix
     J. Comp. Chem. 2003 24(14), 1740-1747
     doi.org/10.1002/jcc.10318
  2. Stoychev, G.L.; Auer, A.A.; Neese, F.
     Automatic Generation of Auxiliary Basis Sets
     J. Theo. Comp. Chem. 2017 13 , 554-562
     doi.org/10.1021/acs.jctc.6b01041
  3. Stoychev, G.L.; Auer, A.A.; Izsak, R.; Neese, F.
     Self-Consistent Field Calculation of Nuclear Magnetic Resonance Chemical Shielding Constants Using Gauge-Including Atomic Orbitals and Approximate Two-Electron Integrals
     J. Chem. Theory Comput. 2018 14(2), 619-637
     doi.org/10.1021/acs.jctc.7b01006
  4. Garcia-Rates, M.; Neese, F.
     Effect of the Solute Cavity on the Solvation Energy and its Derivatives within the Framework of the Gaussian Charge Scheme
     J. Comput. Chem. 2020 41 , 922-939
     doi.org/10.1002/jcc.26139
  5. Neese, F.
     The SHARK Integral Generation and Digestion System
     J. Comp. Chem. 2022 44(3), 381
     doi.org/10.1002/jcc.26942

List of suggested additional citations. These are papers that are important in the 'surrounding' of 
of this run, or papers that preceded the highly important papers. If you like your results we are grateful for a citation.

  1. Neese, F.
     The ORCA program system
     WIRES Comput. Molec. Sci. 2012 2(1), 73-78
     doi.org/10.1002/wcms.81
  2. Neese, F.
     Software update: the ORCA program system, version 4.0
     WIRES Comput. Molec. Sci. 2018 8(1), 1-6
     doi.org/10.1002/wcms.1327
  3. Neese, F.; Wennmohs, F.; Becker, U.; Riplinger, C.
     The ORCA quantum chemistry program package
     J. Chem. Phys. 2020 152(22), 224108
     doi.org/10.1063/5.0004608
  4. Neese, F.
     Software update: The ORCA program system—Version 5.0
     WIRES Comput. Molec. Sci. 2022 12(1), e1606
     doi.org/10.1002/wcms.1606

List of optional additional citations

  1. Neese, F.
     Approximate second-order SCF convergence for spin unrestricted wavefunctions
     Chem. Phys. Lett. 2000 325(1-3), 93-98
     doi.org/10.1016/s0009-2614(00)00662-x

Timings for individual modules:

Sum of individual times          ...      249.249 sec (=   4.154 min)
Startup calculation              ...       85.834 sec (=   1.431 min)  34.4 %
SCF iterations                   ...       94.051 sec (=   1.568 min)  37.7 %
Property integrals               ...       50.571 sec (=   0.843 min)  20.3 %
SCF Response                     ...       10.646 sec (=   0.177 min)   4.3 %
Property calculations            ...        8.148 sec (=   0.136 min)   3.3 %
                             ****ORCA TERMINATED NORMALLY****
TOTAL RUN TIME: 0 days 0 hours 4 minutes 36 seconds 918 msec
