
                                 *****************
                                 * O   R   C   A *
                                 *****************

                                            #,                                       
                                            ###                                      
                                            ####                                     
                                            #####                                    
                                            ######                                   
                                           ########,                                 
                                     ,,################,,,,,                         
                               ,,#################################,,                 
                          ,,##########################################,,             
                       ,#########################################, ''#####,          
                    ,#############################################,,   '####,        
                  ,##################################################,,,,####,       
                ,###########''''           ''''###############################       
              ,#####''   ,,,,##########,,,,          '''####'''          '####       
            ,##' ,,,,###########################,,,                        '##       
           ' ,,###''''                  '''############,,,                           
         ,,##''                                '''############,,,,        ,,,,,,###''
      ,#''                                            '''#######################'''  
     '                                                          ''''####''''         
             ,#######,   #######,   ,#######,      ##                                
            ,#'     '#,  ##    ##  ,#'     '#,    #''#        ,####,    ,#,          
            ##       ##  ##   ,#'  ##            #'  '#       #'       ,# #          
            ##       ##  #######   ##           ,######,      #####,      #          
            '#,     ,#'  ##    ##  '#,     ,#' ,#      #,     #,   #      #          
             '#######'   ##     ##  '#######'  #'      '#     '####' #    #          



                #########################################################
                #                        -***-                          #
                #          Department of theory and spectroscopy        #
                #                                                       #
                #                      Frank Neese                      #
                #                                                       #
                #     Directorship, Architecture, Infrastructure        #
                #                    SHARK, DRIVERS                     #
                #        Core code/Algorithms in most modules           #
                #                                                       #
                #        Max Planck Institute fuer Kohlenforschung      #
                #                Kaiser Wilhelm Platz 1                 #
                #                 D-45470 Muelheim/Ruhr                 #
                #                      Germany                          #
                #                                                       #
                #                  All rights reserved                  #
                #                        -***-                          #
                #########################################################


                         Program Version 6.1.0-f.0  -   RELEASE   -


 With contributions from (in alphabetic order):
[Max-Planck-Institut fuer Kohlenforschung]                               
  Daniel Aravena         : Magnetic Suceptibility                        
  Michael Atanasov       : Ab Initio Ligand Field Theory (pilot matlab implementation)
  Alexander A. Auer      : GIAO ZORA, VPT2 properties, NMR spectrum      
  Ute Becker             : All parallelization in ORCA, NUMFREQ, NUMCALC 
  Giovanni Bistoni       : ED, misc. LED, open-shell LED, HFLD           
  Dmytro Bykov           : pre 5.0 version of the SCF Hessian            
  Marcos Casanova-Páez   : Triplet and SCS-CIS(D). UHF-(DLPNO)-IP/EA/STEOM-CCSD. UHF-CVS-IP/STEOM-CCSD   
  Vijay G. Chilkuri      : MRCI spin determinant printing, contributions to CSF-ICE 
  Pauline Colinet        : FMM embedding                                 
  Dipayan Datta          : RHF DLPNO-CCSD density                        
  Achintya Kumar Dutta   : EOM-CC, STEOM-CC                              
  Nicolas Foglia         : Exact transition moments, OPA infrastructure, MCD improvements    
  Dmitry Ganyushin       : Spin-Orbit,Spin-Spin,Magnetic field MRCI      
  Miquel Garcia-Rates    : C-PCM and meta-GGA Hessian, CCSD/C-PCM, Gaussian charge scheme 
  Tiago L. C. Gouveia    : GS-ROHF, GS-ROCIS                             
  Yang Guo               : DLPNO-NEVPT2, F12-NEVPT2, CIM, IAO-localization        
  Andreas Hansen         : Spin unrestricted coupled pair/coupled cluster methods 
  Ingolf Harden          : AUTO-CI MPn and infrastructure                
  Benjamin Helmich-Paris : MC-RPA, TRAH-(SCF,CASSCF), AVAS, COSX integrals, SCF dyn. polar., MC-PDFT, srDFT 
  Lee Huntington         : MR-EOM, pCC                                   
  Robert Izsak           : Overlap fitted RIJCOSX, COSX-SCS-MP3, EOM     
  Riya Kayal             : Wick's Theorem for AUTO-CI, AUTO-CI UHF-CCSDT 
  Emily Kempfer          : AUTO-CI RHF CISDT and CCSDT, approximate NEVPT4
  Christian Kollmar      : KDIIS, OOCD, Brueckner-CCSD(T), CCSD density, CASPT2, CASPT2-K, improved NEVPT2 
  Axel Koslowski         : Symmetry handling                             
  Simone Kossmann        : meta-GGA functionals, TD-DFT gradient, OOMP2, (MP2 Hessian; deprecated post 5.0) 
  Lucas Lang             : DCDCAS, Hyperfine gauge corrections, ICE-SOC+SSC
  Marvin Lechner         : AUTO-CI (C++ implementation), FIC-MRCC        
  Spencer Leger          : CASSCF response                               
  Dagmar Lenk            : GEPOL surface, SMD, ORCA-2-JSON               
  Dimitrios Liakos       : Extrapolation schemes; Compound Job, Property file
  Dimitrios Manganas     : Further ROCIS development; embedding schemes. LFT, Crystal Embedding 
  Dimitrios Pantazis     : SARC Basis sets                               
  Anastasios Papadopoulos: AUTO-CI, single reference methods and gradients 
  Taras Petrenko         : pre 6.0 DFT Hessian and TD-DFT gradient,  ECA, NRVS 
  Petra Pikulova         : Analytic Raman intensities                    
  Peter Pinski           : DLPNO-MP2, DLPNO-MP2 Gradient                 
  Shashank Vittal Rao    : ES-AILFT, MagRelax                            
  Christoph Reimann      : Effective Core Potentials                     
  Marius Retegan         : Local ZFS, SOC                                
  Christoph Riplinger    : Optimizer, TS searches, QM/MM, DLPNO-CCSD(T), (RO)-DLPNO pert. Triples 
  Michael Roemelt        : Original ROCIS implementation, recursive CI coupling coefficients
  Masaaki Saitow         : Open-shell DLPNO-CCSD energy and density      
  Barbara Sandhoefer     : DKH picture change effects                    
  Yorick L. A. Schmerwitz: GMF and freeze-and-release deltaSCF, NEB S-IDPP initial path                    
  Kantharuban Sivalingam : CASSCF convergence/infrastructure, NEVPT2, NEVPT3, NEVPT4(SD), FIC-MRCI and CEPA variants
  Bernardo de Souza      : ESD, SOC TD-DFT                               
  Georgi L. Stoychev     : AutoAux, RI-MP2 NMR, DLPNO-MP2 response, X2C  
  Van Anh Tran           : RI-MP2 g-tensors                              
  Willem Van den Heuvel  : Paramagnetic NMR                              
  Zikuan Wang            : NOTCH, Electric field optimization            
  Frank Wennmohs         : Technical directorship and infrastructure     
  Hang Xu                : AUTO-CI-Response properties                   
                                                                         
[FACCTs GmbH]                                                            
  Markus Bursch, Nicolas Foglia, Miquel Garcia-Rates, Ingolf Harden, Hagen Neugebauer, Anastasios Papadopoulos, 
  Christoph Riplinger, Bernardo de Souza, Georgi L. Stoychev                                                    
                                                                 
  APM, various basis sets, CI-OPT, improved COSX, DLPNO-Multilevel,           
  DOCKER, DRACO, updates on ESD, Fragmentator, GOAT, IRC, LR-CPCM, L-BFGS, MBIS, meta-GGA TD-DFT gradient, ML-optimized integration grids, 
  MM, NACMEs, nearIR, NEB, NEB-TS, NL-DFT gradient (VV10), 2- and 3-layer-ONIOM, interface openCOSMO-RS, QMMM,   
  Crystal-QMMM, RESP, rigid body optimization, SF, symmetry and pop. for TD-DFT, various functionals, SOLVATOR                                   
                                                                         
[Other institutions]                                                     
  V. Asgeirsson          : NEB                                           
  Christoph Bannwarth    : sTDA-DFT, sTD-DFT, PBEh-3c, B97-3c, D3        
  Giovanni Bistoni       : ETS/NOCV, ADLD/ADEX, COVALED                  
  Martin Brehm           : Molecular dynamics                            
  Ronald Cardenas        : ETS/NOCV                                      
  Martina Colucci        : COVALED                                       
  Sebastian Ehlert       : rSCAN, r2SCAN, r2SCAN-3c, D4, dhf basis sets  
  Marvin Friede          : D4 for Fr, Ra, Ac-Lr                          
  Lars Goerigk           : TD-DFT with DH, B97 family of functionals     
  Stefan Grimme          : VdW corrections, initial TS optimization, DFT functionals, gCP, sTDA/sTD-DF 
  Waldemar Hujo          : DFT-NL                                        
  H. Jonsson             : NEB                                           
  Holger Kruse           : gCP                                           
  Marcel Mueller         : wB97X-3c, vDZP basis set                      
  Hagen Neugebauer       : wr2SCAN, Native XTB                           
  Gianluca Regni         : ADLD/ADEX                                     
  Tobias Risthaus        : pre 6.0 range-separated hybrid DFT and stability analysis
  Lukas Wittmann         : regularized MP2, r2SCAN double-hybrids, wr2SCAN        
                                                                         
We gratefully acknowledge several colleagues who have allowed us to      
interface, adapt or use parts of their codes:                            
  Ed Valeev, F. Pavosevic, A. Kumar             : LibInt (2-el integral package), F12 methods 
  Garnet Chan, S. Sharma, J. Yang, R. Olivares  : DMRG                   
  Ulf Ekstrom                                   : XCFun DFT Library      
  Mihaly Kallay                                 : mrcc  (arbitrary order and MRCC methods)
  Frank Weinhold                                : gennbo (NPA and NBO analysis)           
  Simon Mueller                                 : openCOSMO-RS                            
  Christopher J. Cramer and Donald G. Truhlar   : smd solvation model                     
  S Lehtola, MJT Oliveira, MAL Marques          : LibXC Library                           
  Liviu Ungur et al                             : ANISO software                          


 Your calculation uses the libint2 library for the computation of 2-el integrals
 For citations please refer to: http://libint.valeyev.net

 Your ORCA version has been built with support for libXC version: 7.0.0
 For citations please refer to: https://libxc.gitlab.io

 This ORCA versions uses:
   CBLAS   interface :  Fast vector & matrix operations
   LAPACKE interface :  Fast linear algebra routines
   SCALAPACK package :  Parallel linear algebra routines
   Shared memory     :  Shared parallel matrices
   BLAS/LAPACK       :  OpenBLAS 0.3.29  USE64BITINT DYNAMIC_ARCH NO_AFFINITY Cooperlake SINGLE_THREADED
        Core in use  :  Cooperlake
   Copyright (c) 2011-2014, The OpenBLAS Project


  ***********************************
  * Starting time: Wed Mar  4 13:40:00 2026
  * Host name:     c01b01n04
  * Process ID:    2220093
  * Working dir.:  /lustre1/jiangy/jiangy_liuxy/NMR/B9D7C2-SSRR-NMR/opt_conf
  ***********************************

NOTE: MaxCore=5000 MB was set to SCF,MP2,MDCI,CIPSI,MRCI,RASCI and CIS
      => If you want to overwrite this, your respective input block should be placed after the MaxCore statement


***************************************
The coordinates will be read from file: opt-conf-7.xyz
***************************************



Warning: The global flag for NMR shieldings has been found
         but shieldings for certain elements have also been explicitly requested in the EPRNMR block
         ==>> only the requested shieldings will be calculated

================================================================================

----- Orbital basis set information -----
Your calculation utilizes the basis: pcSseg-2
   F. Jensen, J. Chem. Theory Comput. 11, 132 (2015).

----- AuxJ basis set information -----
Your calculation utilizes the AutoAux generation procedure.
  G. L. Stoychev, A. A. Auer, F. Neese, J. Chem. Theory Comput. 13, 554 (2017)

----- AuxC basis set information -----
Your calculation utilizes the AutoAux generation procedure.
  G. L. Stoychev, A. A. Auer, F. Neese, J. Chem. Theory Comput. 13, 554 (2017)

----- AuxJK basis set information -----
Your calculation utilizes the AutoAux generation procedure.
  G. L. Stoychev, A. A. Auer, F. Neese, J. Chem. Theory Comput. 13, 554 (2017)

----- AuxX basis set information -----
Your calculation utilizes the AutoAux generation procedure.
  G. L. Stoychev, A. A. Auer, F. Neese, J. Chem. Theory Comput. 13, 554 (2017)

================================================================================
                                        WARNINGS
                       Please study these warnings very carefully!
================================================================================


================================================================================
                                       INPUT FILE
================================================================================
NAME = nmr-conf-7.inp
|  1> !TPSS PCSSEG-2 AUTOAUX NMR CPCM(Methanol)
|  2> 
|  3> %pal nprocs 60 end
|  4> %maxcore 5000
|  5> 
|  6> *XYZFILE 0 1 opt-conf-7.xyz
|  7> 
|  8> %EPRNMR
|  9>    NUCLEI = ALL C {SHIFT}
| 10>    NUCLEI = ALL H {SHIFT}
| 11>    TAU DOBSON
| 12> END
| 13> 
| 14> 
| 15>                          ****END OF INPUT****
================================================================================

                       ****************************
                       * Single Point Calculation *
                       ****************************

---------------------------------
CARTESIAN COORDINATES (ANGSTROEM)
---------------------------------
  C     21.011060  -31.696151    1.340848
  C     21.836034  -31.029248    0.431939
  C     22.056918  -31.581214   -0.828556
  C     21.435543  -32.769107   -1.200752
  C     20.599028  -33.421806   -0.301164
  C     20.416213  -32.898224    0.976705
  C     19.773775  -34.607939   -0.729463
  C     18.291539  -34.200208   -0.886948
  C     18.096435  -33.176904   -2.030860
  C     16.944036  -32.192799   -1.734166
  C     17.284303  -31.246933   -0.607529
  C     18.269479  -30.269360   -0.799967
  C     18.642545  -29.423010    0.231125
  C     18.031178  -29.540433    1.489325
  C     17.055609  -30.499487    1.685706
  C     16.684552  -31.346902    0.641019
  C     17.356509  -35.410536   -0.878681
  C     18.026920  -33.735097   -3.450422
  O     22.919869  -30.879487   -1.623910
  O     20.838940  -31.087827    2.541190
  O     22.380387  -29.797470    0.688653
  O     18.390314  -28.712920    2.514465
  O     19.585654  -28.437616    0.147813
  C     23.308077  -29.608545    1.773544
  C     24.617741  -30.378990    1.525136
  C     24.444911  -31.858247    1.845127
  C     23.481439  -28.103594    1.833391
  O     22.229126  -27.457331    2.059948
  C     24.575804  -32.835012    0.859130
  C     24.312550  -34.165052    1.151398
  C     23.930222  -34.539278    2.446972
  C     23.836977  -33.576031    3.436410
  C     24.094763  -32.242897    3.135104
  C     20.090980  -31.770364    3.543490
  C     23.152779  -31.350103   -2.951401
  C     20.193828  -28.192914   -1.120318
  O     25.117747  -30.134281    0.219565
  O     17.591843  -36.375585   -1.904064
  O     16.861833  -34.522739   -3.756689
  O     24.376035  -35.199876    0.262286
  O     23.653686  -35.845351    2.736028
  C     24.781629  -34.917432   -1.075465
  H     21.580853  -33.180399   -2.188571
  H     19.760597  -33.408045    1.667223
  H     19.837030  -35.398666    0.023649
  H     20.159826  -35.022217   -1.662813
  H     18.031882  -33.666441    0.032405
  H     19.003811  -32.566995   -2.052248
  H     16.027741  -32.736069   -1.489400
  H     16.738467  -31.615783   -2.641912
  H     18.751060  -30.185485   -1.764405
  H     16.588614  -30.579696    2.659498
  H     15.920846  -32.095854    0.811960
  H     17.494655  -35.936375    0.068997
  H     16.315095  -35.070775   -0.914984
  H     18.085765  -32.900292   -4.155822
  H     18.874362  -34.393884   -3.641602
  H     19.070373  -28.102427    2.193718
  H     22.858482  -29.954985    2.702498
  H     25.361388  -29.964077    2.212005
  H     24.134051  -27.843222    2.667414
  H     23.939132  -27.745303    0.905311
  H     21.588020  -27.862248    1.456904
  H     24.856599  -32.546721   -0.141673
  H     23.554606  -33.876346    4.437763
  H     24.001223  -31.500448    3.918028
  H     20.543231  -32.737695    3.774438
  H     20.121958  -31.131672    4.422656
  H     19.054380  -31.912493    3.231762
  H     22.222729  -31.369605   -3.523086
  H     23.844938  -30.641633   -3.399328
  H     23.599720  -32.345943   -2.944239
  H     19.438263  -27.929800   -1.864016
  H     20.870874  -27.355668   -0.971176
  H     20.757891  -29.063204   -1.457093
  H     24.398141  -30.270648   -0.421458
  H     17.241959  -35.977841   -2.721274
  H     16.070327  -33.981629   -3.643404
  H     23.778563  -36.368177    1.929682
  H     24.076869  -34.238193   -1.557691
  H     25.783337  -34.481758   -1.094253
  H     24.785658  -35.872033   -1.595528

----------------------------
CARTESIAN COORDINATES (A.U.)
----------------------------
  NO LB      ZA    FRAG     MASS         X           Y           Z
   0 C     6.0000    0    12.011   39.705148  -59.897045    2.533835
   1 C     6.0000    0    12.011   41.264125  -58.636781    0.816247
   2 C     6.0000    0    12.011   41.681534  -59.679845   -1.565743
   3 C     6.0000    0    12.011   40.507306  -61.924638   -2.269093
   4 C     6.0000    0    12.011   38.926521  -63.158061   -0.569118
   5 C     6.0000    0    12.011   38.581052  -62.168634    1.845705
   6 C     6.0000    0    12.011   37.367019  -65.399526   -1.378485
   7 C     6.0000    0    12.011   34.565999  -64.629028   -1.676088
   8 C     6.0000    0    12.011   34.197306  -62.695263   -3.837770
   9 C     6.0000    0    12.011   32.019587  -60.835574   -3.277098
  10 C     6.0000    0    12.011   32.662599  -59.048146   -1.148064
  11 C     6.0000    0    12.011   34.524312  -57.200800   -1.511719
  12 C     6.0000    0    12.011   35.229305  -55.601430    0.436764
  13 C     6.0000    0    12.011   34.073987  -55.823328    2.814417
  14 C     6.0000    0    12.011   32.230430  -57.635677    3.185524
  15 C     6.0000    0    12.011   31.529234  -59.237060    1.211350
  16 C     6.0000    0    12.011   32.799048  -66.916216   -1.660466
  17 C     6.0000    0    12.011   34.065942  -63.750095   -6.520353
  18 O     8.0000    0    15.999   43.312275  -58.353773   -3.068745
  19 O     8.0000    0    15.999   39.379889  -58.747478    4.802154
  20 O     8.0000    0    15.999   42.292801  -56.309057    1.301366
  21 O     8.0000    0    15.999   34.752656  -54.259555    4.751650
  22 O     8.0000    0    15.999   37.011523  -53.739307    0.279327
  23 C     6.0000    0    12.011   44.045882  -55.952041    3.351513
  24 C     6.0000    0    12.011   46.520788  -57.407972    2.882090
  25 C     6.0000    0    12.011   46.194187  -60.203363    3.486785
  26 C     6.0000    0    12.011   44.373489  -53.108097    3.464607
  27 O     8.0000    0    15.999   42.006960  -51.886836    3.892737
  28 C     6.0000    0    12.011   46.441539  -62.049181    1.623521
  29 C     6.0000    0    12.011   45.944060  -64.562591    2.175827
  30 C     6.0000    0    12.011   45.221566  -65.269776    4.624107
  31 C     6.0000    0    12.011   45.045359  -63.449503    6.493873
  32 C     6.0000    0    12.011   45.532504  -60.930246    5.924487
  33 C     6.0000    0    12.011   37.966449  -60.037287    6.696226
  34 C     6.0000    0    12.011   43.752412  -59.243108   -5.577339
  35 C     6.0000    0    12.011   38.160804  -53.276886   -2.117095
  36 O     8.0000    0    15.999   47.465663  -56.945538    0.414918
  37 O     8.0000    0    15.999   33.243766  -68.739893   -3.598160
  38 O     8.0000    0    15.999   31.864246  -65.238521   -7.099113
  39 O     8.0000    0    15.999   46.064031  -66.518126    0.495649
  40 O     8.0000    0    15.999   44.698989  -67.737897    5.170344
  41 C     6.0000    0    12.011   46.830491  -65.984384   -2.032335
  42 H     1.0000    0     1.008   40.781902  -62.701867   -4.135801
  43 H     1.0000    0     1.008   37.342117  -63.132056    3.150594
  44 H     1.0000    0     1.008   37.486554  -66.893784    0.044691
  45 H     1.0000    0     1.008   38.096550  -66.182399   -3.142261
  46 H     1.0000    0     1.008   34.075319  -63.620353    0.061237
  47 H     1.0000    0     1.008   35.911998  -61.542701   -3.878187
  48 H     1.0000    0     1.008   30.288041  -61.862205   -2.814559
  49 H     1.0000    0     1.008   31.631119  -59.745172   -4.992490
  50 H     1.0000    0     1.008   35.434368  -57.042300   -3.334243
  51 H     1.0000    0     1.008   31.347937  -57.787250    5.025722
  52 H     1.0000    0     1.008   30.086038  -60.652375    1.534382
  53 H     1.0000    0     1.008   33.060107  -67.909907    0.130386
  54 H     1.0000    0     1.008   30.831062  -66.274161   -1.729070
  55 H     1.0000    0     1.008   34.177143  -62.172542   -7.853366
  56 H     1.0000    0     1.008   35.667375  -64.995022   -6.881631
  57 H     1.0000    0     1.008   36.037783  -53.105890    4.145526
  58 H     1.0000    0     1.008   43.196270  -56.606718    5.106980
  59 H     1.0000    0     1.008   47.926077  -56.623900    4.180083
  60 H     1.0000    0     1.008   45.606748  -52.616063    5.040682
  61 H     1.0000    0     1.008   45.238403  -52.431024    1.710790
  62 H     1.0000    0     1.008   40.795446  -52.652018    2.753150
  63 H     1.0000    0     1.008   46.972165  -61.504390   -0.267723
  64 H     1.0000    0     1.008   44.511754  -64.017016    8.386157
  65 H     1.0000    0     1.008   45.355739  -59.527220    7.404000
  66 H     1.0000    0     1.008   38.821081  -61.865278    7.132655
  67 H     1.0000    0     1.008   38.024989  -58.830334    8.357609
  68 H     1.0000    0     1.008   36.007559  -60.305872    6.107146
  69 H     1.0000    0     1.008   41.994871  -59.279963   -6.657667
  70 H     1.0000    0     1.008   45.060403  -57.904295   -6.423798
  71 H     1.0000    0     1.008   44.597009  -61.124973   -5.563805
  72 H     1.0000    0     1.008   36.732994  -52.779674   -3.522480
  73 H     1.0000    0     1.008   39.440237  -51.694722   -1.835257
  74 H     1.0000    0     1.008   39.226729  -54.921497   -2.753507
  75 H     1.0000    0     1.008   46.105804  -57.203235   -0.796439
  76 H     1.0000    0     1.008   32.582581  -67.988267   -5.142463
  77 H     1.0000    0     1.008   30.368516  -64.215973   -6.885037
  78 H     1.0000    0     1.008   44.934973  -68.725894    3.646570
  79 H     1.0000    0     1.008   45.498689  -64.700809   -2.943609
  80 H     1.0000    0     1.008   48.723446  -65.161080   -2.067838
  81 H     1.0000    0     1.008   46.838105  -67.788318   -3.015112

--------------------------------
INTERNAL COORDINATES (ANGSTROEM)
--------------------------------
 C      0   0   0     0.000000000000     0.00000000     0.00000000
 C      1   0   0     1.396945776364     0.00000000     0.00000000
 C      2   1   0     1.393665032474   119.53731500     0.00000000
 C      3   2   1     1.391304214500   120.61851954     1.74084277
 C      4   3   2     1.391054743569   119.74780182   359.18211931
 C      1   2   3     1.389755805183   119.68425951   359.74086984
 C      5   4   3     1.507113451931   120.98299912   172.00634805
 C      7   5   4     1.545337766743   110.27468445   254.95812285
 C      8   7   5     1.547175793934   111.76553733    64.87691652
 C      9   8   7     1.544187220187   111.93535007   212.58720866
 C     10   9   8     1.509885623170   111.98841249    69.18568026
 C     11  10   9     1.401161549701   119.54050081    68.84966317
 C     12  11  10     1.385149277627   120.89290908   182.66743586
 C     13  12  11     1.403789835026   119.91938541     0.06003102
 C     14  13  12     1.382058003796   119.52621385   359.73911390
 C     11  10   9     1.388728570550   121.89953493   251.38338222
 C      8   7   5     1.529458746983   112.15048216   198.19438066
 C      9   8   7     1.526947033940   116.82820957    81.29731314
 O      3   2   1     1.367367500420   115.01523682   182.46280049
 O      1   2   3     1.356652694442   115.88282413   180.50127843
 O      2   1   3     1.370948367213   122.79204804   175.64608181
 O     14  13  12     1.365528060150   120.50657184   179.96023484
 O     13  12  11     1.366526803292   125.52779497   180.20315452
 C     21   2   1     1.439892412997   120.98361252    63.11372906
 C     24  21   2     1.539647226749   111.15053489    65.79572867
 C     25  24  21     1.523307647180   110.82605643   281.28091078
 C     24  21   2     1.516084366047   103.51257581   188.51361065
 O     27  24  21     1.427330948815   110.81738296    58.90976942
 C     26  25  24     1.394055826275   121.41108387   116.77129743
 C     29  26  25     1.386985373125   120.33367935   185.00752040
 C     30  29  26     1.401689109802   120.16953229   359.12237420
 C     31  30  29     1.384025114476   119.56042192   359.02895365
 C     32  31  30     1.390857311240   119.98229416     1.34113684
 C     20   1   2     1.424747654055   118.30936067   184.68960762
 C     19   3   2     1.427570895118   118.33820212   182.65664003
 C     23  13  12     1.427554823987   118.15018940     3.86778553
 O     25  24  21     1.419297332707   111.21099040    48.68341816
 O     17   8   7     1.427624787473   115.48503086   300.59244286
 O     18   9   8     1.439308046646   115.76765794    68.17739935
 O     30  29  26     1.365800762013   125.49011285   178.36308688
 O     31  30  29     1.365962763795   120.40371108   179.18266957
 C     40  30  29     1.426134164843   118.28142727     1.89470985
 H      4   3   2     1.079843876252   120.65152458   177.99219736
 H      6   1   2     1.080076134939   120.03812675   181.30399636
 H      7   5   4     1.093813860646   109.97514963   135.41169973
 H      7   5   4     1.091698073958   110.36439894    17.47808068
 H      8   7   5     1.094321538260   105.70387710   310.50180365
 H      9   8   7     1.093516291545   106.18382783   327.24593934
 H     10   9   8     1.092999647082   110.60314796   306.79466307
 H     10   9   8     1.095084095605   108.45895316   189.90417355
 H     12  11  10     1.081247534476   119.32665743     1.92988602
 H     15  14  13     1.082953171702   118.91810160   180.16138280
 H     16  11  10     1.083234723898   119.74413164   357.51776939
 H     17   8   7     1.092558556858   107.95407690    59.06906428
 H     17   8   7     1.096036919594   109.59632449   175.68121319
 H     18   9   8     1.094509487355   108.53571869   190.93187051
 H     18   9   8     1.090278533831   110.39671956   308.90607566
 H     22  14  13     0.968535730130   108.54382895     0.65357679
 H     24  21   2     1.088627923555   109.57883223   304.94213511
 H     25  24  21     1.094052770555   106.68545051   163.62315137
 H     27  24  21     1.090546072152   109.61022536   177.01745111
 H     27  24  21     1.095074103235   109.82325093   296.32139221
 H     28  27  24     0.968832099947   107.01100754   313.83830669
 H     29  26  25     1.078686326001   119.56432552     3.28815694
 H     32  31  30     1.082880887236   119.05369527   180.86449309
 H     33  32  31     1.083028434182   118.97754426   179.00938871
 H     34  20   1     1.092519079098   110.82780827    58.40402199
 H     34  20   1     1.087115784859   105.81387080   177.28428989
 H     34  20   1     1.091748463872   111.09750406   296.09132912
 H     35  19   3     1.091878171101   110.71936456    60.12028296
 H     35  19   3     1.087037840069   105.79548091   178.99177169
 H     35  19   3     1.091561006197   111.18956121   297.99233279
 H     36  23  13     1.092333704099   110.57356885    58.77202004
 H     36  23  13     1.087021032410   105.99141057   177.71339927
 H     36  23  13     1.090408270756   110.97314346   296.59328606
 H     37  25  24     0.973313609824   108.73595102   310.10658986
 H     38  17   8     0.973884117492   105.50937652   284.86482950
 H     39  18   9     0.965460619539   109.38729332    60.29508071
 H     41  31  30     0.969089688707   108.28140327     0.30659524
 H     42  40  30     1.091142871867   110.74137029   297.61740044
 H     42  40  30     1.092513235970   110.84683936    59.56066269
 H     42  40  30     1.087080268107   106.01543660   178.65218558

---------------------------
INTERNAL COORDINATES (A.U.)
---------------------------
 C      0   0   0     0.000000000000     0.00000000     0.00000000
 C      1   0   0     2.639844941265     0.00000000     0.00000000
 C      2   1   0     2.633645233797   119.53731500     0.00000000
 C      3   2   1     2.629183934375   120.61851954     1.74084277
 C      4   3   2     2.628712502637   119.74780182   359.18211931
 C      1   2   3     2.626257864824   119.68425951   359.74086984
 C      5   4   3     2.848031676898   120.98299912   172.00634805
 C      7   5   4     2.920265163549   110.27468445   254.95812285
 C      8   7   5     2.923738531568   111.76553733    64.87691652
 C      9   8   7     2.918090945655   111.93535007   212.58720866
 C     10   9   8     2.853270321336   111.98841249    69.18568026
 C     11  10   9     2.647811598315   119.54050081    68.84966317
 C     12  11  10     2.617552789313   120.89290908   182.66743586
 C     13  12  11     2.652778337783   119.91938541     0.06003102
 C     14  13  12     2.611711128368   119.52621385   359.73911390
 C     11  10   9     2.624316672691   121.89953493   251.38338222
 C      8   7   5     2.890258164928   112.15048216   198.19438066
 C      9   8   7     2.885511715150   116.82820957    81.29731314
 O      3   2   1     2.583950100219   115.01523682   182.46280049
 O      1   2   3     2.563702051342   115.88282413   180.50127843
 O      2   1   3     2.590716957780   122.79204804   175.64608181
 O     14  13  12     2.580474061868   120.50657184   179.96023484
 O     13  12  11     2.582361412885   125.52779497   180.20315452
 C     21   2   1     2.721002322876   120.98361252    63.11372906
 C     24  21   2     2.909511601408   111.15053489    65.79572867
 C     25  24  21     2.878634270878   110.82605643   281.28091078
 C     24  21   2     2.864984247748   103.51257581   188.51361065
 O     27  24  21     2.697264595731   110.81738296    58.90976942
 C     26  25  24     2.634383727058   121.41108387   116.77129743
 C     29  26  25     2.621022506961   120.33367935   185.00752040
 C     30  29  26     2.648808542425   120.16953229   359.12237420
 C     31  30  29     2.615428428828   119.56042192   359.02895365
 C     32  31  30     2.628339409605   119.98229416     1.34113684
 C     20   1   2     2.692382876111   118.30936067   184.68960762
 C     19   3   2     2.697718028529   118.33820212   182.65664003
 C     23  13  12     2.697687658494   118.15018940     3.86778553
 O     25  24  21     2.682083261422   111.21099040    48.68341816
 O     17   8   7     2.697819870321   115.48503086   300.59244286
 O     18   9   8     2.719898030511   115.76765794    68.17739935
 O     30  29  26     2.580989393705   125.49011285   178.36308688
 O     31  30  29     2.581295532707   120.40371108   179.18266957
 C     40  30  29     2.695003001781   118.28142727     1.89470985
 H      4   3   2     2.040609193508   120.65152458   177.99219736
 H      6   1   2     2.041048098819   120.03812675   181.30399636
 H      7   5   4     2.067008638107   109.97514963   135.41169973
 H      7   5   4     2.063010380709   110.36439894    17.47808068
 H      8   7   5     2.067968009763   105.70387710   310.50180365
 H      9   8   7     2.066446314001   106.18382783   327.24593934
 H     10   9   8     2.065469997458   110.60314796   306.79466307
 H     10   9   8     2.069409034307   108.45895316   189.90417355
 H     12  11  10     2.043261723138   119.32665743     1.92988602
 H     15  14  13     2.046484910377   118.91810160   180.16138280
 H     16  11  10     2.047016966920   119.74413164   357.51776939
 H     17   8   7     2.064636457733   107.95407690    59.06906428
 H     17   8   7     2.071209610700   109.59632449   175.68121319
 H     18   9   8     2.068323182079   108.53571869   190.93187051
 H     18   9   8     2.060327838635   110.39671956   308.90607566
 H     22  14  13     1.830267280864   108.54382895     0.65357679
 H     24  21   2     2.057208637258   109.57883223   304.94213511
 H     25  24  21     2.067460112407   106.68545051   163.62315137
 H     27  24  21     2.060833412791   109.61022536   177.01745111
 H     27  24  21     2.069390151463   109.82325093   296.32139221
 H     28  27  24     1.830827338652   107.01100754   313.83830669
 H     29  26  25     2.038421740548   119.56432552     3.28815694
 H     32  31  30     2.046348312534   119.05369527   180.86449309
 H     33  32  31     2.046627135854   118.97754426   179.00938871
 H     34  20   1     2.064561855578   110.82780827    58.40402199
 H     34  20   1     2.054351109247   105.81387080   177.28428989
 H     34  20   1     2.063105603848   111.09750406   296.09132912
 H     35  19   3     2.063350714988   110.71936456    60.12028296
 H     35  19   3     2.054203814940   105.79548091   178.99177169
 H     35  19   3     2.062751360180   111.18956121   297.99233279
 H     36  23  13     2.064211547599   110.57356885    58.77202004
 H     36  23  13     2.054172053066   105.99141057   177.71339927
 H     36  23  13     2.060573005892   110.97314346   296.59328606
 H     37  25  24     1.839296164985   108.73595102   310.10658986
 H     38  17   8     1.840374268236   105.50937652   284.86482950
 H     39  18   9     1.824456164014   109.38729332    60.29508071
 H     41  31  30     1.831314110863   108.28140327     0.30659524
 H     42  40  30     2.061961200810   110.74137029   297.61740044
 H     42  40  30     2.064550813668   110.84683936    59.56066269
 H     42  40  30     2.054283992312   106.01543660   178.65218558

---------------------
BASIS SET INFORMATION
---------------------
There are 3 groups of distinct atoms

 Group   1 Type C   : 11s7p2d1f contracted to 4s5p2d1f pattern {7211/31111/11/1}
 Group   2 Type O   : 11s7p2d1f contracted to 4s5p2d1f pattern {7211/31111/11/1}
 Group   3 Type H   : 6s3p1d contracted to 3s2p1d pattern {411/21/1}

Atom   0C    basis set group =>   1
Atom   1C    basis set group =>   1
Atom   2C    basis set group =>   1
Atom   3C    basis set group =>   1
Atom   4C    basis set group =>   1
Atom   5C    basis set group =>   1
Atom   6C    basis set group =>   1
Atom   7C    basis set group =>   1
Atom   8C    basis set group =>   1
Atom   9C    basis set group =>   1
Atom  10C    basis set group =>   1
Atom  11C    basis set group =>   1
Atom  12C    basis set group =>   1
Atom  13C    basis set group =>   1
Atom  14C    basis set group =>   1
Atom  15C    basis set group =>   1
Atom  16C    basis set group =>   1
Atom  17C    basis set group =>   1
Atom  18O    basis set group =>   2
Atom  19O    basis set group =>   2
Atom  20O    basis set group =>   2
Atom  21O    basis set group =>   2
Atom  22O    basis set group =>   2
Atom  23C    basis set group =>   1
Atom  24C    basis set group =>   1
Atom  25C    basis set group =>   1
Atom  26C    basis set group =>   1
Atom  27O    basis set group =>   2
Atom  28C    basis set group =>   1
Atom  29C    basis set group =>   1
Atom  30C    basis set group =>   1
Atom  31C    basis set group =>   1
Atom  32C    basis set group =>   1
Atom  33C    basis set group =>   1
Atom  34C    basis set group =>   1
Atom  35C    basis set group =>   1
Atom  36O    basis set group =>   2
Atom  37O    basis set group =>   2
Atom  38O    basis set group =>   2
Atom  39O    basis set group =>   2
Atom  40O    basis set group =>   2
Atom  41C    basis set group =>   1
Atom  42H    basis set group =>   3
Atom  43H    basis set group =>   3
Atom  44H    basis set group =>   3
Atom  45H    basis set group =>   3
Atom  46H    basis set group =>   3
Atom  47H    basis set group =>   3
Atom  48H    basis set group =>   3
Atom  49H    basis set group =>   3
Atom  50H    basis set group =>   3
Atom  51H    basis set group =>   3
Atom  52H    basis set group =>   3
Atom  53H    basis set group =>   3
Atom  54H    basis set group =>   3
Atom  55H    basis set group =>   3
Atom  56H    basis set group =>   3
Atom  57H    basis set group =>   3
Atom  58H    basis set group =>   3
Atom  59H    basis set group =>   3
Atom  60H    basis set group =>   3
Atom  61H    basis set group =>   3
Atom  62H    basis set group =>   3
Atom  63H    basis set group =>   3
Atom  64H    basis set group =>   3
Atom  65H    basis set group =>   3
Atom  66H    basis set group =>   3
Atom  67H    basis set group =>   3
Atom  68H    basis set group =>   3
Atom  69H    basis set group =>   3
Atom  70H    basis set group =>   3
Atom  71H    basis set group =>   3
Atom  72H    basis set group =>   3
Atom  73H    basis set group =>   3
Atom  74H    basis set group =>   3
Atom  75H    basis set group =>   3
Atom  76H    basis set group =>   3
Atom  77H    basis set group =>   3
Atom  78H    basis set group =>   3
Atom  79H    basis set group =>   3
Atom  80H    basis set group =>   3
Atom  81H    basis set group =>   3
---------------------------------
AUXILIARY/J BASIS SET INFORMATION
---------------------------------
There are 3 groups of distinct atoms

 Group   1 Type C   : 15s13p12d5f5g contracted to 15s13p12d5f5g pattern {111111111111111/1111111111111/111111111111/11111/11111}
 Group   2 Type O   : 15s13p12d5f5g contracted to 15s13p12d5f5g pattern {111111111111111/1111111111111/111111111111/11111/11111}
 Group   3 Type H   : 12s4p3d2f contracted to 12s4p3d2f pattern {111111111111/1111/111/11}

Atom   0C    basis set group =>   1
Atom   1C    basis set group =>   1
Atom   2C    basis set group =>   1
Atom   3C    basis set group =>   1
Atom   4C    basis set group =>   1
Atom   5C    basis set group =>   1
Atom   6C    basis set group =>   1
Atom   7C    basis set group =>   1
Atom   8C    basis set group =>   1
Atom   9C    basis set group =>   1
Atom  10C    basis set group =>   1
Atom  11C    basis set group =>   1
Atom  12C    basis set group =>   1
Atom  13C    basis set group =>   1
Atom  14C    basis set group =>   1
Atom  15C    basis set group =>   1
Atom  16C    basis set group =>   1
Atom  17C    basis set group =>   1
Atom  18O    basis set group =>   2
Atom  19O    basis set group =>   2
Atom  20O    basis set group =>   2
Atom  21O    basis set group =>   2
Atom  22O    basis set group =>   2
Atom  23C    basis set group =>   1
Atom  24C    basis set group =>   1
Atom  25C    basis set group =>   1
Atom  26C    basis set group =>   1
Atom  27O    basis set group =>   2
Atom  28C    basis set group =>   1
Atom  29C    basis set group =>   1
Atom  30C    basis set group =>   1
Atom  31C    basis set group =>   1
Atom  32C    basis set group =>   1
Atom  33C    basis set group =>   1
Atom  34C    basis set group =>   1
Atom  35C    basis set group =>   1
Atom  36O    basis set group =>   2
Atom  37O    basis set group =>   2
Atom  38O    basis set group =>   2
Atom  39O    basis set group =>   2
Atom  40O    basis set group =>   2
Atom  41C    basis set group =>   1
Atom  42H    basis set group =>   3
Atom  43H    basis set group =>   3
Atom  44H    basis set group =>   3
Atom  45H    basis set group =>   3
Atom  46H    basis set group =>   3
Atom  47H    basis set group =>   3
Atom  48H    basis set group =>   3
Atom  49H    basis set group =>   3
Atom  50H    basis set group =>   3
Atom  51H    basis set group =>   3
Atom  52H    basis set group =>   3
Atom  53H    basis set group =>   3
Atom  54H    basis set group =>   3
Atom  55H    basis set group =>   3
Atom  56H    basis set group =>   3
Atom  57H    basis set group =>   3
Atom  58H    basis set group =>   3
Atom  59H    basis set group =>   3
Atom  60H    basis set group =>   3
Atom  61H    basis set group =>   3
Atom  62H    basis set group =>   3
Atom  63H    basis set group =>   3
Atom  64H    basis set group =>   3
Atom  65H    basis set group =>   3
Atom  66H    basis set group =>   3
Atom  67H    basis set group =>   3
Atom  68H    basis set group =>   3
Atom  69H    basis set group =>   3
Atom  70H    basis set group =>   3
Atom  71H    basis set group =>   3
Atom  72H    basis set group =>   3
Atom  73H    basis set group =>   3
Atom  74H    basis set group =>   3
Atom  75H    basis set group =>   3
Atom  76H    basis set group =>   3
Atom  77H    basis set group =>   3
Atom  78H    basis set group =>   3
Atom  79H    basis set group =>   3
Atom  80H    basis set group =>   3
Atom  81H    basis set group =>   3
---------------------------------
AUXILIARY/C BASIS SET INFORMATION
---------------------------------
There are 3 groups of distinct atoms

 Group   1 Type C   : 15s13p12d5f5g contracted to 15s13p12d5f5g pattern {111111111111111/1111111111111/111111111111/11111/11111}
 Group   2 Type O   : 15s13p12d5f5g contracted to 15s13p12d5f5g pattern {111111111111111/1111111111111/111111111111/11111/11111}
 Group   3 Type H   : 12s4p3d2f contracted to 12s4p3d2f pattern {111111111111/1111/111/11}

Atom   0C    basis set group =>   1
Atom   1C    basis set group =>   1
Atom   2C    basis set group =>   1
Atom   3C    basis set group =>   1
Atom   4C    basis set group =>   1
Atom   5C    basis set group =>   1
Atom   6C    basis set group =>   1
Atom   7C    basis set group =>   1
Atom   8C    basis set group =>   1
Atom   9C    basis set group =>   1
Atom  10C    basis set group =>   1
Atom  11C    basis set group =>   1
Atom  12C    basis set group =>   1
Atom  13C    basis set group =>   1
Atom  14C    basis set group =>   1
Atom  15C    basis set group =>   1
Atom  16C    basis set group =>   1
Atom  17C    basis set group =>   1
Atom  18O    basis set group =>   2
Atom  19O    basis set group =>   2
Atom  20O    basis set group =>   2
Atom  21O    basis set group =>   2
Atom  22O    basis set group =>   2
Atom  23C    basis set group =>   1
Atom  24C    basis set group =>   1
Atom  25C    basis set group =>   1
Atom  26C    basis set group =>   1
Atom  27O    basis set group =>   2
Atom  28C    basis set group =>   1
Atom  29C    basis set group =>   1
Atom  30C    basis set group =>   1
Atom  31C    basis set group =>   1
Atom  32C    basis set group =>   1
Atom  33C    basis set group =>   1
Atom  34C    basis set group =>   1
Atom  35C    basis set group =>   1
Atom  36O    basis set group =>   2
Atom  37O    basis set group =>   2
Atom  38O    basis set group =>   2
Atom  39O    basis set group =>   2
Atom  40O    basis set group =>   2
Atom  41C    basis set group =>   1
Atom  42H    basis set group =>   3
Atom  43H    basis set group =>   3
Atom  44H    basis set group =>   3
Atom  45H    basis set group =>   3
Atom  46H    basis set group =>   3
Atom  47H    basis set group =>   3
Atom  48H    basis set group =>   3
Atom  49H    basis set group =>   3
Atom  50H    basis set group =>   3
Atom  51H    basis set group =>   3
Atom  52H    basis set group =>   3
Atom  53H    basis set group =>   3
Atom  54H    basis set group =>   3
Atom  55H    basis set group =>   3
Atom  56H    basis set group =>   3
Atom  57H    basis set group =>   3
Atom  58H    basis set group =>   3
Atom  59H    basis set group =>   3
Atom  60H    basis set group =>   3
Atom  61H    basis set group =>   3
Atom  62H    basis set group =>   3
Atom  63H    basis set group =>   3
Atom  64H    basis set group =>   3
Atom  65H    basis set group =>   3
Atom  66H    basis set group =>   3
Atom  67H    basis set group =>   3
Atom  68H    basis set group =>   3
Atom  69H    basis set group =>   3
Atom  70H    basis set group =>   3
Atom  71H    basis set group =>   3
Atom  72H    basis set group =>   3
Atom  73H    basis set group =>   3
Atom  74H    basis set group =>   3
Atom  75H    basis set group =>   3
Atom  76H    basis set group =>   3
Atom  77H    basis set group =>   3
Atom  78H    basis set group =>   3
Atom  79H    basis set group =>   3
Atom  80H    basis set group =>   3
Atom  81H    basis set group =>   3
----------------------------------
AUXILIARY/JK BASIS SET INFORMATION
----------------------------------
There are 3 groups of distinct atoms

 Group   1 Type C   : 15s13p12d5f5g contracted to 15s13p12d5f5g pattern {111111111111111/1111111111111/111111111111/11111/11111}
 Group   2 Type O   : 15s13p12d5f5g contracted to 15s13p12d5f5g pattern {111111111111111/1111111111111/111111111111/11111/11111}
 Group   3 Type H   : 12s4p3d2f contracted to 12s4p3d2f pattern {111111111111/1111/111/11}

Atom   0C    basis set group =>   1
Atom   1C    basis set group =>   1
Atom   2C    basis set group =>   1
Atom   3C    basis set group =>   1
Atom   4C    basis set group =>   1
Atom   5C    basis set group =>   1
Atom   6C    basis set group =>   1
Atom   7C    basis set group =>   1
Atom   8C    basis set group =>   1
Atom   9C    basis set group =>   1
Atom  10C    basis set group =>   1
Atom  11C    basis set group =>   1
Atom  12C    basis set group =>   1
Atom  13C    basis set group =>   1
Atom  14C    basis set group =>   1
Atom  15C    basis set group =>   1
Atom  16C    basis set group =>   1
Atom  17C    basis set group =>   1
Atom  18O    basis set group =>   2
Atom  19O    basis set group =>   2
Atom  20O    basis set group =>   2
Atom  21O    basis set group =>   2
Atom  22O    basis set group =>   2
Atom  23C    basis set group =>   1
Atom  24C    basis set group =>   1
Atom  25C    basis set group =>   1
Atom  26C    basis set group =>   1
Atom  27O    basis set group =>   2
Atom  28C    basis set group =>   1
Atom  29C    basis set group =>   1
Atom  30C    basis set group =>   1
Atom  31C    basis set group =>   1
Atom  32C    basis set group =>   1
Atom  33C    basis set group =>   1
Atom  34C    basis set group =>   1
Atom  35C    basis set group =>   1
Atom  36O    basis set group =>   2
Atom  37O    basis set group =>   2
Atom  38O    basis set group =>   2
Atom  39O    basis set group =>   2
Atom  40O    basis set group =>   2
Atom  41C    basis set group =>   1
Atom  42H    basis set group =>   3
Atom  43H    basis set group =>   3
Atom  44H    basis set group =>   3
Atom  45H    basis set group =>   3
Atom  46H    basis set group =>   3
Atom  47H    basis set group =>   3
Atom  48H    basis set group =>   3
Atom  49H    basis set group =>   3
Atom  50H    basis set group =>   3
Atom  51H    basis set group =>   3
Atom  52H    basis set group =>   3
Atom  53H    basis set group =>   3
Atom  54H    basis set group =>   3
Atom  55H    basis set group =>   3
Atom  56H    basis set group =>   3
Atom  57H    basis set group =>   3
Atom  58H    basis set group =>   3
Atom  59H    basis set group =>   3
Atom  60H    basis set group =>   3
Atom  61H    basis set group =>   3
Atom  62H    basis set group =>   3
Atom  63H    basis set group =>   3
Atom  64H    basis set group =>   3
Atom  65H    basis set group =>   3
Atom  66H    basis set group =>   3
Atom  67H    basis set group =>   3
Atom  68H    basis set group =>   3
Atom  69H    basis set group =>   3
Atom  70H    basis set group =>   3
Atom  71H    basis set group =>   3
Atom  72H    basis set group =>   3
Atom  73H    basis set group =>   3
Atom  74H    basis set group =>   3
Atom  75H    basis set group =>   3
Atom  76H    basis set group =>   3
Atom  77H    basis set group =>   3
Atom  78H    basis set group =>   3
Atom  79H    basis set group =>   3
Atom  80H    basis set group =>   3
Atom  81H    basis set group =>   3
---------------------------------
AUXILIARY/X BASIS SET INFORMATION
---------------------------------
There are 3 groups of distinct atoms

 Group   1 Type C   : 15s13p12d5f5g contracted to 15s13p12d5f5g pattern {111111111111111/1111111111111/111111111111/11111/11111}
 Group   2 Type O   : 15s13p12d5f5g contracted to 15s13p12d5f5g pattern {111111111111111/1111111111111/111111111111/11111/11111}
 Group   3 Type H   : 12s4p3d2f contracted to 12s4p3d2f pattern {111111111111/1111/111/11}

Atom   0C    basis set group =>   1
Atom   1C    basis set group =>   1
Atom   2C    basis set group =>   1
Atom   3C    basis set group =>   1
Atom   4C    basis set group =>   1
Atom   5C    basis set group =>   1
Atom   6C    basis set group =>   1
Atom   7C    basis set group =>   1
Atom   8C    basis set group =>   1
Atom   9C    basis set group =>   1
Atom  10C    basis set group =>   1
Atom  11C    basis set group =>   1
Atom  12C    basis set group =>   1
Atom  13C    basis set group =>   1
Atom  14C    basis set group =>   1
Atom  15C    basis set group =>   1
Atom  16C    basis set group =>   1
Atom  17C    basis set group =>   1
Atom  18O    basis set group =>   2
Atom  19O    basis set group =>   2
Atom  20O    basis set group =>   2
Atom  21O    basis set group =>   2
Atom  22O    basis set group =>   2
Atom  23C    basis set group =>   1
Atom  24C    basis set group =>   1
Atom  25C    basis set group =>   1
Atom  26C    basis set group =>   1
Atom  27O    basis set group =>   2
Atom  28C    basis set group =>   1
Atom  29C    basis set group =>   1
Atom  30C    basis set group =>   1
Atom  31C    basis set group =>   1
Atom  32C    basis set group =>   1
Atom  33C    basis set group =>   1
Atom  34C    basis set group =>   1
Atom  35C    basis set group =>   1
Atom  36O    basis set group =>   2
Atom  37O    basis set group =>   2
Atom  38O    basis set group =>   2
Atom  39O    basis set group =>   2
Atom  40O    basis set group =>   2
Atom  41C    basis set group =>   1
Atom  42H    basis set group =>   3
Atom  43H    basis set group =>   3
Atom  44H    basis set group =>   3
Atom  45H    basis set group =>   3
Atom  46H    basis set group =>   3
Atom  47H    basis set group =>   3
Atom  48H    basis set group =>   3
Atom  49H    basis set group =>   3
Atom  50H    basis set group =>   3
Atom  51H    basis set group =>   3
Atom  52H    basis set group =>   3
Atom  53H    basis set group =>   3
Atom  54H    basis set group =>   3
Atom  55H    basis set group =>   3
Atom  56H    basis set group =>   3
Atom  57H    basis set group =>   3
Atom  58H    basis set group =>   3
Atom  59H    basis set group =>   3
Atom  60H    basis set group =>   3
Atom  61H    basis set group =>   3
Atom  62H    basis set group =>   3
Atom  63H    basis set group =>   3
Atom  64H    basis set group =>   3
Atom  65H    basis set group =>   3
Atom  66H    basis set group =>   3
Atom  67H    basis set group =>   3
Atom  68H    basis set group =>   3
Atom  69H    basis set group =>   3
Atom  70H    basis set group =>   3
Atom  71H    basis set group =>   3
Atom  72H    basis set group =>   3
Atom  73H    basis set group =>   3
Atom  74H    basis set group =>   3
Atom  75H    basis set group =>   3
Atom  76H    basis set group =>   3
Atom  77H    basis set group =>   3
Atom  78H    basis set group =>   3
Atom  79H    basis set group =>   3
Atom  80H    basis set group =>   3
Atom  81H    basis set group =>   3
--------------------------------------------------------------------------
WARNING: There is at least one non-excluded one OpenFabrics device found,
but there are no active ports detected (or Open MPI was unable to use
them).  This is most certainly not what you wanted.  Check your
cables, subnet manager configuration, etc.  The openib BTL will be
ignored for this job.

  Local host: c01b01n04
--------------------------------------------------------------------------
--------------------------------------------------------------------------
WARNING: There was an error initializing an OpenFabrics device.

  Local host:   c01b01n04
  Local device: mlx5_0
--------------------------------------------------------------------------


           ************************************************************
           *        Program running with 60 parallel MPI-processes    *
           *              working on a common directory               *
           ************************************************************
[c01b01n04:2220094] 9 more processes have sent help message help-mpi-btl-openib.txt / no active ports found
[c01b01n04:2220094] Set MCA parameter "orte_base_help_aggregate" to 0 to see all help / error messages
[c01b01n04:2220094] 49 more processes have sent help message help-mpi-btl-openib.txt / error in device init
------------------------------------------------------------------------------
                             ORCA STARTUP CALCULATIONS
                           -- RI-GTO INTEGRALS CHOSEN --
------------------------------------------------------------------------------
------------------------------------------------------------------------------
                   ___                                                        
                  /   \      - P O W E R E D   B Y -                         
                 /     \                                                     
                 |  |  |   _    _      __       _____    __    __             
                 |  |  |  | |  | |    /  \     |  _  \  |  |  /  |          
                  \  \/   | |  | |   /    \    | | | |  |  | /  /          
                 / \  \   | |__| |  /  /\  \   | |_| |  |  |/  /          
                |  |  |   |  __  | /  /__\  \  |    /   |      \           
                |  |  |   | |  | | |   __   |  |    \   |  |\   \          
                \     /   | |  | | |  |  |  |  | |\  \  |  | \   \       
                 \___/    |_|  |_| |__|  |__|  |_| \__\ |__|  \__/        
                                                                              
                      - O R C A' S   B I G   F R I E N D -                    
                                      &                                       
                       - I N T E G R A L  F E E D E R -                       
                                                                              
 v1 FN, 2020, v2 2021, v3 2022-2024                                           
------------------------------------------------------------------------------


----------------------
SHARK INTEGRAL PACKAGE
----------------------

Number of atoms                             ...     82
Number of basis functions                   ...   2072
Number of shells                            ...    744
Maximum angular momentum                    ...      3
Integral batch strategy                     ... SHARK/LIBINT Hybrid
RI-J (if used) integral strategy            ... SPLIT-RIJ (Revised 2003 algorithm where possible)
Printlevel                                  ...      1
Contraction scheme used                     ... SEGMENTED contraction
Prescreening option                         ... SCHWARTZ
   Thresh                                   ... 1.000e-10
   Tcut                                     ... 1.000e-11
   Tpresel                                  ... 1.000e-11 
Coulomb Range Separation                    ... NOT USED
Exchange Range Separation                   ... NOT USED
Multipole approximations                    ... NOT USED
Finite Nucleus Model                        ... NOT USED
CABS basis                                  ... NOT available
Auxiliary Coulomb fitting basis             ... AVAILABLE
   # of basis functions in Aux-J            ...  10268
   # of shells in Aux-J                     ...   2940
   Maximum angular momentum in Aux-J        ...      4
Auxiliary J/K fitting basis                 ... AVAILABLE
   # of basis functions in Aux-JK           ...  10268
   # of shells in Aux-JK                    ...   2940
   Maximum angular momentum in Aux-JK       ...      4
Auxiliary Correlation fitting basis         ... AVAILABLE
   # of basis functions in Aux-C            ...  10268
   # of shells in Aux-C                     ...   2940
   Maximum angular momentum in Aux-C        ...      4
Auxiliary 'external' fitting basis          ... NOT available

Checking pre-screening integrals            ... done (  0.0 sec) Dimension = 744
   => SHARK Basis and OBASIS are compatible. Storing Pre-screening
Shell pair information
Shell pair cut-off parameter TPreSel        ...   1.0e-11
Total number of shell pairs                 ...    277140
Shell pairs after pre-screening             ...    154276
Total number of primitive shell pairs       ...    823733
Primitive shell pairs kept                  ...    282982
          la=0 lb=0:  29391 shell pairs
          la=1 lb=0:  51260 shell pairs
          la=1 lb=1:  20859 shell pairs
          la=2 lb=0:  20282 shell pairs
          la=2 lb=1:  15263 shell pairs
          la=2 lb=2:   2727 shell pairs
          la=3 lb=0:   7008 shell pairs
          la=3 lb=1:   5247 shell pairs
          la=3 lb=2:   1872 shell pairs
          la=3 lb=3:    367 shell pairs

Checking whether 4 symmetric matrices of dimension 2072 fit in memory
:Max Core in MB      =   5000.00
 MB in use           =    190.35
 MB left             =   4809.65
 MB needed           =     65.54
 Data fit in memory  = YES
Calculating RI/J V-Matrix + Cholesky decomp.... done ( 14.4 sec)
Calculating RI/JK V-Matrix + Cholesky decomp.... done (  9.5 sec)
Calculating RI/C V-Matrix + Cholesky decomp.... done (  4.1 sec)
Calculating Nuclear repulsion               ... done (  0.0 sec) ENN=   5791.611729544190 Eh

Diagonalization of the overlap matrix:
Smallest eigenvalue                        ... 5.527e-06
Time for diagonalization                   ...    4.779 sec
Threshold for overlap eigenvalues          ... 1.000e-07
Number of eigenvalues below threshold      ... 0
Time for construction of square roots      ...    0.874 sec
Total time needed                          ...    6.103 sec

-------------------
DFT GRID GENERATION
-------------------

General Integration Accuracy     IntAcc      ... 4.388
Radial Grid Type                 RadialGrid  ... OptM3 with GC (2021)
Angular Grid (max. ang.)         AngularGrid ... 4 (Lebedev-302)
Angular grid pruning method      GridPruning ... 4 (adaptive)
Weight generation scheme         WeightScheme... mBecke (2022)
Basis function cutoff            BFCut       ... 1.0000e-10
Integration weight cutoff        WCut        ... 1.0000e-14
Partially contracted basis set               ... off
Rotationally invariant grid construction     ... off
Angular grids for H and He will be reduced by one unit
Diffuse basis detected: some atoms will have their outermost
                        angular grid increased by 1.

Total number of grid points                  ...   376684
Total number of batches                      ...     5928
Average number of points per batch           ...       63
Average number of grid points per atom       ...     4594
Grids setup in   4.9 sec
Initializing property integral containers    ... done (  0.7 sec)

SHARK setup successfully completed in  51.4 seconds

Maximum memory used throughout the entire STARTUP-calculation: 262.4 MB
--------------------------------------------------------------------------
WARNING: There was an error initializing an OpenFabrics device.

  Local host:   c01b01n04
  Local device: mlx5_0
--------------------------------------------------------------------------
--------------------------------------------------------------------------
WARNING: There is at least one non-excluded one OpenFabrics device found,
but there are no active ports detected (or Open MPI was unable to use
them).  This is most certainly not what you wanted.  Check your
cables, subnet manager configuration, etc.  The openib BTL will be
ignored for this job.

  Local host: c01b01n04
--------------------------------------------------------------------------


           ************************************************************
           *        Program running with 60 parallel MPI-processes    *
           *              working on a common directory               *
           ************************************************************
-------------------------------------------------------------------------------
                                 ORCA GUESS
                   Start orbitals & Density for SCF / CASSCF
-------------------------------------------------------------------------------

------------
SCF SETTINGS
------------
Hamiltonian:
 Density Functional     Method          .... DFT(GTOs)
 Exchange Functional    Exchange        .... TPSS
 Correlation Functional Correlation     .... TPSS
 LDA part of GGA corr.  LDAOpt          .... PW91-LDA
 Gradients option       PostSCFGGA      .... off
   NL short-range parameter             ....  5.000000
 RI-approximation to the Coulomb term is turned on
   Number of AuxJ basis functions       .... 10268


General Settings:
 Integral files         IntName         .... nmr-conf-7
 Hartree-Fock type      HFTyp           .... RHF
 Total Charge           Charge          ....    0
 Multiplicity           Mult            ....    1
 Number of Electrons    NEL             ....  314
 Basis Dimension        Dim             .... 2072
 Nuclear Repulsion      ENuc            ....   5791.6117295442 Eh

Convergence Acceleration:
 AO-DIIS                CNVDIIS         .... on
   Start iteration      DIISMaxIt       ....    12
   Startup error        DIISStart       ....  0.200000
   # of expansion vecs  DIISMaxEq       ....     5
   Bias factor          DIISBfac        ....   1.050
   Max. coefficient     DIISMaxC        ....  10.000
 MO-DIIS                CNVKDIIS        .... off
 Trust-Rad. Augm. Hess. CNVTRAH         .... auto
   Auto Start mean grad. ratio tolernc. ....  1.125000
   Auto Start start iteration           ....    50
   Auto Start num. interpolation iter.  ....    10
   Max. Number of Micro iterations      ....    24
   Max. Number of Macro iterations      .... Maxiter - #DIIS iter
   Number of Davidson start vectors     ....     2
   Converg. threshold    (grad. norm)   ....   5.000e-05
   Grad. Scal. Fac. for Micro threshold ....   0.100
   Minimum threshold for Micro iter.    ....   1.000e-02
   NR start threshold (gradient norm)   ....   1.000e-04
   Initial trust radius                 ....   0.400
   Minimum AH scaling param. (alpha)    ....   1.000
   Maximum AH scaling param. (alpha)    .... 1000.000
   Quad. conv. algorithm                .... NR
   White noise on init. David. guess    .... on
   Maximum white noise                  ....   0.010
   Pseudo random numbers                .... off
   Inactive MOs                         .... canonical
   Orbital update algorithm             .... Taylor
   Preconditioner                       .... Diag
   Full preconditioner red. dimension   ....   250
 SOSCF                 CNVSOSCF           .... on
   Start iteration     SOSCFMaxIt         ....   150
   Startup grad/error  SOSCFStart         ....  0.003300
   Hessian update      SOSCFHessUp        .... L-BFGS
   Autom. constraints  SOSCFAutoConstrain .... off
 Level Shifting         CNVShift        .... on
   Level shift para.    LevelShift      ....    0.2500
   Turn off err/grad.   ShiftErr        ....    0.0010
 Zerner damping         CNVZerner       .... off
 Static damping         CNVDamp         .... on
   Fraction old density DampFac         ....    0.7000
   Max. Damping (<1)    DampMax         ....    0.9800
   Min. Damping (>=0)   DampMin         ....    0.0000
   Turn off err/grad.   DampErr         ....    0.1000

SCF Procedure:
 Maximum # iterations   MaxIter         ....   125
 SCF integral mode      SCFMode         .... Direct
   Integral package                     .... SHARK and LIBINT hybrid scheme
 Reset frequency        DirectResetFreq ....    20
 Integral Threshold     Thresh          ....  1.000e-10 Eh
 Primitive CutOff       TCut            ....  1.000e-11 Eh

Convergence Tolerance:
 Convergence Check Mode ConvCheckMode   .... Total+1el-Energy
 Convergence forced     ConvForced      .... 0
 Energy Change          TolE            ....  1.000e-06 Eh
 1-El. energy change                    ....  1.000e-03 Eh
 Orbital Gradient       TolG            ....  5.000e-05
 Orbital Rotation angle TolX            ....  5.000e-05
 DIIS Error             TolErr          ....  1.000e-06

------------------------------
INITIAL GUESS: MODEL POTENTIAL
------------------------------
Loading Hartree-Fock densities                     ... done
Calculating cut-offs                               ... done
Initializing the effective Hamiltonian             ... done
Setting up the integral package (SHARK)            ... done
Starting the Coulomb interaction                   ... done (   0.8 sec)
Making the grid                                    ... done (   1.0 sec)
Mapping shells                                     ... done
Starting the XC term evaluation                    ... done (   0.1 sec)
  promolecular density results
     # of electrons  =    313.980674171
     EX              =   -260.297806754
     EC              =    -10.640712961
     EX+EC           =   -270.938519715
Transforming the Hamiltonian                       ... done (   0.3 sec)
Diagonalizing the Hamiltonian                      ... [c01b01n04:2220542] 48 more processes have sent help message help-mpi-btl-openib.txt / error in device init
[c01b01n04:2220542] Set MCA parameter "orte_base_help_aggregate" to 0 to see all help / error messages
[c01b01n04:2220542] 10 more processes have sent help message help-mpi-btl-openib.txt / no active ports found
done (   0.6 sec)
Back transforming the eigenvectors                 ... done (   0.2 sec)
Now organizing SCF variables                       ... done
                      ------------------
                      INITIAL GUESS DONE (   4.2 sec)
                      ------------------
             **** ENERGY FILE WAS UPDATED (nmr-conf-7.en.tmp) ****
Finished Guess after   8.8 sec
Maximum memory used throughout the entire GUESS-calculation: 294.5 MB
--------------------------------------------------------------------------
WARNING: There was an error initializing an OpenFabrics device.

  Local host:   c01b01n04
  Local device: mlx5_0
--------------------------------------------------------------------------
--------------------------------------------------------------------------
WARNING: There is at least one non-excluded one OpenFabrics device found,
but there are no active ports detected (or Open MPI was unable to use
them).  This is most certainly not what you wanted.  Check your
cables, subnet manager configuration, etc.  The openib BTL will be
ignored for this job.

  Local host: c01b01n04
--------------------------------------------------------------------------


           ************************************************************
           *        Program running with 60 parallel MPI-processes    *
           *              working on a common directory               *
           ************************************************************

-------------------------------------------------------------------------------------------
                                      ORCA LEAN-SCF
                              memory conserving SCF solver
-------------------------------------------------------------------------------------------

--------------------
CPCM SOLVATION MODEL
--------------------
CPCM parameters:
  Epsilon                                         ...      33.4280
  Refrac                                          ...       1.3288
  Rsolv                                           ...       1.3000
  Surface type                                    ... GAUSSIAN VDW
  Discretization scheme                           ... Constant charge density
    Threshold for H atoms                         ...       5.0000 (charges/Ang^2)
    Threshold for non-H atoms                     ...       5.0000 (charges/Ang^2)
  Epsilon function type                           ...         CPCM
Solvent:                                          ... METHANOL
Radii:
  Scheme                                          ... Element-dependent radii
  Radius for C  used is    3.8550 Bohr (=   2.0400 Ang.)
  Radius for O  used is    3.4469 Bohr (=   1.8240 Ang.)
  Radius for H  used is    2.4944 Bohr (=   1.3200 Ang.)
Calculating surface                               ...        done! (  0.0s)
Cavity surface points                             ...         6212
Cavity Volume                                     ...    4524.5232
Cavity Surface-area                               ...    2053.2767
Calculating surface distance matrix               ...        done! (  0.2s)
Performing Cholesky decomposition & store         ...        done! (  1.3s)
Overall time for CPCM initialization              ...                 1.5s

----------------------------------------D-I-I-S--------------------------------------------
Iteration    Energy (Eh)           Delta-E    RMSDP     MaxDP     DIISErr   Damp  Time(sec)
-------------------------------------------------------------------------------------------
               ***  Starting incremental Fock matrix formation  ***
[c01b01n04:2220974] 47 more processes have sent help message help-mpi-btl-openib.txt / error in device init
[c01b01n04:2220974] Set MCA parameter "orte_base_help_aggregate" to 0 to see all help / error messages
[c01b01n04:2220974] 11 more processes have sent help message help-mpi-btl-openib.txt / no active ports found
    1    -2033.0173247345428535     0.00e+00  7.77e-03  2.35e-01  2.42e-01  0.700   7.7
    2    -2033.4267853209694294    -4.09e-01  6.33e-03  1.75e-01  8.42e-02  0.700   9.0
                               ***Turning on AO-DIIS***
    3    -2033.5792372459272883    -1.52e-01  2.72e-03  6.86e-02  2.42e-02  0.700   7.8
    4    -2033.6715247150723371    -9.23e-02  4.81e-03  9.83e-02  1.17e-02  0.000   6.8
    5    -2033.8760282063994964    -2.05e-01  1.24e-03  3.79e-02  4.67e-03  0.000   7.4
                              *** Initializing SOSCF ***
---------------------------------------S-O-S-C-F--------------------------------------
Iteration    Energy (Eh)           Delta-E    RMSDP     MaxDP     MaxGrad    Time(sec)
--------------------------------------------------------------------------------------
    6    -2033.8774027691870288    -1.37e-03  3.92e-04  8.47e-03  1.37e-03     9.0
               *** Restarting incremental Fock matrix formation ***
    7    -2033.8775081524936468    -1.05e-04  3.12e-04  7.08e-03  1.20e-04     6.7
    8    -2033.8774784603756416     2.97e-05  7.89e-05  1.92e-03  7.43e-04     6.3
    9    -2033.8775251749057134    -4.67e-05  6.37e-05  1.36e-03  1.29e-04     6.1
   10    -2033.8775249727987102     2.02e-07  2.41e-05  6.70e-04  1.34e-04     5.4
                 **** Energy Check signals convergence ****

               *****************************************************
               *                     SUCCESS                       *
               *           SCF CONVERGED AFTER  10 CYCLES          *
               *****************************************************

             **** ENERGY FILE WAS UPDATED (nmr-conf-7.en.tmp) ****

----------------
TOTAL SCF ENERGY
----------------

Total Energy       :      -2033.87752584123245 Eh          -55344.62114 eV

Components:
Nuclear Repulsion  :       5791.61172954418998 Eh          157597.76728 eV
Electronic Energy  :      -7825.44080421793387 Eh         -212941.07000 eV
One Electron Energy:     -14310.99422241551474 Eh         -389421.95062 eV
Two Electron Energy:       6485.55341819758087 Eh          176480.88062 eV
CPCM Dielectric    :         -0.04845116748850 Eh              -1.31842 eV

Virial components:
Potential Energy   :      -4061.12778317964512 Eh         -110508.90514 eV
Kinetic Energy     :       2027.25025733841289 Eh           55164.28400 eV
Virial Ratio       :          2.00326909244620

DFT components:
N(Alpha)           :      156.999944149587 electrons
N(Beta)            :      156.999944149587 electrons
N(Total)           :      313.999888299174 electrons
E(X)               :     -268.092181225076 Eh       
E(C)               :      -10.606527242091 Eh       
E(XC)              :     -278.698708467167 Eh       

CPCM Solvation Model Properties:
Surface-charge          :         -0.04233603167816
Corrected charge        :          0.00000000000000
Outlying charge corr.   :          0.00007782545630 Eh               0.00212 eV
Free-energy (cav+disp)  :  This term is not implemented in the current solvation scheme

---------------
SCF CONVERGENCE
---------------

  Last Energy change         ...   -2.0211e-07  Tolerance :   1.0000e-06
  Last MAX-Density change    ...    6.6959e-04  Tolerance :   1.0000e-05
  Last RMS-Density change    ...    2.4060e-05  Tolerance :   1.0000e-06
  Last DIIS Error            ...    1.3700e-03  Tolerance :   1.0000e-06
  Last Orbital Gradient      ...    1.3416e-04  Tolerance :   5.0000e-05
  Last Orbital Rotation      ...    2.6105e-04  Tolerance :   5.0000e-05


----------------
ORBITAL ENERGIES
----------------

  NO   OCC          E(Eh)            E(eV) 
   0   2.0000     -18.919156      -514.8164 
   1   2.0000     -18.918028      -514.7857 
   2   2.0000     -18.917188      -514.7629 
   3   2.0000     -18.911448      -514.6067 
   4   2.0000     -18.909512      -514.5540 
   5   2.0000     -18.908249      -514.5196 
   6   2.0000     -18.904887      -514.4281 
   7   2.0000     -18.891526      -514.0646 
   8   2.0000     -18.879043      -513.7249 
   9   2.0000     -18.878460      -513.7090 
  10   2.0000     -18.863448      -513.3005 
  11   2.0000     -10.044339      -273.3204 
  12   2.0000     -10.043883      -273.3080 
  13   2.0000     -10.043765      -273.3047 
  14   2.0000     -10.043111      -273.2869 
  15   2.0000     -10.042876      -273.2805 
  16   2.0000     -10.041387      -273.2400 
  17   2.0000     -10.040363      -273.2122 
  18   2.0000     -10.040351      -273.2118 
  19   2.0000     -10.036192      -273.0987 
  20   2.0000     -10.035301      -273.0744 
  21   2.0000     -10.034565      -273.0544 
  22   2.0000     -10.033739      -273.0319 
  23   2.0000     -10.031555      -272.9725 
  24   2.0000     -10.030791      -272.9517 
  25   2.0000     -10.030306      -272.9385 
  26   2.0000     -10.021071      -272.6872 
  27   2.0000      -9.990500      -271.8553 
  28   2.0000      -9.988049      -271.7886 
  29   2.0000      -9.986626      -271.7499 
  30   2.0000      -9.985755      -271.7262 
  31   2.0000      -9.984167      -271.6830 
  32   2.0000      -9.984109      -271.6814 
  33   2.0000      -9.983476      -271.6642 
  34   2.0000      -9.983090      -271.6537 
  35   2.0000      -9.982341      -271.6333 
  36   2.0000      -9.981531      -271.6113 
  37   2.0000      -9.981489      -271.6101 
  38   2.0000      -9.980644      -271.5871 
  39   2.0000      -9.978505      -271.5289 
  40   2.0000      -9.977525      -271.5023 
  41   2.0000      -9.975456      -271.4460 
  42   2.0000      -1.013416       -27.5765 
  43   2.0000      -1.010429       -27.4952 
  44   2.0000      -1.009632       -27.4735 
  45   2.0000      -1.000337       -27.2205 
  46   2.0000      -0.986077       -26.8325 
  47   2.0000      -0.982907       -26.7463 
  48   2.0000      -0.982199       -26.7270 
  49   2.0000      -0.963311       -26.2130 
  50   2.0000      -0.954088       -25.9621 
  51   2.0000      -0.948666       -25.8145 
  52   2.0000      -0.936138       -25.4736 
  53   2.0000      -0.799051       -21.7433 
  54   2.0000      -0.794771       -21.6268 
  55   2.0000      -0.793859       -21.6020 
  56   2.0000      -0.759717       -20.6729 
  57   2.0000      -0.734666       -19.9913 
  58   2.0000      -0.717810       -19.5326 
  59   2.0000      -0.701723       -19.0949 
  60   2.0000      -0.700148       -19.0520 
  61   2.0000      -0.697033       -18.9672 
  62   2.0000      -0.695321       -18.9206 
  63   2.0000      -0.686346       -18.6764 
  64   2.0000      -0.672400       -18.2969 
  65   2.0000      -0.651385       -17.7251 
  66   2.0000      -0.650172       -17.6921 
  67   2.0000      -0.649176       -17.6650 
  68   2.0000      -0.641649       -17.4601 
  69   2.0000      -0.623233       -16.9590 
  70   2.0000      -0.618181       -16.8216 
  71   2.0000      -0.613979       -16.7072 
  72   2.0000      -0.575230       -15.6528 
  73   2.0000      -0.566245       -15.4083 
  74   2.0000      -0.559190       -15.2163 
  75   2.0000      -0.558566       -15.1994 
  76   2.0000      -0.546640       -14.8748 
  77   2.0000      -0.545869       -14.8538 
  78   2.0000      -0.539733       -14.6869 
  79   2.0000      -0.533931       -14.5290 
  80   2.0000      -0.513494       -13.9729 
  81   2.0000      -0.509420       -13.8620 
  82   2.0000      -0.503655       -13.7052 
  83   2.0000      -0.495991       -13.4966 
  84   2.0000      -0.482061       -13.1176 
  85   2.0000      -0.478737       -13.0271 
  86   2.0000      -0.475213       -12.9312 
  87   2.0000      -0.474236       -12.9046 
  88   2.0000      -0.459268       -12.4973 
  89   2.0000      -0.456726       -12.4281 
  90   2.0000      -0.448603       -12.2071 
  91   2.0000      -0.446527       -12.1506 
  92   2.0000      -0.444360       -12.0917 
  93   2.0000      -0.443384       -12.0651 
  94   2.0000      -0.441454       -12.0126 
  95   2.0000      -0.432940       -11.7809 
  96   2.0000      -0.429643       -11.6912 
  97   2.0000      -0.428062       -11.6482 
  98   2.0000      -0.425035       -11.5658 
  99   2.0000      -0.421441       -11.4680 
 100   2.0000      -0.420717       -11.4483 
 101   2.0000      -0.416268       -11.3272 
 102   2.0000      -0.410032       -11.1575 
 103   2.0000      -0.404789       -11.0149 
 104   2.0000      -0.401498       -10.9253 
 105   2.0000      -0.399011       -10.8576 
 106   2.0000      -0.396380       -10.7860 
 107   2.0000      -0.393152       -10.6982 
 108   2.0000      -0.385398       -10.4872 
 109   2.0000      -0.384960       -10.4753 
 110   2.0000      -0.382266       -10.4020 
 111   2.0000      -0.379082       -10.3153 
 112   2.0000      -0.375606       -10.2208 
 113   2.0000      -0.374669       -10.1953 
 114   2.0000      -0.373092       -10.1523 
 115   2.0000      -0.371355       -10.1051 
 116   2.0000      -0.370298       -10.0763 
 117   2.0000      -0.367448        -9.9988 
[...]
 
 sDSO           215.346          168.772           78.099  iso=     154.072
 sPSO          -190.952         -143.187          -43.362  iso=    -125.833
        ---------------  ---------------  ---------------
 Total           24.394           25.585           34.738  iso=      28.239

 Orientation: 
  X           0.9742242    0.0921678    0.2058939
  Y           0.0342546    0.8416957   -0.5388644
  Z          -0.2229660    0.5320276    0.8168432

 --------------
 Nucleus  73H :
 --------------

Diamagnetic contribution to the shielding tensor (ppm) : 
           204.930        -34.165        23.217
           118.919         17.592        12.589
           -50.078         56.736       162.753

Paramagnetic contribution to the shielding tensor (ppm): 
          -178.470         36.231       -23.354
          -116.001         11.536       -14.491
            48.154        -60.178      -135.505

Total shielding tensor (ppm): 
            26.460          2.066        -0.137
             2.919         29.128        -1.902
            -1.924         -3.442        27.248


 Diagonalized sT*s matrix:
 
 sDSO           113.482          178.061           93.733  iso=     128.425
 sPSO           -88.725         -152.208          -61.506  iso=    -100.813
        ---------------  ---------------  ---------------
 Total           24.756           25.853           32.227  iso=      27.612

 Orientation: 
  X           0.6789827    0.5943584   -0.4309531
  Y          -0.6242294    0.1584183   -0.7650107
  Z          -0.3864197    0.7884426    0.4785793

 --------------
 Nucleus  74H :
 --------------

Diamagnetic contribution to the shielding tensor (ppm) : 
           167.361        -38.742        37.997
            74.726         28.023        27.563
          -116.711        116.182        86.326

Paramagnetic contribution to the shielding tensor (ppm): 
          -138.690         33.475       -39.378
           -77.035         -0.386       -27.859
           114.715       -115.132       -58.216

Total shielding tensor (ppm): 
            28.672         -5.266        -1.381
            -2.309         27.638        -0.296
            -1.996          1.050        28.110


 Diagonalized sT*s matrix:
 
 sDSO           124.259           20.861          136.592  iso=      93.904
 sPSO          -100.108            6.902         -104.085  iso=     -65.764
        ---------------  ---------------  ---------------
 Total           24.151           27.762           32.507  iso=      28.140

 Orientation: 
  X           0.6903169   -0.0845901   -0.7185451
  Y           0.6889439    0.3801468    0.6171261
  Z           0.2209498   -0.9210499    0.3206996

 --------------
 Nucleus  75H :
 --------------

Diamagnetic contribution to the shielding tensor (ppm) : 
           152.500        -72.946        30.307
            75.906        -15.451         9.736
           -27.969        123.816       -12.406

Paramagnetic contribution to the shielding tensor (ppm): 
          -120.971         76.677       -20.309
           -73.617         32.797        -5.591
            37.677       -119.860        44.934

Total shielding tensor (ppm): 
            31.529          3.732         9.998
             2.290         17.347         4.145
             9.709          3.956        32.528


 Diagonalized sT*s matrix:
 
 sDSO           -41.196           84.085           81.754  iso=      41.548
 sPSO            57.501          -61.863          -38.878  iso=     -14.413
        ---------------  ---------------  ---------------
 Total           16.305           22.222           42.877  iso=      27.135

 Orientation: 
  X           0.0731049    0.7402970    0.6682933
  Y          -0.9762437   -0.0839270    0.1997612
  Z           0.2039705   -0.6670207    0.7165748

 --------------
 Nucleus  76H :
 --------------

Diamagnetic contribution to the shielding tensor (ppm) : 
           -88.586        126.731       -49.499
           -62.078        104.338       -31.286
          -131.516        140.993       -52.359

Paramagnetic contribution to the shielding tensor (ppm): 
           106.421       -128.768        57.415
            58.955        -76.534        24.612
           140.471       -149.121        87.987

Total shielding tensor (ppm): 
            17.835         -2.037         7.916
            -3.123         27.804        -6.674
             8.955         -8.128        35.628


 Diagonalized sT*s matrix:
 
 sDSO           -18.915          106.640         -124.332  iso=     -12.202
 sPSO            33.382          -82.855          167.347  iso=      39.291
        ---------------  ---------------  ---------------
 Total           14.468           23.784           43.015  iso=      27.089

 Orientation: 
  X           0.9223101    0.1909607    0.3359734
  Y          -0.0142175    0.8855610   -0.4643056
  Z          -0.3861890    0.4234570    0.8194768

 --------------
 Nucleus  77H :
 --------------

Diamagnetic contribution to the shielding tensor (ppm) : 
            10.230        189.959       -26.456
           -23.128        137.681       -12.393
          -100.814        136.481        34.451

Paramagnetic contribution to the shielding tensor (ppm): 
            27.727       -195.683        29.044
            17.835       -110.189        14.867
           103.546       -133.183       -10.885

Total shielding tensor (ppm): 
            37.957         -5.724         2.589
            -5.293         27.492         2.474
             2.732          3.297        23.566


 Diagonalized sT*s matrix:
 
 sDSO            66.180          159.340          -43.158  iso=      60.787
 sPSO           -45.667         -131.266           83.587  iso=     -31.116
        ---------------  ---------------  ---------------
 Total           20.513           28.074           40.429  iso=      29.672

 Orientation: 
  X          -0.2942506    0.2508698   -0.9222152
  Y          -0.5462117    0.7476755    0.3776693
  Z           0.7842636    0.6148542   -0.0829760

 --------------
 Nucleus  78H :
 --------------

Diamagnetic contribution to the shielding tensor (ppm) : 
          -200.767        -43.579       -18.902
          -164.616         15.475        -5.153
           -54.207        -27.993       -72.153

Paramagnetic contribution to the shielding tensor (ppm): 
           217.259         43.108        16.210
           164.388         14.335         9.016
            51.184         30.228       103.413

Total shielding tensor (ppm): 
            16.492         -0.471        -2.691
            -0.227         29.811         3.863
            -3.023          2.234        31.260


 Diagonalized sT*s matrix:
 
 sDSO          -204.877          -17.153          -35.415  iso=     -85.815
 sPSO           220.833           44.740           69.435  iso=     111.669
        ---------------  ---------------  ---------------
 Total           15.955           27.588           34.020  iso=      25.854

 Orientation: 
  X           0.9815462    0.1279469   -0.1421149
  Y          -0.0226337    0.8156899    0.5780464
  Z           0.1898809   -0.5641627    0.8035333

 --------------
 Nucleus  79H :
 --------------

Diamagnetic contribution to the shielding tensor (ppm) : 
           -16.958        -80.028        14.557
           -48.735         -8.818         5.547
          -148.469         64.383       -80.682

Paramagnetic contribution to the shielding tensor (ppm): 
            44.102         76.732       -14.244
            44.995         36.317        -5.683
           150.981        -67.910       109.724

Total shielding tensor (ppm): 
            27.144         -3.295         0.313
            -3.740         27.499        -0.136
             2.512         -3.527        29.042


 Diagonalized sT*s matrix:
 
 sDSO           -80.133           24.380          -50.705  iso=     -35.486
 sPSO           103.920            3.108           83.116  iso=      63.381
        ---------------  ---------------  ---------------
 Total           23.787           27.488           32.410  iso=      27.895

 Orientation: 
  X           0.7112029   -0.4133990    0.5685875
  Y           0.7003828    0.3471299   -0.6236704
  Z           0.0604509    0.8417851    0.5364174

 --------------
 Nucleus  80H :
 --------------

Diamagnetic contribution to the shielding tensor (ppm) : 
             2.387       -162.701         7.117
           -30.049        -84.906         6.892
          -107.477         27.452      -158.977

Paramagnetic contribution to the shielding tensor (ppm): 
            28.659        162.344       -11.844
            29.382        111.217        -6.101
           103.195        -29.088       186.066

Total shielding tensor (ppm): 
            31.046         -0.357        -4.727
            -0.667         26.312         0.791
            -4.281         -1.636        27.089


 Diagonalized sT*s matrix:
 
 sDSO          -170.152          -73.399            2.055  iso=     -80.499
 sPSO           194.129           99.878           31.936  iso=     108.648
        ---------------  ---------------  ---------------
 Total           23.977           26.479           33.991  iso=      28.149

 Orientation: 
  X           0.5357485    0.1238164   -0.8352503
  Y           0.2445667   -0.9695433    0.0131469
  Z           0.8081835    0.2113178    0.5497128

 --------------
 Nucleus  81H :
 --------------

Diamagnetic contribution to the shielding tensor (ppm) : 
          -105.205        -76.353        -9.196
           -96.671        -10.630         3.646
          -102.592         56.253      -124.207

Paramagnetic contribution to the shielding tensor (ppm): 
           130.061         74.179         6.579
            95.470         39.016        -1.166
           100.976        -52.414       154.295

Total shielding tensor (ppm): 
            24.855         -2.174        -2.616
            -1.201         28.386         2.480
            -1.616          3.838        30.088


 Diagonalized sT*s matrix:
 
 sDSO          -155.476          -82.783           -1.783  iso=     -80.014
 sPSO           179.472          108.750           35.150  iso=     107.791
        ---------------  ---------------  ---------------
 Total           23.995           25.967           33.367  iso=      27.776

 Orientation: 
  X           0.9564623   -0.0189352   -0.2912411
  Y           0.1958423    0.7815134    0.5923535
  Z           0.2163925   -0.6236011    0.7511964



--------------------------------
CHEMICAL SHIELDING SUMMARY (ppm)
--------------------------------


  Nucleus  Element    Isotropic     Anisotropy
  -------  -------  ------------   ------------
      0       C           25.470        127.776 
      1       C           46.394         98.009 
      2       C           26.364        123.767 
      3       C           75.846        129.971 
      4       C           39.354        199.643 
      5       C           77.033        143.093 
      6       C          140.326         29.176 
      7       C          133.875         25.299 
      8       C          135.334         17.355 
      9       C          142.566         24.216 
     10       C           43.736        185.690 
     11       C           69.718        154.011 
     12       C           30.096        122.428 
     13       C           32.637        124.347 
     14       C           68.780        141.679 
     15       C           58.356        147.573 
     16       C          111.991         58.352 
     17       C          110.701         62.391 
     23       C           92.942         21.503 
     24       C          103.183         42.177 
     25       C           42.593        170.039 
     26       C          110.619         58.472 
     28       C           74.173        166.559 
     29       C           32.020        118.181 
     30       C           32.350        123.335 
     31       C           67.845        145.201 
     32       C           63.372        162.949 
     33       C          126.195         77.669 
     34       C          123.560         80.219 
     35       C          123.764         73.715 
     41       C          124.447         75.490 
     42       H           25.494          8.178 
     43       H           26.521          7.792 
     44       H           29.274          6.218 
     45       H           29.173          4.161 
     46       H           30.549          6.844 
     47       H           30.251         11.099 
     48       H           29.309          6.582 
     49       H           29.268          7.761 
     50       H           25.617          8.518 
     51       H           25.008          3.969 
     52       H           25.156          6.035 
     53       H           28.113          6.170 
     54       H           27.357          5.682 
     55       H           27.634          6.300 
     56       H           27.443          4.303 
     57       H           25.826         13.081 
     58       H           26.346          3.347 
     59       H           26.908          6.418 
     60       H           27.700          6.560 
     61       H           27.323          6.007 
     62       H           28.915         19.909 
     63       H           25.123          9.233 
     64       H           24.966          3.405 
     65       H           25.055          6.424 
     66       H           28.768          7.788 
     67       H           27.848          8.521 
     68       H           28.668          6.645 
     69       H           27.763          8.705 
     70       H           27.352          9.499 
     71       H           27.570          7.814 
     72       H           28.239          9.748 
     73       H           27.612          6.922 
     74       H           28.140          6.550 
     75       H           27.135         23.613 
     76       H           27.089         23.889 
     77       H           29.672         16.136 
     78       H           25.854         12.248 
     79       H           27.895          6.772 
     80       H           28.149          8.763 
     81       H           27.776          8.386 


NMR shielding tensor and spin rotation calculation done in   2.7 sec 

Maximum memory used throughout the entire PROP-calculation: 371.4 MB
--------------------------------------------------------------------------
WARNING: There was an error initializing an OpenFabrics device.

  Local host:   c01b01n04
  Local device: mlx5_0
--------------------------------------------------------------------------
--------------------------------------------------------------------------
WARNING: There is at least one non-excluded one OpenFabrics device found,
but there are no active ports detected (or Open MPI was unable to use
them).  This is most certainly not what you wanted.  Check your
cables, subnet manager configuration, etc.  The openib BTL will be
ignored for this job.

  Local host: c01b01n04
--------------------------------------------------------------------------
[c01b01n04:2223079] 46 more processes have sent help message help-mpi-btl-openib.txt / error in device init
[c01b01n04:2223079] Set MCA parameter "orte_base_help_aggregate" to 0 to see all help / error messages
[c01b01n04:2223079] 12 more processes have sent help message help-mpi-btl-openib.txt / no active ports found

--------------------------------
SUGGESTED CITATIONS FOR THIS RUN
--------------------------------

Below you find a list of papers that are relevant to this ORCA run
We neither can nor want to force you to cite these papers, but we appreciate if you do
You receive ORCA, which is the product of decades of hard work by many enthusiastic individuals, for free
The only thing we kindly ask in return is that you cite our papers,
We deeply appreciate it, if you show your appreciation for ORCA by not just citing the generic ORCA reference.

Please note that relegating all ORCA citations to the supporting information does *not* help us.
SI sections are not indexed - citations you put there will not count into any citation statistics
But we need these citations in order to attract the funding resources that allow us to do what we are doing

Therefore, if you are a happy ORCA user, please consider citing a few of the papers listed below in the main body of your paper

In addition to the list printed below, the program has created the file nmr-conf-7.bibtex that contains the list in bibtex format
You can import this file easily into all common literature databanks and citation aid programs


List of essential papers. We consider these as the minimum necessary citations

  1. Neese, F.
     Software update: the ORCA program system, version 6.0
     WIRES Comput. Molec. Sci. 2025 15(1), e70019
     doi.org/10.1002/wcms.7019

List of papers to cite with high priority. The work reported in these papers was absolutely
necessary for this run to complete.
Our perspective: the developers of density functionals and basis sets usually get cited in chemistry papers
Good! But without the algorithms to do something with them, the functionals or basis sets would not do anything.
Hence, in our opinion, the algorithm design and method developments papers are equally worthy of getting cited

  1. Neese, F.
     An improvement of the resolution of the identity approximation for the formation of the Coulomb matrix
     J. Comp. Chem. 2003 24(14), 1740-1747
     doi.org/10.1002/jcc.10318
  2. Stoychev, G.L.; Auer, A.A.; Neese, F.
     Automatic Generation of Auxiliary Basis Sets
     J. Theo. Comp. Chem. 2017 13 , 554-562
     doi.org/10.1021/acs.jctc.6b01041
  3. Stoychev, G.L.; Auer, A.A.; Izsak, R.; Neese, F.
     Self-Consistent Field Calculation of Nuclear Magnetic Resonance Chemical Shielding Constants Using Gauge-Including Atomic Orbitals and Approximate Two-Electron Integrals
     J. Chem. Theory Comput. 2018 14(2), 619-637
     doi.org/10.1021/acs.jctc.7b01006
  4. Garcia-Rates, M.; Neese, F.
     Effect of the Solute Cavity on the Solvation Energy and its Derivatives within the Framework of the Gaussian Charge Scheme
     J. Comput. Chem. 2020 41 , 922-939
     doi.org/10.1002/jcc.26139
  5. Neese, F.
     The SHARK Integral Generation and Digestion System
     J. Comp. Chem. 2022 44(3), 381
     doi.org/10.1002/jcc.26942

List of suggested additional citations. These are papers that are important in the 'surrounding' of 
of this run, or papers that preceded the highly important papers. If you like your results we are grateful for a citation.

  1. Neese, F.
     The ORCA program system
     WIRES Comput. Molec. Sci. 2012 2(1), 73-78
     doi.org/10.1002/wcms.81
  2. Neese, F.
     Software update: the ORCA program system, version 4.0
     WIRES Comput. Molec. Sci. 2018 8(1), 1-6
     doi.org/10.1002/wcms.1327
  3. Neese, F.; Wennmohs, F.; Becker, U.; Riplinger, C.
     The ORCA quantum chemistry program package
     J. Chem. Phys. 2020 152(22), 224108
     doi.org/10.1063/5.0004608
  4. Neese, F.
     Software update: The ORCA program system—Version 5.0
     WIRES Comput. Molec. Sci. 2022 12(1), e1606
     doi.org/10.1002/wcms.1606

List of optional additional citations

  1. Neese, F.
     Approximate second-order SCF convergence for spin unrestricted wavefunctions
     Chem. Phys. Lett. 2000 325(1-3), 93-98
     doi.org/10.1016/s0009-2614(00)00662-x

Timings for individual modules:

Sum of individual times          ...      245.422 sec (=   4.090 min)
Startup calculation              ...       74.461 sec (=   1.241 min)  30.3 %
SCF iterations                   ...       96.588 sec (=   1.610 min)  39.4 %
Property integrals               ...       54.229 sec (=   0.904 min)  22.1 %
SCF Response                     ...       12.630 sec (=   0.211 min)   5.1 %
Property calculations            ...        7.514 sec (=   0.125 min)   3.1 %
                             ****ORCA TERMINATED NORMALLY****
TOTAL RUN TIME: 0 days 0 hours 4 minutes 14 seconds 406 msec
