
                                 *****************
                                 * O   R   C   A *
                                 *****************

                                            #,                                       
                                            ###                                      
                                            ####                                     
                                            #####                                    
                                            ######                                   
                                           ########,                                 
                                     ,,################,,,,,                         
                               ,,#################################,,                 
                          ,,##########################################,,             
                       ,#########################################, ''#####,          
                    ,#############################################,,   '####,        
                  ,##################################################,,,,####,       
                ,###########''''           ''''###############################       
              ,#####''   ,,,,##########,,,,          '''####'''          '####       
            ,##' ,,,,###########################,,,                        '##       
           ' ,,###''''                  '''############,,,                           
         ,,##''                                '''############,,,,        ,,,,,,###''
      ,#''                                            '''#######################'''  
     '                                                          ''''####''''         
             ,#######,   #######,   ,#######,      ##                                
            ,#'     '#,  ##    ##  ,#'     '#,    #''#        ,####,    ,#,          
            ##       ##  ##   ,#'  ##            #'  '#       #'       ,# #          
            ##       ##  #######   ##           ,######,      #####,      #          
            '#,     ,#'  ##    ##  '#,     ,#' ,#      #,     #,   #      #          
             '#######'   ##     ##  '#######'  #'      '#     '####' #    #          



                #########################################################
                #                        -***-                          #
                #          Department of theory and spectroscopy        #
                #                                                       #
                #                      Frank Neese                      #
                #                                                       #
                #     Directorship, Architecture, Infrastructure        #
                #                    SHARK, DRIVERS                     #
                #        Core code/Algorithms in most modules           #
                #                                                       #
                #        Max Planck Institute fuer Kohlenforschung      #
                #                Kaiser Wilhelm Platz 1                 #
                #                 D-45470 Muelheim/Ruhr                 #
                #                      Germany                          #
                #                                                       #
                #                  All rights reserved                  #
                #                        -***-                          #
                #########################################################


                         Program Version 6.1.0-f.0  -   RELEASE   -


 With contributions from (in alphabetic order):
[Max-Planck-Institut fuer Kohlenforschung]                               
  Daniel Aravena         : Magnetic Suceptibility                        
  Michael Atanasov       : Ab Initio Ligand Field Theory (pilot matlab implementation)
  Alexander A. Auer      : GIAO ZORA, VPT2 properties, NMR spectrum      
  Ute Becker             : All parallelization in ORCA, NUMFREQ, NUMCALC 
  Giovanni Bistoni       : ED, misc. LED, open-shell LED, HFLD           
  Dmytro Bykov           : pre 5.0 version of the SCF Hessian            
  Marcos Casanova-Páez   : Triplet and SCS-CIS(D). UHF-(DLPNO)-IP/EA/STEOM-CCSD. UHF-CVS-IP/STEOM-CCSD   
  Vijay G. Chilkuri      : MRCI spin determinant printing, contributions to CSF-ICE 
  Pauline Colinet        : FMM embedding                                 
  Dipayan Datta          : RHF DLPNO-CCSD density                        
  Achintya Kumar Dutta   : EOM-CC, STEOM-CC                              
  Nicolas Foglia         : Exact transition moments, OPA infrastructure, MCD improvements    
  Dmitry Ganyushin       : Spin-Orbit,Spin-Spin,Magnetic field MRCI      
  Miquel Garcia-Rates    : C-PCM and meta-GGA Hessian, CCSD/C-PCM, Gaussian charge scheme 
  Tiago L. C. Gouveia    : GS-ROHF, GS-ROCIS                             
  Yang Guo               : DLPNO-NEVPT2, F12-NEVPT2, CIM, IAO-localization        
  Andreas Hansen         : Spin unrestricted coupled pair/coupled cluster methods 
  Ingolf Harden          : AUTO-CI MPn and infrastructure                
  Benjamin Helmich-Paris : MC-RPA, TRAH-(SCF,CASSCF), AVAS, COSX integrals, SCF dyn. polar., MC-PDFT, srDFT 
  Lee Huntington         : MR-EOM, pCC                                   
  Robert Izsak           : Overlap fitted RIJCOSX, COSX-SCS-MP3, EOM     
  Riya Kayal             : Wick's Theorem for AUTO-CI, AUTO-CI UHF-CCSDT 
  Emily Kempfer          : AUTO-CI RHF CISDT and CCSDT, approximate NEVPT4
  Christian Kollmar      : KDIIS, OOCD, Brueckner-CCSD(T), CCSD density, CASPT2, CASPT2-K, improved NEVPT2 
  Axel Koslowski         : Symmetry handling                             
  Simone Kossmann        : meta-GGA functionals, TD-DFT gradient, OOMP2, (MP2 Hessian; deprecated post 5.0) 
  Lucas Lang             : DCDCAS, Hyperfine gauge corrections, ICE-SOC+SSC
  Marvin Lechner         : AUTO-CI (C++ implementation), FIC-MRCC        
  Spencer Leger          : CASSCF response                               
  Dagmar Lenk            : GEPOL surface, SMD, ORCA-2-JSON               
  Dimitrios Liakos       : Extrapolation schemes; Compound Job, Property file
  Dimitrios Manganas     : Further ROCIS development; embedding schemes. LFT, Crystal Embedding 
  Dimitrios Pantazis     : SARC Basis sets                               
  Anastasios Papadopoulos: AUTO-CI, single reference methods and gradients 
  Taras Petrenko         : pre 6.0 DFT Hessian and TD-DFT gradient,  ECA, NRVS 
  Petra Pikulova         : Analytic Raman intensities                    
  Peter Pinski           : DLPNO-MP2, DLPNO-MP2 Gradient                 
  Shashank Vittal Rao    : ES-AILFT, MagRelax                            
  Christoph Reimann      : Effective Core Potentials                     
  Marius Retegan         : Local ZFS, SOC                                
  Christoph Riplinger    : Optimizer, TS searches, QM/MM, DLPNO-CCSD(T), (RO)-DLPNO pert. Triples 
  Michael Roemelt        : Original ROCIS implementation, recursive CI coupling coefficients
  Masaaki Saitow         : Open-shell DLPNO-CCSD energy and density      
  Barbara Sandhoefer     : DKH picture change effects                    
  Yorick L. A. Schmerwitz: GMF and freeze-and-release deltaSCF, NEB S-IDPP initial path                    
  Kantharuban Sivalingam : CASSCF convergence/infrastructure, NEVPT2, NEVPT3, NEVPT4(SD), FIC-MRCI and CEPA variants
  Bernardo de Souza      : ESD, SOC TD-DFT                               
  Georgi L. Stoychev     : AutoAux, RI-MP2 NMR, DLPNO-MP2 response, X2C  
  Van Anh Tran           : RI-MP2 g-tensors                              
  Willem Van den Heuvel  : Paramagnetic NMR                              
  Zikuan Wang            : NOTCH, Electric field optimization            
  Frank Wennmohs         : Technical directorship and infrastructure     
  Hang Xu                : AUTO-CI-Response properties                   
                                                                         
[FACCTs GmbH]                                                            
  Markus Bursch, Nicolas Foglia, Miquel Garcia-Rates, Ingolf Harden, Hagen Neugebauer, Anastasios Papadopoulos, 
  Christoph Riplinger, Bernardo de Souza, Georgi L. Stoychev                                                    
                                                                 
  APM, various basis sets, CI-OPT, improved COSX, DLPNO-Multilevel,           
  DOCKER, DRACO, updates on ESD, Fragmentator, GOAT, IRC, LR-CPCM, L-BFGS, MBIS, meta-GGA TD-DFT gradient, ML-optimized integration grids, 
  MM, NACMEs, nearIR, NEB, NEB-TS, NL-DFT gradient (VV10), 2- and 3-layer-ONIOM, interface openCOSMO-RS, QMMM,   
  Crystal-QMMM, RESP, rigid body optimization, SF, symmetry and pop. for TD-DFT, various functionals, SOLVATOR                                   
                                                                         
[Other institutions]                                                     
  V. Asgeirsson          : NEB                                           
  Christoph Bannwarth    : sTDA-DFT, sTD-DFT, PBEh-3c, B97-3c, D3        
  Giovanni Bistoni       : ETS/NOCV, ADLD/ADEX, COVALED                  
  Martin Brehm           : Molecular dynamics                            
  Ronald Cardenas        : ETS/NOCV                                      
  Martina Colucci        : COVALED                                       
  Sebastian Ehlert       : rSCAN, r2SCAN, r2SCAN-3c, D4, dhf basis sets  
  Marvin Friede          : D4 for Fr, Ra, Ac-Lr                          
  Lars Goerigk           : TD-DFT with DH, B97 family of functionals     
  Stefan Grimme          : VdW corrections, initial TS optimization, DFT functionals, gCP, sTDA/sTD-DF 
  Waldemar Hujo          : DFT-NL                                        
  H. Jonsson             : NEB                                           
  Holger Kruse           : gCP                                           
  Marcel Mueller         : wB97X-3c, vDZP basis set                      
  Hagen Neugebauer       : wr2SCAN, Native XTB                           
  Gianluca Regni         : ADLD/ADEX                                     
  Tobias Risthaus        : pre 6.0 range-separated hybrid DFT and stability analysis
  Lukas Wittmann         : regularized MP2, r2SCAN double-hybrids, wr2SCAN        
                                                                         
We gratefully acknowledge several colleagues who have allowed us to      
interface, adapt or use parts of their codes:                            
  Ed Valeev, F. Pavosevic, A. Kumar             : LibInt (2-el integral package), F12 methods 
  Garnet Chan, S. Sharma, J. Yang, R. Olivares  : DMRG                   
  Ulf Ekstrom                                   : XCFun DFT Library      
  Mihaly Kallay                                 : mrcc  (arbitrary order and MRCC methods)
  Frank Weinhold                                : gennbo (NPA and NBO analysis)           
  Simon Mueller                                 : openCOSMO-RS                            
  Christopher J. Cramer and Donald G. Truhlar   : smd solvation model                     
  S Lehtola, MJT Oliveira, MAL Marques          : LibXC Library                           
  Liviu Ungur et al                             : ANISO software                          


 Your calculation uses the libint2 library for the computation of 2-el integrals
 For citations please refer to: http://libint.valeyev.net

 Your ORCA version has been built with support for libXC version: 7.0.0
 For citations please refer to: https://libxc.gitlab.io

 This ORCA versions uses:
   CBLAS   interface :  Fast vector & matrix operations
   LAPACKE interface :  Fast linear algebra routines
   SCALAPACK package :  Parallel linear algebra routines
   Shared memory     :  Shared parallel matrices
   BLAS/LAPACK       :  OpenBLAS 0.3.29  USE64BITINT DYNAMIC_ARCH NO_AFFINITY Cooperlake SINGLE_THREADED
        Core in use  :  Cooperlake
   Copyright (c) 2011-2014, The OpenBLAS Project


  ***********************************
  * Starting time: Wed Mar  4 13:40:27 2026
  * Host name:     c02b01n05
  * Process ID:    316252
  * Working dir.:  /lustre1/jiangy/jiangy_liuxy/NMR/B9D7C2-SSRR-NMR/opt_conf
  ***********************************

NOTE: MaxCore=5000 MB was set to SCF,MP2,MDCI,CIPSI,MRCI,RASCI and CIS
      => If you want to overwrite this, your respective input block should be placed after the MaxCore statement


***************************************
The coordinates will be read from file: opt-conf-12.xyz
***************************************



Warning: The global flag for NMR shieldings has been found
         but shieldings for certain elements have also been explicitly requested in the EPRNMR block
         ==>> only the requested shieldings will be calculated

================================================================================

----- Orbital basis set information -----
Your calculation utilizes the basis: pcSseg-2
   F. Jensen, J. Chem. Theory Comput. 11, 132 (2015).

----- AuxJ basis set information -----
Your calculation utilizes the AutoAux generation procedure.
  G. L. Stoychev, A. A. Auer, F. Neese, J. Chem. Theory Comput. 13, 554 (2017)

----- AuxC basis set information -----
Your calculation utilizes the AutoAux generation procedure.
  G. L. Stoychev, A. A. Auer, F. Neese, J. Chem. Theory Comput. 13, 554 (2017)

----- AuxJK basis set information -----
Your calculation utilizes the AutoAux generation procedure.
  G. L. Stoychev, A. A. Auer, F. Neese, J. Chem. Theory Comput. 13, 554 (2017)

----- AuxX basis set information -----
Your calculation utilizes the AutoAux generation procedure.
  G. L. Stoychev, A. A. Auer, F. Neese, J. Chem. Theory Comput. 13, 554 (2017)

================================================================================
                                        WARNINGS
                       Please study these warnings very carefully!
================================================================================


================================================================================
                                       INPUT FILE
================================================================================
NAME = nmr-conf-12.inp
|  1> !TPSS PCSSEG-2 AUTOAUX NMR CPCM(Methanol)
|  2> 
|  3> %pal nprocs 60 end
|  4> %maxcore 5000
|  5> 
|  6> *XYZFILE 0 1 opt-conf-12.xyz
|  7> 
|  8> %EPRNMR
|  9>    NUCLEI = ALL C {SHIFT}
| 10>    NUCLEI = ALL H {SHIFT}
| 11>    TAU DOBSON
| 12> END
| 13> 
| 14> 
| 15>                          ****END OF INPUT****
================================================================================

                       ****************************
                       * Single Point Calculation *
                       ****************************

---------------------------------
CARTESIAN COORDINATES (ANGSTROEM)
---------------------------------
  C     23.141963  -32.765908   -0.472553
  C     23.709536  -33.353105    0.663061
  C     23.018278  -34.372458    1.318480
  C     21.800729  -34.834678    0.828787
  C     21.241359  -34.252987   -0.305534
  C     21.906373  -33.206251   -0.941375
  C     19.923901  -34.741487   -0.852477
  C     18.707760  -33.844478   -0.523732
  C     17.544653  -34.202952   -1.491108
  C     17.695757  -33.505371   -2.880535
  C     18.312897  -32.126250   -2.898094
  C     17.807400  -31.095715   -2.099425
  C     18.432345  -29.863782   -2.053344
  C     19.550793  -29.603428   -2.855754
  C     20.043906  -30.608596   -3.669120
  C     19.436597  -31.863339   -3.675249
  C     18.380861  -33.915987    0.964856
  C     16.117693  -34.112674   -0.935147
  O     23.608021  -34.831417    2.464720
  O     23.869445  -31.775463   -1.050587
  O     24.962184  -33.021467    1.119010
  O     20.153166  -28.379689   -2.837746
  O     18.063639  -28.837849   -1.214703
  C     25.219123  -31.706205    1.644915
  C     24.341197  -31.396171    2.876032
  C     22.901509  -31.077665    2.512702
  C     26.704316  -31.652859    1.965925
  O     27.124782  -32.569524    2.973007
  C     22.650149  -30.037956    1.611353
  C     21.359004  -29.761242    1.194131
  C     20.291776  -30.525599    1.687399
  C     20.531924  -31.511499    2.624867
  C     21.833268  -31.788702    3.035671
  C     23.279515  -31.060292   -2.134706
  C     22.919931  -35.825654    3.227149
  C     16.703744  -28.804294   -0.762732
  O     24.460414  -32.433430    3.848850
  O     17.555436  -32.825610    1.414768
  O     15.655587  -32.816838   -0.558805
  O     21.006597  -28.786153    0.310956
  O     19.012109  -30.297547    1.255281
  C     22.009490  -27.856661   -0.097070
  H     21.276476  -35.635112    1.329443
  H     21.464172  -32.753087   -1.816644
  H     19.724635  -35.752115   -0.484460
  H     20.004120  -34.815034   -1.939126
  H     19.013336  -32.813808   -0.708690
  H     17.641285  -35.277099   -1.692623
  H     16.704307  -33.470633   -3.342832
  H     18.303483  -34.141491   -3.526204
  H     16.944780  -31.289756   -1.480505
  H     20.909888  -30.407001   -4.287035
  H     19.854038  -32.647944   -4.294835
  H     17.841046  -34.829732    1.217905
  H     19.311152  -33.914489    1.536571
  H     15.435602  -34.467242   -1.711020
  H     16.020114  -34.797560   -0.085531
  H     19.660909  -27.809312   -2.228382
  H     25.025176  -30.958476    0.875190
  H     24.778076  -30.509070    3.343787
  H     27.271814  -31.886785    1.063295
  H     26.939815  -30.621596    2.256616
  H     26.408282  -32.624436    3.626677
  H     23.471241  -29.455638    1.218980
  H     19.698124  -32.071821    3.026823
  H     22.003419  -32.580228    3.750806
  H     23.114957  -31.713526   -2.994662
  H     22.331334  -30.612480   -1.834652
  H     23.989267  -30.280175   -2.398605
  H     21.942192  -35.462256    3.550216
  H     22.799967  -36.743657    2.648875
  H     23.546691  -36.018187    4.094152
  H     16.019842  -28.863147   -1.611517
  H     16.498142  -29.621519   -0.069317
  H     16.583292  -27.853287   -0.250008
  H     24.208373  -33.280408    3.433958
  H     18.041260  -31.992150    1.286539
  H     16.171373  -32.588243    0.237945
  H     19.011595  -29.619394    0.556602
  H     21.503558  -27.115402   -0.708313
  H     22.461791  -27.373295    0.771986
  H     22.784071  -28.349225   -0.687635

----------------------------
CARTESIAN COORDINATES (A.U.)
----------------------------
  NO LB      ZA    FRAG     MASS         X           Y           Z
   0 C     6.0000    0    12.011   43.731973  -61.918592   -0.892996
   1 C     6.0000    0    12.011   44.804531  -63.028234    1.253004
   2 C     6.0000    0    12.011   43.498242  -64.954532    2.491566
   3 C     6.0000    0    12.011   41.197408  -65.828001    1.566181
   4 C     6.0000    0    12.011   40.140352  -64.728765   -0.577375
   5 C     6.0000    0    12.011   41.397045  -62.750721   -1.778941
   6 C     6.0000    0    12.011   37.650717  -65.651896   -1.610947
   7 C     6.0000    0    12.011   35.352542  -63.956795   -0.989711
   8 C     6.0000    0    12.011   33.154589  -64.634211   -2.817786
   9 C     6.0000    0    12.011   33.440135  -63.315974   -5.443423
  10 C     6.0000    0    12.011   34.606361  -60.709814   -5.476604
  11 C     6.0000    0    12.011   33.651109  -58.762385   -3.967339
  12 C     6.0000    0    12.011   34.832085  -56.434369   -3.880257
  13 C     6.0000    0    12.011   36.945645  -55.942371   -5.396592
  14 C     6.0000    0    12.011   37.877494  -57.841863   -6.933633
  15 C     6.0000    0    12.011   36.729846  -60.212985   -6.945215
  16 C     6.0000    0    12.011   34.734794  -64.091928    1.823313
  17 C     6.0000    0    12.011   30.458025  -64.463611   -1.767172
  18 O     8.0000    0    15.999   44.612695  -65.821839    4.657646
  19 O     8.0000    0    15.999   45.106714  -60.046922   -1.985321
  20 O     8.0000    0    15.999   47.171692  -62.401529    2.114622
  21 O     8.0000    0    15.999   38.083965  -53.629840   -5.362562
  22 O     8.0000    0    15.999   34.135331  -54.495638   -2.295455
  23 C     6.0000    0    12.011   47.657236  -59.916045    3.108439
  24 C     6.0000    0    12.011   45.998196  -59.330165    5.434913
  25 C     6.0000    0    12.011   43.277581  -58.728275    4.748319
  26 C     6.0000    0    12.011   50.463844  -59.815235    3.715061
  27 O     8.0000    0    15.999   51.258409  -61.547481    5.618169
  28 C     6.0000    0    12.011   42.802579  -56.763511    3.045017
  29 C     6.0000    0    12.011   40.362668  -56.240596    2.256580
  30 C     6.0000    0    12.011   38.345900  -57.685023    3.188721
  31 C     6.0000    0    12.011   38.799713  -59.548103    4.960279
  32 C     6.0000    0    12.011   41.258898  -60.071942    5.736586
  33 C     6.0000    0    12.011   43.991908  -58.695446   -4.034009
  34 C     6.0000    0    12.011   43.312392  -67.700674    6.098428
  35 C     6.0000    0    12.011   31.565502  -54.432228   -1.441354
  36 O     8.0000    0    15.999   46.223483  -61.290301    7.273272
  37 O     8.0000    0    15.999   33.174965  -62.031413    2.673525
  38 O     8.0000    0    15.999   29.584773  -62.014836   -1.055988
  39 O     8.0000    0    15.999   39.696715  -54.397945    0.587622
  40 O     8.0000    0    15.999   35.927679  -57.254067    2.372137
  41 C     6.0000    0    12.011   41.591908  -52.641461   -0.183436
  42 H     1.0000    0     1.008   40.206713  -67.340602    2.512283
  43 H     1.0000    0     1.008   40.561407  -61.894365   -3.432959
  44 H     1.0000    0     1.008   37.274159  -67.561706   -0.915497
  45 H     1.0000    0     1.008   37.802308  -65.790880   -3.664416
  46 H     1.0000    0     1.008   35.929997  -62.009110   -1.339229
  47 H     1.0000    0     1.008   33.337197  -66.664056   -3.198593
  48 H     1.0000    0     1.008   31.566566  -63.250331   -6.317037
  49 H     1.0000    0     1.008   34.588570  -64.518068   -6.663560
  50 H     1.0000    0     1.008   32.020994  -59.129070   -2.797749
  51 H     1.0000    0     1.008   39.513963  -57.460904   -8.101323
  52 H     1.0000    0     1.008   37.518694  -61.695673   -8.116061
  53 H     1.0000    0     1.008   33.714691  -65.818654    2.301507
  54 H     1.0000    0     1.008   36.492788  -64.089096    2.903698
  55 H     1.0000    0     1.008   29.169061  -65.133648   -3.233360
  56 H     1.0000    0     1.008   30.273628  -65.757859   -0.161631
  57 H     1.0000    0     1.008   37.153733  -52.551984   -4.211032
  58 H     1.0000    0     1.008   47.290730  -58.503040    1.653870
  59 H     1.0000    0     1.008   46.823779  -57.653786    6.318841
  60 H     1.0000    0     1.008   51.536259  -60.257292    2.009336
  61 H     1.0000    0     1.008   50.908873  -57.866431    4.264386
  62 H     1.0000    0     1.008   49.904421  -61.651249    6.853427
  63 H     1.0000    0     1.008   44.354217  -55.663088    2.303539
  64 H     1.0000    0     1.008   37.224059  -60.606958    5.719867
  65 H     1.0000    0     1.008   41.580437  -61.567708    7.087996
  66 H     1.0000    0     1.008   43.680938  -59.929880   -5.659091
  67 H     1.0000    0     1.008   42.200106  -57.849203   -3.466990
  68 H     1.0000    0     1.008   45.333145  -57.221238   -4.532707
  69 H     1.0000    0     1.008   41.464733  -67.013951    6.708937
  70 H     1.0000    0     1.008   43.085693  -69.435448    5.005649
  71 H     1.0000    0     1.008   44.496797  -68.064509    7.736826
  72 H     1.0000    0     1.008   30.273113  -54.543443   -3.045326
  73 H     1.0000    0     1.008   31.176970  -55.976558   -0.130990
  74 H     1.0000    0     1.008   31.337880  -52.635084   -0.472446
  75 H     1.0000    0     1.008   45.747195  -62.890856    6.489240
  76 H     1.0000    0     1.008   34.093040  -60.456402    2.431207
  77 H     1.0000    0     1.008   30.559466  -61.582855    0.449650
  78 H     1.0000    0     1.008   35.926709  -55.972542    1.051825
  79 H     1.0000    0     1.008   40.635835  -51.240684   -1.338517
  80 H     1.0000    0     1.008   42.446633  -51.728030    1.458843
  81 H     1.0000    0     1.008   43.055654  -53.572271   -1.299441

--------------------------------
INTERNAL COORDINATES (ANGSTROEM)
--------------------------------
 C      0   0   0     0.000000000000     0.00000000     0.00000000
 C      1   0   0     1.398771104157     0.00000000     0.00000000
 C      2   1   0     1.395167693616   119.14811701     0.00000000
 C      3   2   1     1.391355840644   120.72743381     2.13757493
 C      4   3   2     1.392100450940   119.97290925   358.16637975
 C      1   2   3     1.392975336456   120.03033682   359.54745005
 C      5   4   3     1.507804141313   120.74960395   179.90503437
 C      7   5   4     1.546511411842   114.96600987   102.55269942
 C      8   7   5     1.554714366508   108.80201118   162.40701243
 C      9   8   7     1.562037260367   112.21755308   278.39821484
 C     10   9   8     1.511007477231   117.22270252   325.90886001
 C     11  10   9     1.398356911639   121.22195293   306.37644283
 C     12  11  10     1.382150493229   120.82762445   175.59219613
 C     13  12  11     1.400918008162   120.49982859     3.00858349
 C     14  13  12     1.383867246375   119.08731188   358.27124395
 C     11  10   9     1.391328145384   120.58574425   123.86738280
 C      8   7   5     1.525735987384   110.40766742   290.58195201
 C      9   8   7     1.534098226284   117.18122993   145.66916799
 O      3   2   1     1.368322728587   115.15404336   183.84888823
 O      1   2   3     1.358062156106   115.74432422   179.59477331
 O      2   1   3     1.373680672714   122.55699513   176.06588451
 O     14  13  12     1.364080137334   120.77844789   178.47115470
 O     13  12  11     1.375427307787   124.32972657   185.51388918
 C     21   2   1     1.439620595589   120.30292607    66.85224880
 C     24  21   2     1.543542813422   111.92310750    60.54755614
 C     25  24  21     1.518603072203   112.98674147   284.28934855
 C     24  21   2     1.520425055073   106.47068877   183.66172045
 O     27  24  21     1.425229409360   114.50679972   296.87429785
 C     26  25  24     1.398787178809   118.71318262   303.87784640
 C     29  26  25     1.384811191344   120.67791256   176.37628453
 C     30  29  26     1.402330595938   119.64812246     0.43040846
 C     31  30  29     1.381490225987   119.69507331     2.58465534
 C     26  25  24     1.385716146531   122.20302722   123.35455828
 C     20   1   2     1.426464538036   117.87805337   185.75149382
 C     19   3   2     1.429430621152   118.20567445   176.70427099
 C     23  13  12     1.433428479935   117.64738727   334.32196522
 O     25  24  21     1.427057782143   110.49980078    52.34176725
 O     17   8   7     1.439677594918   113.09427598   161.97441782
 O     18   9   8     1.426312052689   116.77232040    64.88867299
 O     30  29  26     1.361979089829   125.42750265   180.82624955
 O     31  30  29     1.369774323581   120.61481374   182.12731536
 C     40  30  29     1.426966705699   118.02841874   351.49155908
 H      4   3   2     1.079903774479   120.52307122   178.97439177
 H      6   1   2     1.080275075060   120.21030184   179.84190083
 H      7   5   4     1.093852145201   109.66149968   339.69874060
 H      7   5   4     1.092085356392   108.57665212   223.56952713
 H      8   7   5     1.090810717312   106.96009834    45.06034845
 H      9   8   7     1.097150075737   105.91021719    32.88292857
 H     10   9   8     1.094485102507   107.59321406   201.87824850
 H     10   9   8     1.091268970165   108.65303218    87.71247272
 H     12  11  10     1.079271599725   118.94446131   358.43083715
 H     15  14  13     1.082767068688   119.02362542   180.15049365
 H     16  11  10     1.083395869044   119.58964916     1.79287259
 H     17   8   7     1.091037564806   111.81113995   281.73301907
 H     17   8   7     1.091925493785   109.16147297    40.58608209
 H     18   9   8     1.092220260714   107.71872267   184.26093483
 H     18   9   8     1.095645026990   109.09159952   300.06578818
 H     22  14  13     0.969005277685   108.18167590   358.69613329
 H     24  21   2     1.090500606263   109.68516346   299.54810522
 H     25  24  21     1.093895424883   106.06842108   166.02309756
 H     27  24  21     1.091566181667   109.01032865    56.72594041
 H     27  24  21     1.097025059763   107.37503649   173.48363891
 H     28  27  24     0.971427788638   107.11172994   323.87658573
 H     29  26  25     1.080390215865   119.87309298   357.63215938
 H     32  31  30     1.082013283044   119.18942111   177.77480872
 H     33  26  25     1.080223283260   120.29184686     1.95327613
 H     34  20   1     1.092391553359   111.14851337   295.15599781
 H     34  20   1     1.090694361174   110.87249373    56.99168972
 H     34  20   1     1.087186271574   105.91715812   176.12186846
 H     35  19   3     1.091972448583   110.93746877   300.56893593
 H     35  19   3     1.091568313151   110.81118522    62.76490122
 H     35  19   3     1.087010345309   105.72770201   181.54998679
 H     36  23  13     1.091615052879   110.36116494   307.69667478
 H     36  23  13     1.091307533828   111.19551622    69.56099933
 H     36  23  13     1.087111018522   105.92068095   188.49104583
 H     37  25  24     0.976232880728   108.62248726   302.59937981
 H     38  17   8     0.973202737448   108.73763746   297.45686185
 H     39  18   9     0.976267911867   104.88623712   290.17648106
 H     41  31  30     0.973676030321   110.04871356     4.26770361
 H     42  40  30     1.085840838810   106.15056533   185.74828104
 H     42  40  30     1.092464420984   110.59244694   304.79032161
 H     42  40  30     1.091494591238   111.07040850    66.77700733

---------------------------
INTERNAL COORDINATES (A.U.)
---------------------------
 C      0   0   0     0.000000000000     0.00000000     0.00000000
 C      1   0   0     2.643294310899     0.00000000     0.00000000
 C      2   1   0     2.636484851830   119.14811701     0.00000000
 C      3   2   1     2.629281493648   120.72743381     2.13757493
 C      4   3   2     2.630688603185   119.97290925   358.16637975
 C      1   2   3     2.632341897209   120.03033682   359.54745005
 C      5   4   3     2.849336890673   120.74960395   179.90503437
 C      7   5   4     2.922483031365   114.96600987   102.55269942
 C      8   7   5     2.937984369173   108.80201118   162.40701243
 C      9   8   7     2.951822633073   112.21755308   278.39821484
 C     10   9   8     2.855390318274   117.22270252   325.90886001
 C     11  10   9     2.642511600474   121.22195293   306.37644283
 C     12  11  10     2.611885908067   120.82762445   175.59219613
 C     13  12  11     2.647351371505   120.49982859     3.00858349
 C     14  13  12     2.615130101353   119.08731188   358.27124395
 C     11  10   9     2.629229157192   120.58574425   123.86738280
 C      8   7   5     2.883223168823   110.40766742   290.58195201
 C      9   8   7     2.899025510210   117.18122993   145.66916799
 O      3   2   1     2.585755219849   115.15404336   183.84888823
 O      1   2   3     2.566365547883   115.74432422   179.59477331
 O      2   1   3     2.595880266889   122.55699513   176.06588451
 O     14  13  12     2.577737884283   120.77844789   178.47115470
 O     13  12  11     2.599180928835   124.32972657   185.51388918
 C     21   2   1     2.720488662416   120.30292607    66.85224880
 C     24  21   2     2.916873193350   111.92310750    60.54755614
 C     25  24  21     2.869743912594   112.98674147   284.28934855
 C     24  21   2     2.873186961241   106.47068877   183.66172045
 O     27  24  21     2.693293261700   114.50679972   296.87429785
 C     26  25  24     2.643324687589   118.71318262   303.87784640
 C     29  26  25     2.616913898829   120.67791256   176.37628453
 C     30  29  26     2.650020775541   119.64812246     0.43040846
 C     31  30  29     2.610638183805   119.69507331     2.58465534
 C     26  25  24     2.618624016296   122.20302722   123.35455828
 C     20   1   2     2.695627316638   117.87805337   185.75149382
 C     19   3   2     2.701232401418   118.20567445   176.70427099
 C     23  13  12     2.708787259641   117.64738727   334.32196522
 O     25  24  21     2.696748385531   110.49980078    52.34176725
 O     17   8   7     2.720596375537   113.09427598   161.97441782
 O     18   9   8     2.695339161092   116.77232040    64.88867299
 O     30  29  26     2.573767479904   125.42750265   180.82624955
 O     31  30  29     2.588498336844   120.61481374   182.12731536
 C     40  30  29     2.696576275996   118.02841874   351.49155908
 H      4   3   2     2.040722384754   120.52307122   178.97439177
 H      6   1   2     2.041424041164   120.21030184   179.84190083
 H      7   5   4     2.067080985432   109.66149968   339.69874060
 H      7   5   4     2.063742238448   108.57665212   223.56952713
 H      8   7   5     2.061333519666   106.96009834    45.06034845
 H      9   8   7     2.073313170954   105.91021719    32.88292857
 H     10   9   8     2.068277101394   107.59321406   201.87824850
 H     10   9   8     2.062199492058   108.65303218    87.71247272
 H     12  11  10     2.039527747599   118.94446131   358.43083715
 H     15  14  13     2.046133226650   119.02362542   180.15049365
 H     16  11  10     2.047321487115   119.58964916     1.79287259
 H     17   8   7     2.061762199304   111.81113995   281.73301907
 H     17   8   7     2.063440141901   109.16147297    40.58608209
 H     18   9   8     2.063997170669   107.71872267   184.26093483
 H     18   9   8     2.070469041003   109.09159952   300.06578818
 H     22  14  13     1.831154597150   108.18167590   358.69613329
 H     24  21   2     2.060747494713   109.68516346   299.54810522
 H     25  24  21     2.067162772178   106.06842108   166.02309756
 H     27  24  21     2.062761140400   109.01032865    56.72594041
 H     27  24  21     2.073076925001   107.37503649   173.48363891
 H     28  27  24     1.835732479407   107.11172994   323.87658573
 H     29  26  25     2.041641625753   119.87309298   357.63215938
 H     32  31  30     2.044708778218   119.18942111   177.77480872
 H     33  26  25     2.041326168848   120.29184686     1.95327613
 H     34  20   1     2.064320866857   111.14851337   295.15599781
 H     34  20   1     2.061113638431   110.87249373    56.99168972
 H     34  20   1     2.054484309835   105.91715812   176.12186846
 H     35  19   3     2.063528873610   110.93746877   300.56893593
 H     35  19   3     2.062765168323   110.81118522    62.76490122
 H     35  19   3     2.054151857373   105.72770201   181.54998679
 H     36  23  13     2.062853493608   110.36116494   307.69667478
 H     36  23  13     2.062272366821   111.19551622    69.56099933
 H     36  23  13     2.054342102175   105.92068095   188.49104583
 H     37  25  24     1.844812787505   108.62248726   302.59937981
 H     38  17   8     1.839086646560   108.73763746   297.45686185
 H     39  18   9     1.844878986765   104.88623712   290.17648106
 H     41  31  30     1.839981040470   110.04871356     4.26770361
 H     42  40  30     2.051941810378   106.15056533   185.74828104
 H     42  40  30     2.064458566713   110.59244694   304.79032161
 H     42  40  30     2.062625854097   111.07040850    66.77700733

---------------------
BASIS SET INFORMATION
---------------------
There are 3 groups of distinct atoms

 Group   1 Type C   : 11s7p2d1f contracted to 4s5p2d1f pattern {7211/31111/11/1}
 Group   2 Type O   : 11s7p2d1f contracted to 4s5p2d1f pattern {7211/31111/11/1}
 Group   3 Type H   : 6s3p1d contracted to 3s2p1d pattern {411/21/1}

Atom   0C    basis set group =>   1
Atom   1C    basis set group =>   1
Atom   2C    basis set group =>   1
Atom   3C    basis set group =>   1
Atom   4C    basis set group =>   1
Atom   5C    basis set group =>   1
Atom   6C    basis set group =>   1
Atom   7C    basis set group =>   1
Atom   8C    basis set group =>   1
Atom   9C    basis set group =>   1
Atom  10C    basis set group =>   1
Atom  11C    basis set group =>   1
Atom  12C    basis set group =>   1
Atom  13C    basis set group =>   1
Atom  14C    basis set group =>   1
Atom  15C    basis set group =>   1
Atom  16C    basis set group =>   1
Atom  17C    basis set group =>   1
Atom  18O    basis set group =>   2
Atom  19O    basis set group =>   2
Atom  20O    basis set group =>   2
Atom  21O    basis set group =>   2
Atom  22O    basis set group =>   2
Atom  23C    basis set group =>   1
Atom  24C    basis set group =>   1
Atom  25C    basis set group =>   1
Atom  26C    basis set group =>   1
Atom  27O    basis set group =>   2
Atom  28C    basis set group =>   1
Atom  29C    basis set group =>   1
Atom  30C    basis set group =>   1
Atom  31C    basis set group =>   1
Atom  32C    basis set group =>   1
Atom  33C    basis set group =>   1
Atom  34C    basis set group =>   1
Atom  35C    basis set group =>   1
Atom  36O    basis set group =>   2
Atom  37O    basis set group =>   2
Atom  38O    basis set group =>   2
Atom  39O    basis set group =>   2
Atom  40O    basis set group =>   2
Atom  41C    basis set group =>   1
Atom  42H    basis set group =>   3
Atom  43H    basis set group =>   3
Atom  44H    basis set group =>   3
Atom  45H    basis set group =>   3
Atom  46H    basis set group =>   3
Atom  47H    basis set group =>   3
Atom  48H    basis set group =>   3
Atom  49H    basis set group =>   3
Atom  50H    basis set group =>   3
Atom  51H    basis set group =>   3
Atom  52H    basis set group =>   3
Atom  53H    basis set group =>   3
Atom  54H    basis set group =>   3
Atom  55H    basis set group =>   3
Atom  56H    basis set group =>   3
Atom  57H    basis set group =>   3
Atom  58H    basis set group =>   3
Atom  59H    basis set group =>   3
Atom  60H    basis set group =>   3
Atom  61H    basis set group =>   3
Atom  62H    basis set group =>   3
Atom  63H    basis set group =>   3
Atom  64H    basis set group =>   3
Atom  65H    basis set group =>   3
Atom  66H    basis set group =>   3
Atom  67H    basis set group =>   3
Atom  68H    basis set group =>   3
Atom  69H    basis set group =>   3
Atom  70H    basis set group =>   3
Atom  71H    basis set group =>   3
Atom  72H    basis set group =>   3
Atom  73H    basis set group =>   3
Atom  74H    basis set group =>   3
Atom  75H    basis set group =>   3
Atom  76H    basis set group =>   3
Atom  77H    basis set group =>   3
Atom  78H    basis set group =>   3
Atom  79H    basis set group =>   3
Atom  80H    basis set group =>   3
Atom  81H    basis set group =>   3
---------------------------------
AUXILIARY/J BASIS SET INFORMATION
---------------------------------
There are 3 groups of distinct atoms

 Group   1 Type C   : 15s13p12d5f5g contracted to 15s13p12d5f5g pattern {111111111111111/1111111111111/111111111111/11111/11111}
 Group   2 Type O   : 15s13p12d5f5g contracted to 15s13p12d5f5g pattern {111111111111111/1111111111111/111111111111/11111/11111}
 Group   3 Type H   : 12s4p3d2f contracted to 12s4p3d2f pattern {111111111111/1111/111/11}

Atom   0C    basis set group =>   1
Atom   1C    basis set group =>   1
Atom   2C    basis set group =>   1
Atom   3C    basis set group =>   1
Atom   4C    basis set group =>   1
Atom   5C    basis set group =>   1
Atom   6C    basis set group =>   1
Atom   7C    basis set group =>   1
Atom   8C    basis set group =>   1
Atom   9C    basis set group =>   1
Atom  10C    basis set group =>   1
Atom  11C    basis set group =>   1
Atom  12C    basis set group =>   1
Atom  13C    basis set group =>   1
Atom  14C    basis set group =>   1
Atom  15C    basis set group =>   1
Atom  16C    basis set group =>   1
Atom  17C    basis set group =>   1
Atom  18O    basis set group =>   2
Atom  19O    basis set group =>   2
Atom  20O    basis set group =>   2
Atom  21O    basis set group =>   2
Atom  22O    basis set group =>   2
Atom  23C    basis set group =>   1
Atom  24C    basis set group =>   1
Atom  25C    basis set group =>   1
Atom  26C    basis set group =>   1
Atom  27O    basis set group =>   2
Atom  28C    basis set group =>   1
Atom  29C    basis set group =>   1
Atom  30C    basis set group =>   1
Atom  31C    basis set group =>   1
Atom  32C    basis set group =>   1
Atom  33C    basis set group =>   1
Atom  34C    basis set group =>   1
Atom  35C    basis set group =>   1
Atom  36O    basis set group =>   2
Atom  37O    basis set group =>   2
Atom  38O    basis set group =>   2
Atom  39O    basis set group =>   2
Atom  40O    basis set group =>   2
Atom  41C    basis set group =>   1
Atom  42H    basis set group =>   3
Atom  43H    basis set group =>   3
Atom  44H    basis set group =>   3
Atom  45H    basis set group =>   3
Atom  46H    basis set group =>   3
Atom  47H    basis set group =>   3
Atom  48H    basis set group =>   3
Atom  49H    basis set group =>   3
Atom  50H    basis set group =>   3
Atom  51H    basis set group =>   3
Atom  52H    basis set group =>   3
Atom  53H    basis set group =>   3
Atom  54H    basis set group =>   3
Atom  55H    basis set group =>   3
Atom  56H    basis set group =>   3
Atom  57H    basis set group =>   3
Atom  58H    basis set group =>   3
Atom  59H    basis set group =>   3
Atom  60H    basis set group =>   3
Atom  61H    basis set group =>   3
Atom  62H    basis set group =>   3
Atom  63H    basis set group =>   3
Atom  64H    basis set group =>   3
Atom  65H    basis set group =>   3
Atom  66H    basis set group =>   3
Atom  67H    basis set group =>   3
Atom  68H    basis set group =>   3
Atom  69H    basis set group =>   3
Atom  70H    basis set group =>   3
Atom  71H    basis set group =>   3
Atom  72H    basis set group =>   3
Atom  73H    basis set group =>   3
Atom  74H    basis set group =>   3
Atom  75H    basis set group =>   3
Atom  76H    basis set group =>   3
Atom  77H    basis set group =>   3
Atom  78H    basis set group =>   3
Atom  79H    basis set group =>   3
Atom  80H    basis set group =>   3
Atom  81H    basis set group =>   3
---------------------------------
AUXILIARY/C BASIS SET INFORMATION
---------------------------------
There are 3 groups of distinct atoms

 Group   1 Type C   : 15s13p12d5f5g contracted to 15s13p12d5f5g pattern {111111111111111/1111111111111/111111111111/11111/11111}
 Group   2 Type O   : 15s13p12d5f5g contracted to 15s13p12d5f5g pattern {111111111111111/1111111111111/111111111111/11111/11111}
 Group   3 Type H   : 12s4p3d2f contracted to 12s4p3d2f pattern {111111111111/1111/111/11}

Atom   0C    basis set group =>   1
Atom   1C    basis set group =>   1
Atom   2C    basis set group =>   1
Atom   3C    basis set group =>   1
Atom   4C    basis set group =>   1
Atom   5C    basis set group =>   1
Atom   6C    basis set group =>   1
Atom   7C    basis set group =>   1
Atom   8C    basis set group =>   1
Atom   9C    basis set group =>   1
Atom  10C    basis set group =>   1
Atom  11C    basis set group =>   1
Atom  12C    basis set group =>   1
Atom  13C    basis set group =>   1
Atom  14C    basis set group =>   1
Atom  15C    basis set group =>   1
Atom  16C    basis set group =>   1
Atom  17C    basis set group =>   1
Atom  18O    basis set group =>   2
Atom  19O    basis set group =>   2
Atom  20O    basis set group =>   2
Atom  21O    basis set group =>   2
Atom  22O    basis set group =>   2
Atom  23C    basis set group =>   1
Atom  24C    basis set group =>   1
Atom  25C    basis set group =>   1
Atom  26C    basis set group =>   1
Atom  27O    basis set group =>   2
Atom  28C    basis set group =>   1
Atom  29C    basis set group =>   1
Atom  30C    basis set group =>   1
Atom  31C    basis set group =>   1
Atom  32C    basis set group =>   1
Atom  33C    basis set group =>   1
Atom  34C    basis set group =>   1
Atom  35C    basis set group =>   1
Atom  36O    basis set group =>   2
Atom  37O    basis set group =>   2
Atom  38O    basis set group =>   2
Atom  39O    basis set group =>   2
Atom  40O    basis set group =>   2
Atom  41C    basis set group =>   1
Atom  42H    basis set group =>   3
Atom  43H    basis set group =>   3
Atom  44H    basis set group =>   3
Atom  45H    basis set group =>   3
Atom  46H    basis set group =>   3
Atom  47H    basis set group =>   3
Atom  48H    basis set group =>   3
Atom  49H    basis set group =>   3
Atom  50H    basis set group =>   3
Atom  51H    basis set group =>   3
Atom  52H    basis set group =>   3
Atom  53H    basis set group =>   3
Atom  54H    basis set group =>   3
Atom  55H    basis set group =>   3
Atom  56H    basis set group =>   3
Atom  57H    basis set group =>   3
Atom  58H    basis set group =>   3
Atom  59H    basis set group =>   3
Atom  60H    basis set group =>   3
Atom  61H    basis set group =>   3
Atom  62H    basis set group =>   3
Atom  63H    basis set group =>   3
Atom  64H    basis set group =>   3
Atom  65H    basis set group =>   3
Atom  66H    basis set group =>   3
Atom  67H    basis set group =>   3
Atom  68H    basis set group =>   3
Atom  69H    basis set group =>   3
Atom  70H    basis set group =>   3
Atom  71H    basis set group =>   3
Atom  72H    basis set group =>   3
Atom  73H    basis set group =>   3
Atom  74H    basis set group =>   3
Atom  75H    basis set group =>   3
Atom  76H    basis set group =>   3
Atom  77H    basis set group =>   3
Atom  78H    basis set group =>   3
Atom  79H    basis set group =>   3
Atom  80H    basis set group =>   3
Atom  81H    basis set group =>   3
----------------------------------
AUXILIARY/JK BASIS SET INFORMATION
----------------------------------
There are 3 groups of distinct atoms

 Group   1 Type C   : 15s13p12d5f5g contracted to 15s13p12d5f5g pattern {111111111111111/1111111111111/111111111111/11111/11111}
 Group   2 Type O   : 15s13p12d5f5g contracted to 15s13p12d5f5g pattern {111111111111111/1111111111111/111111111111/11111/11111}
 Group   3 Type H   : 12s4p3d2f contracted to 12s4p3d2f pattern {111111111111/1111/111/11}

Atom   0C    basis set group =>   1
Atom   1C    basis set group =>   1
Atom   2C    basis set group =>   1
Atom   3C    basis set group =>   1
Atom   4C    basis set group =>   1
Atom   5C    basis set group =>   1
Atom   6C    basis set group =>   1
Atom   7C    basis set group =>   1
Atom   8C    basis set group =>   1
Atom   9C    basis set group =>   1
Atom  10C    basis set group =>   1
Atom  11C    basis set group =>   1
Atom  12C    basis set group =>   1
Atom  13C    basis set group =>   1
Atom  14C    basis set group =>   1
Atom  15C    basis set group =>   1
Atom  16C    basis set group =>   1
Atom  17C    basis set group =>   1
Atom  18O    basis set group =>   2
Atom  19O    basis set group =>   2
Atom  20O    basis set group =>   2
Atom  21O    basis set group =>   2
Atom  22O    basis set group =>   2
Atom  23C    basis set group =>   1
Atom  24C    basis set group =>   1
Atom  25C    basis set group =>   1
Atom  26C    basis set group =>   1
Atom  27O    basis set group =>   2
Atom  28C    basis set group =>   1
Atom  29C    basis set group =>   1
Atom  30C    basis set group =>   1
Atom  31C    basis set group =>   1
Atom  32C    basis set group =>   1
Atom  33C    basis set group =>   1
Atom  34C    basis set group =>   1
Atom  35C    basis set group =>   1
Atom  36O    basis set group =>   2
Atom  37O    basis set group =>   2
Atom  38O    basis set group =>   2
Atom  39O    basis set group =>   2
Atom  40O    basis set group =>   2
Atom  41C    basis set group =>   1
Atom  42H    basis set group =>   3
Atom  43H    basis set group =>   3
Atom  44H    basis set group =>   3
Atom  45H    basis set group =>   3
Atom  46H    basis set group =>   3
Atom  47H    basis set group =>   3
Atom  48H    basis set group =>   3
Atom  49H    basis set group =>   3
Atom  50H    basis set group =>   3
Atom  51H    basis set group =>   3
Atom  52H    basis set group =>   3
Atom  53H    basis set group =>   3
Atom  54H    basis set group =>   3
Atom  55H    basis set group =>   3
Atom  56H    basis set group =>   3
Atom  57H    basis set group =>   3
Atom  58H    basis set group =>   3
Atom  59H    basis set group =>   3
Atom  60H    basis set group =>   3
Atom  61H    basis set group =>   3
Atom  62H    basis set group =>   3
Atom  63H    basis set group =>   3
Atom  64H    basis set group =>   3
Atom  65H    basis set group =>   3
Atom  66H    basis set group =>   3
Atom  67H    basis set group =>   3
Atom  68H    basis set group =>   3
Atom  69H    basis set group =>   3
Atom  70H    basis set group =>   3
Atom  71H    basis set group =>   3
Atom  72H    basis set group =>   3
Atom  73H    basis set group =>   3
Atom  74H    basis set group =>   3
Atom  75H    basis set group =>   3
Atom  76H    basis set group =>   3
Atom  77H    basis set group =>   3
Atom  78H    basis set group =>   3
Atom  79H    basis set group =>   3
Atom  80H    basis set group =>   3
Atom  81H    basis set group =>   3
---------------------------------
AUXILIARY/X BASIS SET INFORMATION
---------------------------------
There are 3 groups of distinct atoms

 Group   1 Type C   : 15s13p12d5f5g contracted to 15s13p12d5f5g pattern {111111111111111/1111111111111/111111111111/11111/11111}
 Group   2 Type O   : 15s13p12d5f5g contracted to 15s13p12d5f5g pattern {111111111111111/1111111111111/111111111111/11111/11111}
 Group   3 Type H   : 12s4p3d2f contracted to 12s4p3d2f pattern {111111111111/1111/111/11}

Atom   0C    basis set group =>   1
Atom   1C    basis set group =>   1
Atom   2C    basis set group =>   1
Atom   3C    basis set group =>   1
Atom   4C    basis set group =>   1
Atom   5C    basis set group =>   1
Atom   6C    basis set group =>   1
Atom   7C    basis set group =>   1
Atom   8C    basis set group =>   1
Atom   9C    basis set group =>   1
Atom  10C    basis set group =>   1
Atom  11C    basis set group =>   1
Atom  12C    basis set group =>   1
Atom  13C    basis set group =>   1
Atom  14C    basis set group =>   1
Atom  15C    basis set group =>   1
Atom  16C    basis set group =>   1
Atom  17C    basis set group =>   1
Atom  18O    basis set group =>   2
Atom  19O    basis set group =>   2
Atom  20O    basis set group =>   2
Atom  21O    basis set group =>   2
Atom  22O    basis set group =>   2
Atom  23C    basis set group =>   1
Atom  24C    basis set group =>   1
Atom  25C    basis set group =>   1
Atom  26C    basis set group =>   1
Atom  27O    basis set group =>   2
Atom  28C    basis set group =>   1
Atom  29C    basis set group =>   1
Atom  30C    basis set group =>   1
Atom  31C    basis set group =>   1
Atom  32C    basis set group =>   1
Atom  33C    basis set group =>   1
Atom  34C    basis set group =>   1
Atom  35C    basis set group =>   1
Atom  36O    basis set group =>   2
Atom  37O    basis set group =>   2
Atom  38O    basis set group =>   2
Atom  39O    basis set group =>   2
Atom  40O    basis set group =>   2
Atom  41C    basis set group =>   1
Atom  42H    basis set group =>   3
Atom  43H    basis set group =>   3
Atom  44H    basis set group =>   3
Atom  45H    basis set group =>   3
Atom  46H    basis set group =>   3
Atom  47H    basis set group =>   3
Atom  48H    basis set group =>   3
Atom  49H    basis set group =>   3
Atom  50H    basis set group =>   3
Atom  51H    basis set group =>   3
Atom  52H    basis set group =>   3
Atom  53H    basis set group =>   3
Atom  54H    basis set group =>   3
Atom  55H    basis set group =>   3
Atom  56H    basis set group =>   3
Atom  57H    basis set group =>   3
Atom  58H    basis set group =>   3
Atom  59H    basis set group =>   3
Atom  60H    basis set group =>   3
Atom  61H    basis set group =>   3
Atom  62H    basis set group =>   3
Atom  63H    basis set group =>   3
Atom  64H    basis set group =>   3
Atom  65H    basis set group =>   3
Atom  66H    basis set group =>   3
Atom  67H    basis set group =>   3
Atom  68H    basis set group =>   3
Atom  69H    basis set group =>   3
Atom  70H    basis set group =>   3
Atom  71H    basis set group =>   3
Atom  72H    basis set group =>   3
Atom  73H    basis set group =>   3
Atom  74H    basis set group =>   3
Atom  75H    basis set group =>   3
Atom  76H    basis set group =>   3
Atom  77H    basis set group =>   3
Atom  78H    basis set group =>   3
Atom  79H    basis set group =>   3
Atom  80H    basis set group =>   3
Atom  81H    basis set group =>   3
--------------------------------------------------------------------------
WARNING: There is at least one non-excluded one OpenFabrics device found,
but there are no active ports detected (or Open MPI was unable to use
them).  This is most certainly not what you wanted.  Check your
cables, subnet manager configuration, etc.  The openib BTL will be
ignored for this job.

  Local host: c02b01n05
--------------------------------------------------------------------------
--------------------------------------------------------------------------
WARNING: There was an error initializing an OpenFabrics device.

  Local host:   c02b01n05
  Local device: mlx5_0
--------------------------------------------------------------------------


           ************************************************************
           *        Program running with 60 parallel MPI-processes    *
           *              working on a common directory               *
           ************************************************************
------------------------------------------------------------------------------
                             ORCA STARTUP CALCULATIONS
                           -- RI-GTO INTEGRALS CHOSEN --
------------------------------------------------------------------------------
------------------------------------------------------------------------------
                   ___                                                        
                  /   \      - P O W E R E D   B Y -                         
                 /     \                                                     
                 |  |  |   _    _      __       _____    __    __             
                 |  |  |  | |  | |    /  \     |  _  \  |  |  /  |          
                  \  \/   | |  | |   /    \    | | | |  |  | /  /          
                 / \  \   | |__| |  /  /\  \   | |_| |  |  |/  /          
                |  |  |   |  __  | /  /__\  \  |    /   |      \           
                |  |  |   | |  | | |   __   |  |    \   |  |\   \          
                \     /   | |  | | |  |  |  |  | |\  \  |  | \   \       
                 \___/    |_|  |_| |__|  |__|  |_| \__\ |__|  \__/        
                                                                              
                      - O R C A' S   B I G   F R I E N D -                    
                                      &                                       
                       - I N T E G R A L  F E E D E R -                       
                                                                              
 v1 FN, 2020, v2 2021, v3 2022-2024                                           
------------------------------------------------------------------------------


----------------------
SHARK INTEGRAL PACKAGE
----------------------

Number of atoms                             ...     82
Number of basis functions                   ...   2072
Number of shells                            ...    744
Maximum angular momentum                    ...      3
Integral batch strategy                     ... SHARK/LIBINT Hybrid
RI-J (if used) integral strategy            ... SPLIT-RIJ (Revised 2003 algorithm where possible)
Printlevel                                  ...      1
Contraction scheme used                     ... SEGMENTED contraction
Prescreening option                         ... SCHWARTZ
   Thresh                                   ... 1.000e-10
   Tcut                                     ... 1.000e-11
   Tpresel                                  ... 1.000e-11 
Coulomb Range Separation                    ... NOT USED
Exchange Range Separation                   ... NOT USED
Multipole approximations                    ... NOT USED
Finite Nucleus Model                        ... NOT USED
CABS basis                                  ... NOT available
Auxiliary Coulomb fitting basis             ... AVAILABLE
   # of basis functions in Aux-J            ...  10268
   # of shells in Aux-J                     ...   2940
   Maximum angular momentum in Aux-J        ...      4
Auxiliary J/K fitting basis                 ... AVAILABLE
   # of basis functions in Aux-JK           ...  10268
   # of shells in Aux-JK                    ...   2940
   Maximum angular momentum in Aux-JK       ...      4
Auxiliary Correlation fitting basis         ... AVAILABLE
   # of basis functions in Aux-C            ...  10268
   # of shells in Aux-C                     ...   2940
   Maximum angular momentum in Aux-C        ...      4
Auxiliary 'external' fitting basis          ... NOT available

Checking pre-screening integrals            ... done (  0.0 sec) Dimension = 744
   => SHARK Basis and OBASIS are compatible. Storing Pre-screening
Shell pair information
Shell pair cut-off parameter TPreSel        ...   1.0e-11
Total number of shell pairs                 ...    277140
Shell pairs after pre-screening             ...    153921
Total number of primitive shell pairs       ...    823733
Primitive shell pairs kept                  ...    282107
          la=0 lb=0:  29185 shell pairs
          la=1 lb=0:  51082 shell pairs
          la=1 lb=1:  20878 shell pairs
          la=2 lb=0:  20226 shell pairs
          la=2 lb=1:  15345 shell pairs
          la=2 lb=2:   2746 shell pairs
          la=3 lb=0:   6989 shell pairs
          la=3 lb=1:   5252 shell pairs
          la=3 lb=2:   1868 shell pairs
          la=3 lb=3:    350 shell pairs

Checking whether 4 symmetric matrices of dimension 2072 fit in memory
:Max Core in MB      =   5000.00
 MB in use           =    189.94
 MB left             =   4810.06
 MB needed           =     65.54
 Data fit in memory  = YES
Calculating RI/J V-Matrix + Cholesky decomp.... [c02b01n05:316253] 3 more processes have sent help message help-mpi-btl-openib.txt / no active ports found
[c02b01n05:316253] Set MCA parameter "orte_base_help_aggregate" to 0 to see all help / error messages
[c02b01n05:316253] 55 more processes have sent help message help-mpi-btl-openib.txt / error in device init
done (  6.4 sec)
Calculating RI/JK V-Matrix + Cholesky decomp.... done (  4.0 sec)
Calculating RI/C V-Matrix + Cholesky decomp.... done ( 12.4 sec)
Calculating Nuclear repulsion               ... done (  0.0 sec) ENN=   5806.497064212719 Eh

Diagonalization of the overlap matrix:
Smallest eigenvalue                        ... 7.345e-06
Time for diagonalization                   ...    8.639 sec
Threshold for overlap eigenvalues          ... 1.000e-07
Number of eigenvalues below threshold      ... 0
Time for construction of square roots      ...    0.333 sec
Total time needed                          ...    9.033 sec

-------------------
DFT GRID GENERATION
-------------------

General Integration Accuracy     IntAcc      ... 4.388
Radial Grid Type                 RadialGrid  ... OptM3 with GC (2021)
Angular Grid (max. ang.)         AngularGrid ... 4 (Lebedev-302)
Angular grid pruning method      GridPruning ... 4 (adaptive)
Weight generation scheme         WeightScheme... mBecke (2022)
Basis function cutoff            BFCut       ... 1.0000e-10
Integration weight cutoff        WCut        ... 1.0000e-14
Partially contracted basis set               ... off
Rotationally invariant grid construction     ... off
Angular grids for H and He will be reduced by one unit
Diffuse basis detected: some atoms will have their outermost
                        angular grid increased by 1.

Total number of grid points                  ...   376478
Total number of batches                      ...     5917
Average number of points per batch           ...       63
Average number of grid points per atom       ...     4591
Grids setup in   1.9 sec
Initializing property integral containers    ... done (  0.1 sec)

SHARK setup successfully completed in  36.6 seconds

Maximum memory used throughout the entire STARTUP-calculation: 262.0 MB
--------------------------------------------------------------------------
WARNING: There was an error initializing an OpenFabrics device.

  Local host:   c02b01n05
  Local device: mlx5_0
--------------------------------------------------------------------------
--------------------------------------------------------------------------
WARNING: There is at least one non-excluded one OpenFabrics device found,
but there are no active ports detected (or Open MPI was unable to use
them).  This is most certainly not what you wanted.  Check your
cables, subnet manager configuration, etc.  The openib BTL will be
ignored for this job.

  Local host: c02b01n05
--------------------------------------------------------------------------


           ************************************************************
           *        Program running with 60 parallel MPI-processes    *
           *              working on a common directory               *
           ************************************************************
-------------------------------------------------------------------------------
                                 ORCA GUESS
                   Start orbitals & Density for SCF / CASSCF
-------------------------------------------------------------------------------

------------
SCF SETTINGS
------------
Hamiltonian:
 Density Functional     Method          .... DFT(GTOs)
 Exchange Functional    Exchange        .... TPSS
 Correlation Functional Correlation     .... TPSS
 LDA part of GGA corr.  LDAOpt          .... PW91-LDA
 Gradients option       PostSCFGGA      .... off
   NL short-range parameter             ....  5.000000
 RI-approximation to the Coulomb term is turned on
   Number of AuxJ basis functions       .... 10268


General Settings:
 Integral files         IntName         .... nmr-conf-12
 Hartree-Fock type      HFTyp           .... RHF
 Total Charge           Charge          ....    0
 Multiplicity           Mult            ....    1
 Number of Electrons    NEL             ....  314
 Basis Dimension        Dim             .... 2072
 Nuclear Repulsion      ENuc            ....   5806.4970642127 Eh

Convergence Acceleration:
 AO-DIIS                CNVDIIS         .... on
   Start iteration      DIISMaxIt       ....    12
   Startup error        DIISStart       ....  0.200000
   # of expansion vecs  DIISMaxEq       ....     5
   Bias factor          DIISBfac        ....   1.050
   Max. coefficient     DIISMaxC        ....  10.000
 MO-DIIS                CNVKDIIS        .... off
 Trust-Rad. Augm. Hess. CNVTRAH         .... auto
   Auto Start mean grad. ratio tolernc. ....  1.125000
   Auto Start start iteration           ....    50
   Auto Start num. interpolation iter.  ....    10
   Max. Number of Micro iterations      ....    24
   Max. Number of Macro iterations      .... Maxiter - #DIIS iter
   Number of Davidson start vectors     ....     2
   Converg. threshold    (grad. norm)   ....   5.000e-05
   Grad. Scal. Fac. for Micro threshold ....   0.100
   Minimum threshold for Micro iter.    ....   1.000e-02
   NR start threshold (gradient norm)   ....   1.000e-04
   Initial trust radius                 ....   0.400
   Minimum AH scaling param. (alpha)    ....   1.000
   Maximum AH scaling param. (alpha)    .... 1000.000
   Quad. conv. algorithm                .... NR
   White noise on init. David. guess    .... on
   Maximum white noise                  ....   0.010
   Pseudo random numbers                .... off
   Inactive MOs                         .... canonical
   Orbital update algorithm             .... Taylor
   Preconditioner                       .... Diag
   Full preconditioner red. dimension   ....   250
 SOSCF                 CNVSOSCF           .... on
   Start iteration     SOSCFMaxIt         ....   150
   Startup grad/error  SOSCFStart         ....  0.003300
   Hessian update      SOSCFHessUp        .... L-BFGS
   Autom. constraints  SOSCFAutoConstrain .... off
 Level Shifting         CNVShift        .... on
   Level shift para.    LevelShift      ....    0.2500
   Turn off err/grad.   ShiftErr        ....    0.0010
 Zerner damping         CNVZerner       .... off
 Static damping         CNVDamp         .... on
   Fraction old density DampFac         ....    0.7000
   Max. Damping (<1)    DampMax         ....    0.9800
   Min. Damping (>=0)   DampMin         ....    0.0000
   Turn off err/grad.   DampErr         ....    0.1000

SCF Procedure:
 Maximum # iterations   MaxIter         ....   125
 SCF integral mode      SCFMode         .... Direct
   Integral package                     .... SHARK and LIBINT hybrid scheme
 Reset frequency        DirectResetFreq ....    20
 Integral Threshold     Thresh          ....  1.000e-10 Eh
 Primitive CutOff       TCut            ....  1.000e-11 Eh

Convergence Tolerance:
 Convergence Check Mode ConvCheckMode   .... Total+1el-Energy
 Convergence forced     ConvForced      .... 0
 Energy Change          TolE            ....  1.000e-06 Eh
 1-El. energy change                    ....  1.000e-03 Eh
 Orbital Gradient       TolG            ....  5.000e-05
 Orbital Rotation angle TolX            ....  5.000e-05
 DIIS Error             TolErr          ....  1.000e-06

------------------------------
INITIAL GUESS: MODEL POTENTIAL
------------------------------
Loading Hartree-Fock densities                     ... done
Calculating cut-offs                               ... done
Initializing the effective Hamiltonian             ... done
Setting up the integral package (SHARK)            ... done
Starting the Coulomb interaction                   ... done (   0.7 sec)
Making the grid                                    ... done (   0.6 sec)
Mapping shells                                     ... done
Starting the XC term evaluation                    ... done (   0.2 sec)
  promolecular density results
     # of electrons  =    313.985701328
     EX              =   -260.302825590
     EC              =    -10.654378620
     EX+EC           =   -270.957204210
Transforming the Hamiltonian                       ... done (   0.3 sec)
Diagonalizing the Hamiltonian                      ... done (   0.6 sec)
Back transforming the eigenvectors                 ... done (   0.2 sec)
Now organizing SCF variables                       ... [c02b01n05:316730] 52 more processes have sent help message help-mpi-btl-openib.txt / error in device init
[c02b01n05:316730] Set MCA parameter "orte_base_help_aggregate" to 0 to see all help / error messages
[c02b01n05:316730] 6 more processes have sent help message help-mpi-btl-openib.txt / no active ports found
done
                      ------------------
                      INITIAL GUESS DONE (   3.1 sec)
                      ------------------
             **** ENERGY FILE WAS UPDATED (nmr-conf-12.en.tmp) ****
Finished Guess after   6.5 sec
Maximum memory used throughout the entire GUESS-calculation: 294.7 MB
--------------------------------------------------------------------------
WARNING: There was an error initializing an OpenFabrics device.

  Local host:   c02b01n05
  Local device: mlx5_0
--------------------------------------------------------------------------
--------------------------------------------------------------------------
WARNING: There is at least one non-excluded one OpenFabrics device found,
but there are no active ports detected (or Open MPI was unable to use
them).  This is most certainly not what you wanted.  Check your
cables, subnet manager configuration, etc.  The openib BTL will be
ignored for this job.

  Local host: c02b01n05
--------------------------------------------------------------------------


           ************************************************************
           *        Program running with 60 parallel MPI-processes    *
           *              working on a common directory               *
           ************************************************************

-------------------------------------------------------------------------------------------
                                      ORCA LEAN-SCF
                              memory conserving SCF solver
-------------------------------------------------------------------------------------------

--------------------
CPCM SOLVATION MODEL
--------------------
CPCM parameters:
  Epsilon                                         ...      33.4280
  Refrac                                          ...       1.3288
  Rsolv                                           ...       1.3000
  Surface type                                    ... GAUSSIAN VDW
  Discretization scheme                           ... Constant charge density
    Threshold for H atoms                         ...       5.0000 (charges/Ang^2)
    Threshold for non-H atoms                     ...       5.0000 (charges/Ang^2)
  Epsilon function type                           ...         CPCM
Solvent:                                          ... METHANOL
Radii:
  Scheme                                          ... Element-dependent radii
  Radius for C  used is    3.8550 Bohr (=   2.0400 Ang.)
  Radius for O  used is    3.4469 Bohr (=   1.8240 Ang.)
  Radius for H  used is    2.4944 Bohr (=   1.3200 Ang.)
Calculating surface                               ...        done! (  0.0s)
Cavity surface points                             ...         6098
Cavity Volume                                     ...    4546.6881
Cavity Surface-area                               ...    1987.0480
Calculating surface distance matrix               ...        done! (  0.2s)
Performing Cholesky decomposition & store         ...        done! (  0.6s)
Overall time for CPCM initialization              ...                 0.8s

----------------------------------------D-I-I-S--------------------------------------------
Iteration    Energy (Eh)           Delta-E    RMSDP     MaxDP     DIISErr   Damp  Time(sec)
-------------------------------------------------------------------------------------------
               ***  Starting incremental Fock matrix formation  ***
[c02b01n05:317275] 51 more processes have sent help message help-mpi-btl-openib.txt / error in device init
[c02b01n05:317275] Set MCA parameter "orte_base_help_aggregate" to 0 to see all help / error messages
[c02b01n05:317275] 7 more processes have sent help message help-mpi-btl-openib.txt / no active ports found
    1    -2033.0324754093562660     0.00e+00  8.08e-03  2.92e-01  2.39e-01  0.700  15.8
    2    -2033.4311300615945584    -3.99e-01  6.69e-03  2.28e-01  8.20e-02  0.700  10.4
                               ***Turning on AO-DIIS***
    3    -2033.5812435963489406    -1.50e-01  2.95e-03  7.67e-02  2.43e-02  0.700   6.9
    4    -2033.6717834177534314    -9.05e-02  4.97e-03  8.18e-02  1.15e-02  0.000   7.0
    5    -2033.8717671480426361    -2.00e-01  1.28e-03  4.01e-02  4.47e-03  0.000   6.7
                              *** Initializing SOSCF ***
---------------------------------------S-O-S-C-F--------------------------------------
Iteration    Energy (Eh)           Delta-E    RMSDP     MaxDP     MaxGrad    Time(sec)
--------------------------------------------------------------------------------------
    6    -2033.8731086767829765    -1.34e-03  4.09e-04  7.42e-03  1.49e-03     8.4
               *** Restarting incremental Fock matrix formation ***
    7    -2033.8732131821443545    -1.05e-04  3.39e-04  7.54e-03  1.46e-04     7.5
    8    -2033.8731874330296705     2.57e-05  8.31e-05  2.57e-03  6.19e-04     5.9
    9    -2033.8732293850362112    -4.20e-05  6.39e-05  9.86e-04  1.10e-04     5.5
   10    -2033.8732292390177463     1.46e-07  2.12e-05  4.74e-04  1.08e-04     5.6
                 **** Energy Check signals convergence ****

               *****************************************************
               *                     SUCCESS                       *
               *           SCF CONVERGED AFTER  10 CYCLES          *
               *****************************************************

             **** ENERGY FILE WAS UPDATED (nmr-conf-12.en.tmp) ****

----------------
TOTAL SCF ENERGY
----------------

Total Energy       :      -2033.87322939916430 Eh          -55344.50423 eV

Components:
Nuclear Repulsion  :       5806.49706421271912 Eh          158002.81783 eV
Electronic Energy  :      -7840.32649736199619 Eh         -213346.13030 eV
One Electron Energy:     -14340.42012123804125 Eh         -390222.67004 eV
Two Electron Energy:       6500.09362387604506 Eh          176876.53974 eV
CPCM Dielectric    :         -0.04379624988767 Eh              -1.19176 eV

Virial components:
Potential Energy   :      -4061.12951302503734 Eh         -110508.95222 eV
Kinetic Energy     :       2027.25628362587304 Eh           55164.44798 eV
Virial Ratio       :          2.00326399075772

DFT components:
N(Alpha)           :      157.000253440731 electrons
N(Beta)            :      157.000253440731 electrons
N(Total)           :      314.000506881462 electrons
E(X)               :     -268.093968663518 Eh       
E(C)               :      -10.611557203437 Eh       
E(XC)              :     -278.705525866955 Eh       

CPCM Solvation Model Properties:
Surface-charge          :         -0.04357445284189
Corrected charge        :         -0.00000000000000
Outlying charge corr.   :          0.00008318938210 Eh               0.00226 eV
Free-energy (cav+disp)  :  This term is not implemented in the current solvation scheme

---------------
SCF CONVERGENCE
---------------

  Last Energy change         ...   -1.4602e-07  Tolerance :   1.0000e-06
  Last MAX-Density change    ...    4.7379e-04  Tolerance :   1.0000e-05
  Last RMS-Density change    ...    2.1215e-05  Tolerance :   1.0000e-06
  Last DIIS Error            ...    1.4907e-03  Tolerance :   1.0000e-06
  Last Orbital Gradient      ...    1.0774e-04  Tolerance :   5.0000e-05
  Last Orbital Rotation      ...    2.1546e-04  Tolerance :   5.0000e-05


----------------
ORBITAL ENERGIES
----------------

  NO   OCC          E(Eh)            E(eV) 
   0   2.0000     -18.921348      -514.8761 
   1   2.0000     -18.920900      -514.8639 
   2   2.0000     -18.918006      -514.7851 
   3   2.0000     -18.917890      -514.7820 
   4   2.0000     -18.913297      -514.6570 
   5   2.0000     -18.909532      -514.5545 
   6   2.0000     -18.902835      -514.3723 
   7   2.0000     -18.887540      -513.9561 
   8   2.0000     -18.883624      -513.8495 
   9   2.0000     -18.872152      -513.5374 
  10   2.0000     -18.863618      -513.3051 
  11   2.0000     -10.048121      -273.4233 
  12   2.0000     -10.046866      -273.3891 
  13   2.0000     -10.045656      -273.3562 
  14   2.0000     -10.045646      -273.3559 
  15   2.0000     -10.045579      -273.3541 
  16   2.0000     -10.044085      -273.3135 
  17   2.0000     -10.042572      -273.2723 
  18   2.0000     -10.042169      -273.2613 
  19   2.0000     -10.037484      -273.1338 
  20   2.0000     -10.036743      -273.1137 
  21   2.0000     -10.035618      -273.0830 
  22   2.0000     -10.035234      -273.0726 
  23   2.0000     -10.032482      -272.9977 
  24   2.0000     -10.031113      -272.9605 
  25   2.0000     -10.026711      -272.8407 
  26   2.0000     -10.021596      -272.7015 
  27   2.0000      -9.992977      -271.9227 
  28   2.0000      -9.991703      -271.8881 
  29   2.0000      -9.987414      -271.7714 
  30   2.0000      -9.986948      -271.7587 
  31   2.0000      -9.986364      -271.7428 
  32   2.0000      -9.985901      -271.7302 
  33   2.0000      -9.985724      -271.7254 
  34   2.0000      -9.985185      -271.7107 
  35   2.0000      -9.982992      -271.6510 
  36   2.0000      -9.982561      -271.6393 
  37   2.0000      -9.981919      -271.6218 
  38   2.0000      -9.979988      -271.5693 
  39   2.0000      -9.978897      -271.5396 
  40   2.0000      -9.978387      -271.5257 
  41   2.0000      -9.977289      -271.4958 
  42   2.0000      -1.014385       -27.6028 
  43   2.0000      -1.012886       -27.5620 
  44   2.0000      -1.009676       -27.4747 
  45   2.0000      -1.001533       -27.2531 
  46   2.0000      -0.988901       -26.9094 
  47   2.0000      -0.984719       -26.7956 
  48   2.0000      -0.983617       -26.7656 
  49   2.0000      -0.960954       -26.1489 
  50   2.0000      -0.956914       -26.0390 
  51   2.0000      -0.943722       -25.6800 
  52   2.0000      -0.936406       -25.4809 
  53   2.0000      -0.798853       -21.7379 
  54   2.0000      -0.797992       -21.7145 
  55   2.0000      -0.795069       -21.6349 
  56   2.0000      -0.759308       -20.6618 
  57   2.0000      -0.735615       -20.0171 
  58   2.0000      -0.719364       -19.5749 
  59   2.0000      -0.703917       -19.1546 
  60   2.0000      -0.700733       -19.0679 
  61   2.0000      -0.699902       -19.0453 
  62   2.0000      -0.696184       -18.9441 
  63   2.0000      -0.687198       -18.6996 
  64   2.0000      -0.671237       -18.2653 
  65   2.0000      -0.652882       -17.7658 
  66   2.0000      -0.649845       -17.6832 
  67   2.0000      -0.648479       -17.6460 
  68   2.0000      -0.641065       -17.4443 
  69   2.0000      -0.627216       -17.0674 
  70   2.0000      -0.620431       -16.8828 
  71   2.0000      -0.611704       -16.6453 
  72   2.0000      -0.582276       -15.8445 
  73   2.0000      -0.566652       -15.4194 
  74   2.0000      -0.561260       -15.2727 
  75   2.0000      -0.560029       -15.2392 
  76   2.0000      -0.550397       -14.9771 
  77   2.0000      -0.546772       -14.8784 
  78   2.0000      -0.540807       -14.7161 
  79   2.0000      -0.534117       -14.5341 
  80   2.0000      -0.513803       -13.9813 
  81   2.0000      -0.511732       -13.9249 
  82   2.0000      -0.506029       -13.7697 
  83   2.0000      -0.498642       -13.5687 
  84   2.0000      -0.486653       -13.2425 
  85   2.0000      -0.479050       -13.0356 
  86   2.0000      -0.474648       -12.9158 
  87   2.0000      -0.472022       -12.8444 
  88   2.0000      -0.461097       -12.5471 
  89   2.0000      -0.459603       -12.5064 
  90   2.0000      -0.453224       -12.3328 
  91   2.0000      -0.448566       -12.2061 
  92   2.0000      -0.444984       -12.1086 
  93   2.0000      -0.441932       -12.0256 
  94   2.0000      -0.436777       -11.8853 
  95   2.0000      -0.433741       -11.8027 
  96   2.0000      -0.429995       -11.7008 
  97   2.0000      -0.428079       -11.6486 
  98   2.0000      -0.424415       -11.5489 
  99   2.0000      -0.420763       -11.4495 
 100   2.0000      -0.416529       -11.3343 
 101   2.0000      -0.413825       -11.2607 
 102   2.0000      -0.409776       -11.1506 
 103   2.0000      -0.408598       -11.1185 
 104   2.0000      -0.403842       -10.9891 
 105   2.0000      -0.400251       -10.8914 
 106   2.0000      -0.399254       -10.8642 
 107   2.0000      -0.393733       -10.7140 
 108   2.0000      -0.388813       -10.5801 
 109   2.0000      -0.386535       -10.5181 
 110   2.0000      -0.384664       -10.4672 
 111   2.0000      -0.382531       -10.4092 
 112   2.0000      -0.379192       -10.3183 
 113   2.0000      -0.378780       -10.3071 
 114   2.0000      -0.375612       -10.2209 
 115   2.0000      -0.373026       -10.1506 
 116   2.0000      -0.371022       -10.0960 
 117   2.0000      -0.363619        -9.8946 
[...]
 
 sDSO           246.487          118.655           60.935  iso=     142.026
 sPSO          -222.976          -92.626          -26.239  iso=    -113.947
        ---------------  ---------------  ---------------
 Total           23.510           26.029           34.696  iso=      28.078

 Orientation: 
  X          -0.1647927    0.3371422   -0.9269188
  Y           0.2771961    0.9177217    0.2845156
  Z           0.9465758   -0.2100522   -0.2446884

 --------------
 Nucleus  73H :
 --------------

Diamagnetic contribution to the shielding tensor (ppm) : 
            55.051         88.877        41.918
             3.168         96.645        23.256
            54.136        -17.760       235.928

Paramagnetic contribution to the shielding tensor (ppm): 
           -26.116        -87.357       -44.980
            -3.705        -69.070       -24.648
           -57.145         15.783      -210.460

Total shielding tensor (ppm): 
            28.935          1.520        -3.062
            -0.537         27.575        -1.391
            -3.009         -1.977        25.468


 Diagonalized sT*s matrix:
 
 sDSO           238.747           53.430           95.446  iso=     129.208
 sPSO          -215.406          -25.965          -64.275  iso=    -101.882
        ---------------  ---------------  ---------------
 Total           23.342           27.465           31.171  iso=      27.326

 Orientation: 
  X           0.4316374   -0.4625306   -0.7744382
  Y           0.2912636    0.8840115   -0.3656355
  Z           0.8537299   -0.0677437    0.5162907

 --------------
 Nucleus  74H :
 --------------

Diamagnetic contribution to the shielding tensor (ppm) : 
           121.701         59.606        36.219
            44.943         82.495        28.402
            43.136         -0.112       237.586

Paramagnetic contribution to the shielding tensor (ppm): 
           -92.625        -63.938       -39.418
           -47.381        -53.759       -26.610
           -45.357          3.072      -212.996

Total shielding tensor (ppm): 
            29.076         -4.332        -3.199
            -2.439         28.736         1.792
            -2.221          2.961        24.590


 Diagonalized sT*s matrix:
 
 sDSO           230.587          148.307           62.888  iso=     147.261
 sPSO          -207.425         -122.780          -29.175  iso=    -119.793
        ---------------  ---------------  ---------------
 Total           23.161           25.527           33.714  iso=      27.467

 Orientation: 
  X           0.3105571   -0.6792329    0.6649790
  Y          -0.2061095   -0.7310436   -0.6504568
  Z           0.9279403    0.0649455   -0.3670271

 --------------
 Nucleus  75H :
 --------------

Diamagnetic contribution to the shielding tensor (ppm) : 
            -1.184         -9.503       -57.949
           -15.631         44.110       -40.135
           105.298        -75.638      -103.414

Paramagnetic contribution to the shielding tensor (ppm): 
            20.481         16.741        60.316
            23.283         -6.941        46.008
          -101.788         81.896       126.175

Total shielding tensor (ppm): 
            19.297          7.238         2.367
             7.652         37.169         5.874
             3.509          6.258        22.761


 Diagonalized sT*s matrix:
 
 sDSO            -6.530          -42.485          -11.473  iso=     -20.163
 sPSO            23.022           63.043           53.651  iso=      46.572
        ---------------  ---------------  ---------------
 Total           16.492           20.557           42.179  iso=      26.409

 Orientation: 
  X           0.9400789   -0.0552391    0.3364525
  Y          -0.2957841    0.3587202    0.8853427
  Z          -0.1695979   -0.9318092    0.3208864

 --------------
 Nucleus  76H :
 --------------

Diamagnetic contribution to the shielding tensor (ppm) : 
            65.826         28.493        80.736
            19.292         74.834        56.185
            36.358        -35.237       179.218

Paramagnetic contribution to the shielding tensor (ppm): 
           -40.698        -20.003       -80.606
            -8.840        -35.516       -57.242
           -37.239         35.133      -160.295

Total shielding tensor (ppm): 
            25.128          8.490         0.130
            10.452         39.319        -1.057
            -0.881         -0.105        18.923


 Diagonalized sT*s matrix:
 
 sDSO           184.600           44.961           90.317  iso=     106.626
 sPSO          -165.699          -24.562          -46.247  iso=     -78.836
        ---------------  ---------------  ---------------
 Total           18.901           20.398           44.070  iso=      27.790

 Orientation: 
  X           0.0460313    0.8861833    0.4610426
  Y           0.0108294   -0.4619474    0.8868412
  Z           0.9988813   -0.0358296   -0.0308609

 --------------
 Nucleus  77H :
 --------------

Diamagnetic contribution to the shielding tensor (ppm) : 
            21.526         74.826        71.178
           -13.149         78.887        41.133
            37.794         -7.523       208.314

Paramagnetic contribution to the shielding tensor (ppm): 
             5.863        -75.183       -59.166
            13.921        -59.410       -35.750
           -26.729         12.666      -176.670

Total shielding tensor (ppm): 
            27.389         -0.356        12.012
             0.771         19.477         5.383
            11.065          5.143        31.643


 Diagonalized sT*s matrix:
 
 sDSO            79.833           30.627          198.267  iso=     102.909
 sPSO           -64.781           -9.205         -156.232  iso=     -76.739
        ---------------  ---------------  ---------------
 Total           15.052           21.422           42.035  iso=      26.170

 Orientation: 
  X           0.5296548    0.5943616    0.6051447
  Y           0.6378973   -0.7493462    0.1776719
  Z          -0.5590642   -0.2919154    0.7760365

 --------------
 Nucleus  78H :
 --------------

Diamagnetic contribution to the shielding tensor (ppm) : 
            72.424         -6.212        48.005
            14.996         52.286        24.650
            48.897          3.853       208.238

Paramagnetic contribution to the shielding tensor (ppm): 
           -48.508          6.402       -42.344
           -13.810        -28.564       -35.776
           -45.947        -13.398      -181.311

Total shielding tensor (ppm): 
            23.916          0.190         5.661
             1.186         23.722       -11.126
             2.949         -9.546        26.927


 Diagonalized sT*s matrix:
 
 sDSO           106.288           78.074          148.586  iso=     110.983
 sPSO           -92.533          -53.692         -112.158  iso=     -86.128
        ---------------  ---------------  ---------------
 Total           13.754           24.382           36.428  iso=      24.855

 Orientation: 
  X          -0.3303050    0.9212522    0.2054092
  Y           0.7055146    0.3855418   -0.5946484
  Z           0.6270150    0.0514962    0.7773033

 --------------
 Nucleus  79H :
 --------------

Diamagnetic contribution to the shielding tensor (ppm) : 
           129.110        -42.619        38.553
            64.238         18.427        19.597
            12.929         33.789       201.840

Paramagnetic contribution to the shielding tensor (ppm): 
          -102.898         45.514       -37.839
           -63.366         12.107       -23.276
           -11.009        -35.919      -176.409

Total shielding tensor (ppm): 
            26.213          2.895         0.715
             0.872         30.535        -3.679
             1.920         -2.129        25.432


 Diagonalized sT*s matrix:
 
 sDSO           141.884          177.794           29.700  iso=     116.459
 sPSO          -118.998         -150.602            2.401  iso=     -89.066
        ---------------  ---------------  ---------------
 Total           22.886           27.192           32.101  iso=      27.393

 Orientation: 
  X          -0.5270832   -0.8276447   -0.1928409
  Y           0.4128518   -0.0510414   -0.9093669
  Z           0.7427898   -0.5589267    0.3685977

 --------------
 Nucleus  80H :
 --------------

Diamagnetic contribution to the shielding tensor (ppm) : 
           150.013        -64.424        -8.556
            88.354         -7.943         0.955
            59.283        -43.924       182.205

Paramagnetic contribution to the shielding tensor (ppm): 
          -122.146         67.332        11.375
           -83.911         39.793         0.686
           -57.930         46.374      -157.525

Total shielding tensor (ppm): 
            27.867          2.908         2.819
             4.442         31.850         1.640
             1.354          2.450        24.680


 Diagonalized sT*s matrix:
 
 sDSO           158.050          110.099           56.125  iso=     108.091
 sPSO          -134.409          -84.172          -21.297  iso=     -79.959
        ---------------  ---------------  ---------------
 Total           23.640           25.928           34.829  iso=      28.132

 Orientation: 
  X          -0.4259370    0.7413025    0.5186986
  Y          -0.0280047   -0.5838317    0.8113916
  Z           0.9043193    0.3310757    0.2694355

 --------------
 Nucleus  81H :
 --------------

Diamagnetic contribution to the shielding tensor (ppm) : 
            92.806       -110.502        -8.468
            30.800        -33.228         0.723
           -11.013         42.840       127.411

Paramagnetic contribution to the shielding tensor (ppm): 
           -62.734        110.726         6.043
           -28.900         59.598        -2.056
             8.435        -43.049      -100.781

Total shielding tensor (ppm): 
            30.071          0.224        -2.425
             1.900         26.370        -1.333
            -2.578         -0.209        26.631


 Diagonalized sT*s matrix:
 
 sDSO           107.588           -2.853           82.254  iso=      62.330
 sPSO           -82.316           28.951          -50.552  iso=     -34.639
        ---------------  ---------------  ---------------
 Total           25.272           26.098           31.701  iso=      27.691

 Orientation: 
  X           0.4147825    0.2962092   -0.8603579
  Y           0.2222519   -0.9498723   -0.2198791
  Z           0.8823603    0.1000141    0.4598234



--------------------------------
CHEMICAL SHIELDING SUMMARY (ppm)
--------------------------------


  Nucleus  Element    Isotropic     Anisotropy
  -------  -------  ------------   ------------
      0       C           24.355        121.456 
      1       C           45.970         93.705 
      2       C           25.785        120.303 
      3       C           75.894        126.513 
      4       C           40.182        193.448 
      5       C           76.325        134.254 
      6       C          139.646         46.664 
      7       C          133.706         15.473 
      8       C          131.965         11.033 
      9       C          138.792         34.452 
     10       C           44.918        184.880 
     11       C           62.420        167.505 
     12       C           29.915        113.491 
     13       C           31.960        124.363 
     14       C           66.617        143.249 
     15       C           55.086        147.699 
     16       C          114.253         72.195 
     17       C          108.182         44.771 
     23       C           96.989         37.798 
     24       C           98.490         40.485 
     25       C           42.977        169.568 
     26       C          107.619         48.095 
     28       C           74.033        153.642 
     29       C           30.938        117.228 
     30       C           34.031        117.132 
     31       C           67.229        146.405 
     32       C           64.841        177.151 
     33       C          122.569         75.930 
     34       C          124.044         78.691 
     35       C          121.938         83.730 
     41       C          123.569         76.216 
     42       H           25.620          9.789 
     43       H           26.436          8.129 
     44       H           29.845          7.189 
     45       H           29.199          4.123 
     46       H           30.426          8.382 
     47       H           30.019          5.995 
     48       H           28.368          8.248 
     49       H           28.358          6.957 
     50       H           23.225         10.001 
     51       H           24.803          2.587 
     52       H           24.667          5.479 
     53       H           28.062          5.789 
     54       H           27.884          8.305 
     55       H           27.990          8.717 
     56       H           27.150          7.086 
     57       H           25.324         10.716 
     58       H           26.371          5.786 
     59       H           26.305          5.024 
     60       H           27.458          6.566 
     61       H           27.300          6.718 
     62       H           27.537         22.332 
     63       H           25.058          9.867 
     64       H           25.162          5.571 
     65       H           25.131          6.907 
     66       H           28.136          7.644 
     67       H           28.836          9.680 
     68       H           27.499          6.607 
     69       H           27.850          7.127 
     70       H           27.921          9.820 
     71       H           27.439          9.472 
     72       H           28.078          9.926 
     73       H           27.326          5.767 
     74       H           27.467          9.369 
     75       H           26.409         23.654 
     76       H           27.790         24.420 
     77       H           26.170         23.797 
     78       H           24.855         17.360 
     79       H           27.393          7.062 
     80       H           28.132         10.045 
     81       H           27.691          6.016 


NMR shielding tensor and spin rotation calculation done in   2.7 sec 

Maximum memory used throughout the entire PROP-calculation: 371.0 MB
--------------------------------------------------------------------------
WARNING: There was an error initializing an OpenFabrics device.

  Local host:   c02b01n05
  Local device: mlx5_0
--------------------------------------------------------------------------
--------------------------------------------------------------------------
WARNING: There is at least one non-excluded one OpenFabrics device found,
but there are no active ports detected (or Open MPI was unable to use
them).  This is most certainly not what you wanted.  Check your
cables, subnet manager configuration, etc.  The openib BTL will be
ignored for this job.

  Local host: c02b01n05
--------------------------------------------------------------------------
[c02b01n05:319206] 51 more processes have sent help message help-mpi-btl-openib.txt / error in device init
[c02b01n05:319206] Set MCA parameter "orte_base_help_aggregate" to 0 to see all help / error messages
[c02b01n05:319206] 7 more processes have sent help message help-mpi-btl-openib.txt / no active ports found

--------------------------------
SUGGESTED CITATIONS FOR THIS RUN
--------------------------------

Below you find a list of papers that are relevant to this ORCA run
We neither can nor want to force you to cite these papers, but we appreciate if you do
You receive ORCA, which is the product of decades of hard work by many enthusiastic individuals, for free
The only thing we kindly ask in return is that you cite our papers,
We deeply appreciate it, if you show your appreciation for ORCA by not just citing the generic ORCA reference.

Please note that relegating all ORCA citations to the supporting information does *not* help us.
SI sections are not indexed - citations you put there will not count into any citation statistics
But we need these citations in order to attract the funding resources that allow us to do what we are doing

Therefore, if you are a happy ORCA user, please consider citing a few of the papers listed below in the main body of your paper

In addition to the list printed below, the program has created the file nmr-conf-12.bibtex that contains the list in bibtex format
You can import this file easily into all common literature databanks and citation aid programs


List of essential papers. We consider these as the minimum necessary citations

  1. Neese, F.
     Software update: the ORCA program system, version 6.0
     WIRES Comput. Molec. Sci. 2025 15(1), e70019
     doi.org/10.1002/wcms.7019

List of papers to cite with high priority. The work reported in these papers was absolutely
necessary for this run to complete.
Our perspective: the developers of density functionals and basis sets usually get cited in chemistry papers
Good! But without the algorithms to do something with them, the functionals or basis sets would not do anything.
Hence, in our opinion, the algorithm design and method developments papers are equally worthy of getting cited

  1. Neese, F.
     An improvement of the resolution of the identity approximation for the formation of the Coulomb matrix
     J. Comp. Chem. 2003 24(14), 1740-1747
     doi.org/10.1002/jcc.10318
  2. Stoychev, G.L.; Auer, A.A.; Neese, F.
     Automatic Generation of Auxiliary Basis Sets
     J. Theo. Comp. Chem. 2017 13 , 554-562
     doi.org/10.1021/acs.jctc.6b01041
  3. Stoychev, G.L.; Auer, A.A.; Izsak, R.; Neese, F.
     Self-Consistent Field Calculation of Nuclear Magnetic Resonance Chemical Shielding Constants Using Gauge-Including Atomic Orbitals and Approximate Two-Electron Integrals
     J. Chem. Theory Comput. 2018 14(2), 619-637
     doi.org/10.1021/acs.jctc.7b01006
  4. Garcia-Rates, M.; Neese, F.
     Effect of the Solute Cavity on the Solvation Energy and its Derivatives within the Framework of the Gaussian Charge Scheme
     J. Comput. Chem. 2020 41 , 922-939
     doi.org/10.1002/jcc.26139
  5. Neese, F.
     The SHARK Integral Generation and Digestion System
     J. Comp. Chem. 2022 44(3), 381
     doi.org/10.1002/jcc.26942

List of suggested additional citations. These are papers that are important in the 'surrounding' of 
of this run, or papers that preceded the highly important papers. If you like your results we are grateful for a citation.

  1. Neese, F.
     The ORCA program system
     WIRES Comput. Molec. Sci. 2012 2(1), 73-78
     doi.org/10.1002/wcms.81
  2. Neese, F.
     Software update: the ORCA program system, version 4.0
     WIRES Comput. Molec. Sci. 2018 8(1), 1-6
     doi.org/10.1002/wcms.1327
  3. Neese, F.; Wennmohs, F.; Becker, U.; Riplinger, C.
     The ORCA quantum chemistry program package
     J. Chem. Phys. 2020 152(22), 224108
     doi.org/10.1063/5.0004608
  4. Neese, F.
     Software update: The ORCA program system—Version 5.0
     WIRES Comput. Molec. Sci. 2022 12(1), e1606
     doi.org/10.1002/wcms.1606

List of optional additional citations

  1. Neese, F.
     Approximate second-order SCF convergence for spin unrestricted wavefunctions
     Chem. Phys. Lett. 2000 325(1-3), 93-98
     doi.org/10.1016/s0009-2614(00)00662-x

Timings for individual modules:

Sum of individual times          ...      218.372 sec (=   3.640 min)
Startup calculation              ...       41.309 sec (=   0.688 min)  18.9 %
SCF iterations                   ...      102.095 sec (=   1.702 min)  46.8 %
Property integrals               ...       55.300 sec (=   0.922 min)  25.3 %
SCF Response                     ...       12.463 sec (=   0.208 min)   5.7 %
Property calculations            ...        7.205 sec (=   0.120 min)   3.3 %
                             ****ORCA TERMINATED NORMALLY****
TOTAL RUN TIME: 0 days 0 hours 3 minutes 47 seconds 90 msec
