
                                 *****************
                                 * O   R   C   A *
                                 *****************

                                            #,                                       
                                            ###                                      
                                            ####                                     
                                            #####                                    
                                            ######                                   
                                           ########,                                 
                                     ,,################,,,,,                         
                               ,,#################################,,                 
                          ,,##########################################,,             
                       ,#########################################, ''#####,          
                    ,#############################################,,   '####,        
                  ,##################################################,,,,####,       
                ,###########''''           ''''###############################       
              ,#####''   ,,,,##########,,,,          '''####'''          '####       
            ,##' ,,,,###########################,,,                        '##       
           ' ,,###''''                  '''############,,,                           
         ,,##''                                '''############,,,,        ,,,,,,###''
      ,#''                                            '''#######################'''  
     '                                                          ''''####''''         
             ,#######,   #######,   ,#######,      ##                                
            ,#'     '#,  ##    ##  ,#'     '#,    #''#        ,####,    ,#,          
            ##       ##  ##   ,#'  ##            #'  '#       #'       ,# #          
            ##       ##  #######   ##           ,######,      #####,      #          
            '#,     ,#'  ##    ##  '#,     ,#' ,#      #,     #,   #      #          
             '#######'   ##     ##  '#######'  #'      '#     '####' #    #          



                #########################################################
                #                        -***-                          #
                #          Department of theory and spectroscopy        #
                #                                                       #
                #                      Frank Neese                      #
                #                                                       #
                #     Directorship, Architecture, Infrastructure        #
                #                    SHARK, DRIVERS                     #
                #        Core code/Algorithms in most modules           #
                #                                                       #
                #        Max Planck Institute fuer Kohlenforschung      #
                #                Kaiser Wilhelm Platz 1                 #
                #                 D-45470 Muelheim/Ruhr                 #
                #                      Germany                          #
                #                                                       #
                #                  All rights reserved                  #
                #                        -***-                          #
                #########################################################


                         Program Version 6.1.0-f.0  -   RELEASE   -


 With contributions from (in alphabetic order):
[Max-Planck-Institut fuer Kohlenforschung]                               
  Daniel Aravena         : Magnetic Suceptibility                        
  Michael Atanasov       : Ab Initio Ligand Field Theory (pilot matlab implementation)
  Alexander A. Auer      : GIAO ZORA, VPT2 properties, NMR spectrum      
  Ute Becker             : All parallelization in ORCA, NUMFREQ, NUMCALC 
  Giovanni Bistoni       : ED, misc. LED, open-shell LED, HFLD           
  Dmytro Bykov           : pre 5.0 version of the SCF Hessian            
  Marcos Casanova-Páez   : Triplet and SCS-CIS(D). UHF-(DLPNO)-IP/EA/STEOM-CCSD. UHF-CVS-IP/STEOM-CCSD   
  Vijay G. Chilkuri      : MRCI spin determinant printing, contributions to CSF-ICE 
  Pauline Colinet        : FMM embedding                                 
  Dipayan Datta          : RHF DLPNO-CCSD density                        
  Achintya Kumar Dutta   : EOM-CC, STEOM-CC                              
  Nicolas Foglia         : Exact transition moments, OPA infrastructure, MCD improvements    
  Dmitry Ganyushin       : Spin-Orbit,Spin-Spin,Magnetic field MRCI      
  Miquel Garcia-Rates    : C-PCM and meta-GGA Hessian, CCSD/C-PCM, Gaussian charge scheme 
  Tiago L. C. Gouveia    : GS-ROHF, GS-ROCIS                             
  Yang Guo               : DLPNO-NEVPT2, F12-NEVPT2, CIM, IAO-localization        
  Andreas Hansen         : Spin unrestricted coupled pair/coupled cluster methods 
  Ingolf Harden          : AUTO-CI MPn and infrastructure                
  Benjamin Helmich-Paris : MC-RPA, TRAH-(SCF,CASSCF), AVAS, COSX integrals, SCF dyn. polar., MC-PDFT, srDFT 
  Lee Huntington         : MR-EOM, pCC                                   
  Robert Izsak           : Overlap fitted RIJCOSX, COSX-SCS-MP3, EOM     
  Riya Kayal             : Wick's Theorem for AUTO-CI, AUTO-CI UHF-CCSDT 
  Emily Kempfer          : AUTO-CI RHF CISDT and CCSDT, approximate NEVPT4
  Christian Kollmar      : KDIIS, OOCD, Brueckner-CCSD(T), CCSD density, CASPT2, CASPT2-K, improved NEVPT2 
  Axel Koslowski         : Symmetry handling                             
  Simone Kossmann        : meta-GGA functionals, TD-DFT gradient, OOMP2, (MP2 Hessian; deprecated post 5.0) 
  Lucas Lang             : DCDCAS, Hyperfine gauge corrections, ICE-SOC+SSC
  Marvin Lechner         : AUTO-CI (C++ implementation), FIC-MRCC        
  Spencer Leger          : CASSCF response                               
  Dagmar Lenk            : GEPOL surface, SMD, ORCA-2-JSON               
  Dimitrios Liakos       : Extrapolation schemes; Compound Job, Property file
  Dimitrios Manganas     : Further ROCIS development; embedding schemes. LFT, Crystal Embedding 
  Dimitrios Pantazis     : SARC Basis sets                               
  Anastasios Papadopoulos: AUTO-CI, single reference methods and gradients 
  Taras Petrenko         : pre 6.0 DFT Hessian and TD-DFT gradient,  ECA, NRVS 
  Petra Pikulova         : Analytic Raman intensities                    
  Peter Pinski           : DLPNO-MP2, DLPNO-MP2 Gradient                 
  Shashank Vittal Rao    : ES-AILFT, MagRelax                            
  Christoph Reimann      : Effective Core Potentials                     
  Marius Retegan         : Local ZFS, SOC                                
  Christoph Riplinger    : Optimizer, TS searches, QM/MM, DLPNO-CCSD(T), (RO)-DLPNO pert. Triples 
  Michael Roemelt        : Original ROCIS implementation, recursive CI coupling coefficients
  Masaaki Saitow         : Open-shell DLPNO-CCSD energy and density      
  Barbara Sandhoefer     : DKH picture change effects                    
  Yorick L. A. Schmerwitz: GMF and freeze-and-release deltaSCF, NEB S-IDPP initial path                    
  Kantharuban Sivalingam : CASSCF convergence/infrastructure, NEVPT2, NEVPT3, NEVPT4(SD), FIC-MRCI and CEPA variants
  Bernardo de Souza      : ESD, SOC TD-DFT                               
  Georgi L. Stoychev     : AutoAux, RI-MP2 NMR, DLPNO-MP2 response, X2C  
  Van Anh Tran           : RI-MP2 g-tensors                              
  Willem Van den Heuvel  : Paramagnetic NMR                              
  Zikuan Wang            : NOTCH, Electric field optimization            
  Frank Wennmohs         : Technical directorship and infrastructure     
  Hang Xu                : AUTO-CI-Response properties                   
                                                                         
[FACCTs GmbH]                                                            
  Markus Bursch, Nicolas Foglia, Miquel Garcia-Rates, Ingolf Harden, Hagen Neugebauer, Anastasios Papadopoulos, 
  Christoph Riplinger, Bernardo de Souza, Georgi L. Stoychev                                                    
                                                                 
  APM, various basis sets, CI-OPT, improved COSX, DLPNO-Multilevel,           
  DOCKER, DRACO, updates on ESD, Fragmentator, GOAT, IRC, LR-CPCM, L-BFGS, MBIS, meta-GGA TD-DFT gradient, ML-optimized integration grids, 
  MM, NACMEs, nearIR, NEB, NEB-TS, NL-DFT gradient (VV10), 2- and 3-layer-ONIOM, interface openCOSMO-RS, QMMM,   
  Crystal-QMMM, RESP, rigid body optimization, SF, symmetry and pop. for TD-DFT, various functionals, SOLVATOR                                   
                                                                         
[Other institutions]                                                     
  V. Asgeirsson          : NEB                                           
  Christoph Bannwarth    : sTDA-DFT, sTD-DFT, PBEh-3c, B97-3c, D3        
  Giovanni Bistoni       : ETS/NOCV, ADLD/ADEX, COVALED                  
  Martin Brehm           : Molecular dynamics                            
  Ronald Cardenas        : ETS/NOCV                                      
  Martina Colucci        : COVALED                                       
  Sebastian Ehlert       : rSCAN, r2SCAN, r2SCAN-3c, D4, dhf basis sets  
  Marvin Friede          : D4 for Fr, Ra, Ac-Lr                          
  Lars Goerigk           : TD-DFT with DH, B97 family of functionals     
  Stefan Grimme          : VdW corrections, initial TS optimization, DFT functionals, gCP, sTDA/sTD-DF 
  Waldemar Hujo          : DFT-NL                                        
  H. Jonsson             : NEB                                           
  Holger Kruse           : gCP                                           
  Marcel Mueller         : wB97X-3c, vDZP basis set                      
  Hagen Neugebauer       : wr2SCAN, Native XTB                           
  Gianluca Regni         : ADLD/ADEX                                     
  Tobias Risthaus        : pre 6.0 range-separated hybrid DFT and stability analysis
  Lukas Wittmann         : regularized MP2, r2SCAN double-hybrids, wr2SCAN        
                                                                         
We gratefully acknowledge several colleagues who have allowed us to      
interface, adapt or use parts of their codes:                            
  Ed Valeev, F. Pavosevic, A. Kumar             : LibInt (2-el integral package), F12 methods 
  Garnet Chan, S. Sharma, J. Yang, R. Olivares  : DMRG                   
  Ulf Ekstrom                                   : XCFun DFT Library      
  Mihaly Kallay                                 : mrcc  (arbitrary order and MRCC methods)
  Frank Weinhold                                : gennbo (NPA and NBO analysis)           
  Simon Mueller                                 : openCOSMO-RS                            
  Christopher J. Cramer and Donald G. Truhlar   : smd solvation model                     
  S Lehtola, MJT Oliveira, MAL Marques          : LibXC Library                           
  Liviu Ungur et al                             : ANISO software                          


 Your calculation uses the libint2 library for the computation of 2-el integrals
 For citations please refer to: http://libint.valeyev.net

 Your ORCA version has been built with support for libXC version: 7.0.0
 For citations please refer to: https://libxc.gitlab.io

 This ORCA versions uses:
   CBLAS   interface :  Fast vector & matrix operations
   LAPACKE interface :  Fast linear algebra routines
   SCALAPACK package :  Parallel linear algebra routines
   Shared memory     :  Shared parallel matrices
   BLAS/LAPACK       :  OpenBLAS 0.3.29  USE64BITINT DYNAMIC_ARCH NO_AFFINITY Cooperlake SINGLE_THREADED
        Core in use  :  Cooperlake
   Copyright (c) 2011-2014, The OpenBLAS Project


  ***********************************
  * Starting time: Wed Mar  4 13:39:40 2026
  * Host name:     c08b01n03
  * Process ID:    3338421
  * Working dir.:  /lustre1/jiangy/jiangy_liuxy/NMR/B9D7C2-SSRR-NMR/opt_conf
  ***********************************

NOTE: MaxCore=5000 MB was set to SCF,MP2,MDCI,CIPSI,MRCI,RASCI and CIS
      => If you want to overwrite this, your respective input block should be placed after the MaxCore statement


***************************************
The coordinates will be read from file: opt-conf-1.xyz
***************************************



Warning: The global flag for NMR shieldings has been found
         but shieldings for certain elements have also been explicitly requested in the EPRNMR block
         ==>> only the requested shieldings will be calculated

================================================================================

----- Orbital basis set information -----
Your calculation utilizes the basis: pcSseg-2
   F. Jensen, J. Chem. Theory Comput. 11, 132 (2015).

----- AuxJ basis set information -----
Your calculation utilizes the AutoAux generation procedure.
  G. L. Stoychev, A. A. Auer, F. Neese, J. Chem. Theory Comput. 13, 554 (2017)

----- AuxC basis set information -----
Your calculation utilizes the AutoAux generation procedure.
  G. L. Stoychev, A. A. Auer, F. Neese, J. Chem. Theory Comput. 13, 554 (2017)

----- AuxJK basis set information -----
Your calculation utilizes the AutoAux generation procedure.
  G. L. Stoychev, A. A. Auer, F. Neese, J. Chem. Theory Comput. 13, 554 (2017)

----- AuxX basis set information -----
Your calculation utilizes the AutoAux generation procedure.
  G. L. Stoychev, A. A. Auer, F. Neese, J. Chem. Theory Comput. 13, 554 (2017)

================================================================================
                                        WARNINGS
                       Please study these warnings very carefully!
================================================================================


================================================================================
                                       INPUT FILE
================================================================================
NAME = nmr-conf-1.inp
|  1> !TPSS PCSSEG-2 AUTOAUX NMR CPCM(Methanol)
|  2> 
|  3> %pal nprocs 60 end
|  4> %maxcore 5000
|  5> 
|  6> *XYZFILE 0 1 opt-conf-1.xyz
|  7> 
|  8> %EPRNMR
|  9>    NUCLEI = ALL C {SHIFT}
| 10>    NUCLEI = ALL H {SHIFT}
| 11>    TAU DOBSON
| 12> END
| 13> 
| 14> 
| 15>                          ****END OF INPUT****
================================================================================

                       ****************************
                       * Single Point Calculation *
                       ****************************

---------------------------------
CARTESIAN COORDINATES (ANGSTROEM)
---------------------------------
  C     23.146053  -32.489990   -0.654585
  C     23.812306  -33.205861    0.345470
  C     23.235363  -34.373042    0.847471
  C     22.030680  -34.845312    0.335634
  C     21.369177  -34.131779   -0.659991
  C     21.921448  -32.945516   -1.139060
  C     20.060949  -34.628145   -1.222961
  C     18.804773  -33.904627   -0.684074
  C     17.609804  -34.190366   -1.636884
  C     17.625064  -33.266264   -2.895629
  C     18.147132  -31.860185   -2.713491
  C     17.621995  -31.012482   -1.733221
  C     18.167194  -29.761548   -1.513373
  C     19.219123  -29.293794   -2.312007
  C     19.729013  -30.115094   -3.302189
  C     19.205047  -31.393437   -3.487356
  C     18.581728  -34.247220    0.785924
  C     16.218819  -34.300030   -0.998871
  O     23.919327  -34.968698    1.870493
  O     23.769117  -31.365352   -1.091588
  O     25.054169  -32.849679    0.814102
  O     19.739905  -28.047886   -2.119339
  O     17.778761  -28.913235   -0.502613
  C     25.237747  -31.606918    1.524770
  C     24.441861  -31.577375    2.842892
  C     22.962247  -31.314109    2.607324
  C     26.734698  -31.514866    1.752916
  O     27.455494  -31.475409    0.523907
  C     22.583458  -30.165052    1.905427
  C     21.254195  -29.932350    1.594337
  C     20.276704  -30.854181    1.995799
  C     20.641789  -31.957036    2.743575
  C     21.981212  -32.187734    3.047846
  C     23.075318  -30.533056   -2.019149
  C     23.331319  -36.108753    2.500299
  C     16.441977  -29.046580   -0.001916
  O     24.688965  -32.741448    3.615060
  O     17.721804  -33.308538    1.458536
  O     15.703499  -33.123182   -0.379353
  O     20.781358  -28.858399    0.902426
  O     18.961382  -30.667640    1.659832
  C     21.692755  -27.803210    0.600074
  H     21.595472  -35.758358    0.713784
  H     21.400310  -32.391689   -1.906333
  H     19.959517  -35.699850   -1.028384
  H     20.079339  -34.508071   -2.308215
  H     19.020892  -32.835776   -0.704992
  H     17.765805  -35.206609   -2.019705
  H     16.606302  -33.231622   -3.294048
  H     18.232446  -33.739896   -3.668618
  H     16.810093  -31.367879   -1.116663
  H     20.543192  -29.753097   -3.917288
  H     19.636822  -32.035101   -4.246042
  H     18.117625  -35.226785    0.909357
  H     19.545616  -34.272296    1.297812
  H     15.510677  -34.567903   -1.786096
  H     16.220779  -35.123802   -0.276375
  H     19.246109  -27.622370   -1.402361
  H     24.924566  -30.780125    0.888535
  H     24.847177  -30.744239    3.425574
  H     26.958848  -30.585316    2.277226
  H     27.067837  -32.353813    2.371924
  H     27.216696  -32.267621    0.024646
  H     23.336167  -29.460479    1.582477
  H     19.875809  -32.643448    3.079761
  H     22.253505  -33.068501    3.610905
  H     22.116218  -30.209956   -1.611895
  H     23.716500  -29.670271   -2.181717
  H     22.909920  -31.051372   -2.966424
  H     22.349496  -35.863901    2.910708
  H     23.239874  -36.938030    1.796197
  H     24.009086  -36.384198    3.304305
  H     15.724828  -29.022390   -0.824425
  H     16.322895  -29.974165    0.560448
  H     16.283896  -28.197422    0.658217
  H     24.515498  -33.523181    3.060924
  H     18.144252  -32.431772    1.445909
  H     16.262340  -32.992086    0.410734
  H     18.873559  -29.893821    1.075506
  H     21.102577  -27.017312    0.138248
  H     22.161390  -27.426508    1.512174
  H     22.463467  -28.138645   -0.096362

----------------------------
CARTESIAN COORDINATES (A.U.)
----------------------------
  NO LB      ZA    FRAG     MASS         X           Y           Z
   0 C     6.0000    0    12.011   43.739701  -61.397183   -1.236986
   1 C     6.0000    0    12.011   44.998736  -62.749983    0.652844
   2 C     6.0000    0    12.011   43.908473  -64.955635    1.601489
   3 C     6.0000    0    12.011   41.631952  -65.848096    0.634257
   4 C     6.0000    0    12.011   40.381892  -64.499715   -1.247203
   5 C     6.0000    0    12.011   41.425533  -62.258003   -2.152512
   6 C     6.0000    0    12.011   37.909700  -65.437710   -2.311062
   7 C     6.0000    0    12.011   35.535871  -64.070459   -1.292713
   8 C     6.0000    0    12.011   33.277707  -64.610429   -3.093262
   9 C     6.0000    0    12.011   33.306543  -62.864128   -5.471945
  10 C     6.0000    0    12.011   34.293110  -60.207024   -5.127755
  11 C     6.0000    0    12.011   33.300744  -58.605098   -3.275314
  12 C     6.0000    0    12.011   34.331022  -56.241174   -2.859861
  13 C     6.0000    0    12.011   36.318879  -55.357249   -4.369061
  14 C     6.0000    0    12.011   37.282432  -56.909280   -6.240234
  15 C     6.0000    0    12.011   36.292279  -59.324998   -6.590147
  16 C     6.0000    0    12.011   35.114378  -64.717867    1.485181
  17 C     6.0000    0    12.011   30.649126  -64.817663   -1.887592
  18 O     8.0000    0    15.999   45.200977  -66.081262    3.534720
  19 O     8.0000    0    15.999   44.917122  -59.271925   -2.062803
  20 O     8.0000    0    15.999   47.345517  -62.076896    1.538430
  21 O     8.0000    0    15.999   37.303014  -53.002823   -4.004971
  22 O     8.0000    0    15.999   33.596989  -54.638096   -0.949800
  23 C     6.0000    0    12.011   47.692430  -59.728419    2.881398
  24 C     6.0000    0    12.011   46.188424  -59.672591    5.372287
  25 C     6.0000    0    12.011   43.392358  -59.175091    4.927129
  26 C     6.0000    0    12.011   50.521257  -59.554465    3.312530
  27 O     8.0000    0    15.999   51.883364  -59.479904    0.990041
  28 C     6.0000    0    12.011   42.676551  -57.003688    3.600736
  29 C     6.0000    0    12.011   40.164608  -56.563945    3.012861
  30 C     6.0000    0    12.011   38.317418  -58.305952    3.771513
  31 C     6.0000    0    12.011   39.007328  -60.390045    5.184605
  32 C     6.0000    0    12.011   41.538470  -60.826001    5.759594
  33 C     6.0000    0    12.011   43.606031  -57.699114   -3.815638
  34 C     6.0000    0    12.011   44.089803  -68.235654    4.724881
  35 C     6.0000    0    12.011   31.070833  -54.890081   -0.003620
  36 O     8.0000    0    15.999   46.655382  -61.872369    6.831473
  37 O     8.0000    0    15.999   33.489357  -62.944015    2.756233
  38 O     8.0000    0    15.999   29.675312  -62.593743   -0.716872
  39 O     8.0000    0    15.999   39.271076  -54.534471    1.705339
  40 O     8.0000    0    15.999   35.831819  -57.953440    3.136628
  41 C     6.0000    0    12.011   40.993366  -52.540453    1.133976
  42 H     1.0000    0     1.008   40.809528  -67.573503    1.348857
  43 H     1.0000    0     1.008   40.440724  -61.211422   -3.602446
  44 H     1.0000    0     1.008   37.718020  -67.462939   -1.943365
  45 H     1.0000    0     1.008   37.944452  -65.210804   -4.361894
  46 H     1.0000    0     1.008   35.944276  -62.050623   -1.332241
  47 H     1.0000    0     1.008   33.572506  -66.530849   -3.816689
  48 H     1.0000    0     1.008   31.381363  -62.798664   -6.224848
  49 H     1.0000    0     1.008   34.454329  -63.759164   -6.932683
  50 H     1.0000    0     1.008   31.766472  -59.276701   -2.110188
  51 H     1.0000    0     1.008   38.821008  -56.225205   -7.402601
  52 H     1.0000    0     1.008   37.108215  -60.537568   -8.023856
  53 H     1.0000    0     1.008   34.237350  -66.568976    1.718436
  54 H     1.0000    0     1.008   36.935861  -64.765253    2.452509
  55 H     1.0000    0     1.008   29.310932  -65.323870   -3.375232
  56 H     1.0000    0     1.008   30.652829  -66.374366   -0.522272
  57 H     1.0000    0     1.008   36.369874  -52.198714   -2.650079
  58 H     1.0000    0     1.008   47.100603  -58.166006    1.679088
  59 H     1.0000    0     1.008   46.954361  -58.098192    6.473397
  60 H     1.0000    0     1.008   50.944840  -57.797870    4.303333
  61 H     1.0000    0     1.008   51.150799  -61.139846    4.482287
  62 H     1.0000    0     1.008   51.432102  -60.976966    0.046575
  63 H     1.0000    0     1.008   44.098965  -55.672237    2.990447
  64 H     1.0000    0     1.008   37.559836  -61.687177    5.819905
  65 H     1.0000    0     1.008   42.053031  -62.490410    6.823622
  66 H     1.0000    0     1.008   41.793596  -57.088542   -3.046039
  67 H     1.0000    0     1.008   44.817690  -56.068686   -4.122848
  68 H     1.0000    0     1.008   43.293474  -58.678589   -5.605729
  69 H     1.0000    0     1.008   42.234426  -67.772952    5.500442
  70 H     1.0000    0     1.008   43.916997  -69.802761    3.394320
  71 H     1.0000    0     1.008   45.370597  -68.756170    6.244232
  72 H     1.0000    0     1.008   29.715618  -54.844369   -1.557937
  73 H     1.0000    0     1.008   30.845802  -56.642963    1.059092
  74 H     1.0000    0     1.008   30.772103  -53.285405    1.243849
  75 H     1.0000    0     1.008   46.327578  -63.349631    5.784307
  76 H     1.0000    0     1.008   34.287667  -61.287168    2.732372
  77 H     1.0000    0     1.008   30.731369  -62.346007    0.776175
  78 H     1.0000    0     1.008   35.665857  -56.491135    2.032413
  79 H     1.0000    0     1.008   39.878091  -51.055321    0.261250
  80 H     1.0000    0     1.008   41.878957  -51.828589    2.857595
  81 H     1.0000    0     1.008   42.449801  -53.174333   -0.182098

--------------------------------
INTERNAL COORDINATES (ANGSTROEM)
--------------------------------
 C      0   0   0     0.000000000000     0.00000000     0.00000000
 C      1   0   0     1.398740184533     0.00000000     0.00000000
 C      2   1   0     1.395413405151   119.23280980     0.00000000
 C      3   2   1     1.391501731679   120.63080518     1.87224354
 C      4   3   2     1.392115548860   120.03258851   358.13364592
 C      5   4   3     1.393459368273   119.59677283     0.04702700
 C      5   4   3     1.508235376123   120.69287293   180.15368465
 C      7   5   4     1.546562901241   114.86637598   101.97664291
 C      8   7   5     1.554812895309   108.95037686   162.70250320
 C      9   8   7     1.561613938148   112.19113986   278.84238932
 C     10   9   8     1.510889527042   117.18837295   326.02898347
 C     11  10   9     1.398319805586   121.25975687   306.01530694
 C     12  11  10     1.382176870095   120.79959531   175.53069992
 C     13  12  11     1.401129248208   120.50543089     2.97001485
 C     14  13  12     1.383828544551   119.10099902   358.32646625
 C     11  10   9     1.391367476581   120.52182908   123.43578664
 C      8   7   5     1.525783382290   110.45028005   291.08610615
 C      9   8   7     1.534251285581   117.07097049   146.22697185
 O      3   2   1     1.367181854518   115.26287880   183.33760522
 O      1   2   3     1.357936790591   115.81094535   179.96276537
 O      2   1   3     1.374301776425   122.79116595   176.48456596
 O     14  13  12     1.364046696230   120.73414251   178.46545593
 O     13  12  11     1.375554955698   124.30778558   185.35010599
 C     21   2   1     1.443330670026   120.39715146    65.37853751
 C     24  21   2     1.540049607651   111.85216109    63.39696334
 C     25  24  21     1.521203301173   111.92808382   282.74500784
 C     24  21   2     1.517031927941   104.58423576   185.23154016
 O     27  24  21     1.425330187319   111.77823550    61.42722319
 C     26  25  24     1.398739728760   118.90001445   304.01077755
 C     29  26  25     1.384870874412   120.71003976   175.79068526
 C     30  29  26     1.402294567401   119.62395178     0.45483920
 C     31  30  29     1.381573488394   119.70318889     2.59983899
 C     26  25  24     1.385535500495   122.02837366   122.96219362
 C     20   1   2     1.426338741692   117.99288374   185.74194668
 C     19   3   2     1.429032714056   118.13231148   175.22010831
 C     23  13  12     1.433691118138   117.55223139   333.80535307
 O     25  24  21     1.418579597459   111.10775044    50.52853640
 O     17   8   7     1.439791626297   113.01672535   161.18017136
 O     18   9   8     1.426298745217   116.69299208    64.33433709
 O     30  29  26     1.362235741772   125.43188964   180.88630859
 O     31  30  29     1.370308245948   120.62482748   182.23142420
 C     40  30  29     1.426703995054   117.96858306   352.31050141
 H      4   3   2     1.079840986233   120.46962149   178.89681705
 H      6   5   4     1.080285279213   119.30292928   180.46700691
 H      7   5   4     1.093937741386   109.66071983   339.20291997
 H      7   5   4     1.092030724354   108.67224223   223.01164401
 H      8   7   5     1.090681915646   106.90776706    45.39931072
 H      9   8   7     1.097103642599   105.94901336    33.34820582
 H     10   9   8     1.094446042994   107.64199058   201.98546422
 H     10   9   8     1.091216500253   108.63739142    87.73826788
 H     12  11  10     1.079646037710   118.89459255   358.33090686
 H     15  14  13     1.082716572730   119.02213094   180.12036447
 H     16  11  10     1.083405415170   119.59258920     1.82310096
 H     17   8   7     1.090950970025   111.88873244   280.96379764
 H     17   8   7     1.091667054631   109.13804246    39.90147943
 H     18   9   8     1.092219728360   107.79513608   183.80080899
 H     18   9   8     1.095720754590   109.04533924   299.60301259
 H     22  14  13     0.968997324086   108.12250720   358.71078617
 H     24  21   2     1.089249676678   109.23220044   301.78203541
 H     25  24  21     1.094493251909   106.19342851   164.97635601
 H     27  24  21     1.090508259110   109.07805991   179.15243640
 H     27  24  21     1.094525632794   109.80878075   298.04789647
 H     28  27  24     0.966376907647   107.32646689   302.91930853
 H     29  26  25     1.080413060072   119.80523853   357.13332793
 H     32  31  30     1.082085440825   119.17442044   177.76181020
 H     33  26  25     1.080245534285   120.08890151     2.44190771
 H     34  20   1     1.090926750771   110.95873335    57.24625651
 H     34  20   1     1.087171320768   105.86969715   176.36422097
 H     34  20   1     1.092400349056   111.14308576   295.35453177
 H     35  19   3     1.091954323738   110.89946329   301.82841394
 H     35  19   3     1.091706537663   110.86866440    63.97701058
 H     35  19   3     1.087043787631   105.75754894   182.79736674
 H     36  23  13     1.091516576699   110.32739064   308.29339246
 H     36  23  13     1.091259432245   111.14799968    70.08875597
 H     36  23  13     1.087121986143   105.96205346   189.06292728
 H     37  25  24     0.973788850938   108.54025007   306.40214550
 H     38  17   8     0.973313469026   108.78384332   297.63035561
 H     39  18   9     0.976589166791   104.79825413   290.79745845
 H     41  31  30     0.973624063554   109.99394217     4.99324463
 H     42  40  30     1.085923393147   106.15304850   185.27941411
 H     42  40  30     1.092450935875   110.61756781   304.33629264
 H     42  40  30     1.091575536563   111.03705743    66.27805064

---------------------------
INTERNAL COORDINATES (A.U.)
---------------------------
 C      0   0   0     0.000000000000     0.00000000     0.00000000
 C      1   0   0     2.643235881278     0.00000000     0.00000000
 C      2   1   0     2.636949179339   119.23280980     0.00000000
 C      3   2   1     2.629557187751   120.63080518     1.87224354
 C      4   3   2     2.630717134119   120.03258851   358.13364592
 C      5   4   3     2.633256584784   119.59677283     0.04702700
 C      5   4   3     2.850151806364   120.69287293   180.15368465
 C      7   5   4     2.922580332228   114.86637598   101.97664291
 C      8   7   5     2.938170561624   108.95037686   162.70250320
 C      9   8   7     2.951022670013   112.19113986   278.84238932
 C     10   9   8     2.855167424720   117.18837295   326.02898347
 C     11  10   9     2.642441480196   121.25975687   306.01530694
 C     12  11  10     2.611935753120   120.79959531   175.53069992
 C     13  12  11     2.647750557340   120.50543089     2.97001485
 C     14  13  12     2.615056965505   119.10099902   358.32646625
 C     11  10   9     2.629303482384   120.52182908   123.43578664
 C      8   7   5     2.883312732216   110.45028005   291.08610615
 C      9   8   7     2.899314750365   117.07097049   146.22697185
 O      3   2   1     2.583599280306   115.26287880   183.33760522
 O      1   2   3     2.566128641393   115.81094535   179.96276537
 O      2   1   3     2.597053982806   122.79116595   176.48456596
 O     14  13  12     2.577674689755   120.73414251   178.46545593
 O     13  12  11     2.599422148428   124.30778558   185.35010599
 C     21   2   1     2.727499687037   120.39715146    65.37853751
 C     24  21   2     2.910271991113   111.85216109    63.39696334
 C     25  24  21     2.874657633233   111.92808382   282.74500784
 C     24  21   2     2.866774880223   104.58423576   185.23154016
 O     27  24  21     2.693483704444   111.77823550    61.42722319
 C     26  25  24     2.643235019992   118.90001445   304.01077755
 C     29  26  25     2.617026683483   120.71003976   175.79068526
 C     30  29  26     2.649952691473   119.62395178     0.45483920
 C     31  30  29     2.610795526951   119.70318889     2.59983899
 C     26  25  24     2.618282644761   122.02837366   122.96219362
 C     20   1   2     2.695389595999   117.99288374   185.74194668
 C     19   3   2     2.700480465979   118.13231148   175.22010831
 C     23  13  12     2.709283573915   117.55223139   333.80535307
 O     25  24  21     2.680726938365   111.10775044    50.52853640
 O     17   8   7     2.720811863615   113.01672535   161.18017136
 O     18   9   8     2.695314013615   116.69299208    64.33433709
 O     30  29  26     2.574252481788   125.43188964   180.88630859
 O     31  30  29     2.589507303896   120.62482748   182.23142420
 C     40  30  29     2.696079824824   117.96858306   352.31050141
 H      4   3   2     2.040603732164   120.46962149   178.89681705
 H      6   5   4     2.041443324219   119.30292928   180.46700691
 H      7   5   4     2.067242738781   109.66071983   339.20291997
 H      7   5   4     2.063638998857   108.67224223   223.01164401
 H      8   7   5     2.061090119792   106.90776706    45.39931072
 H      9   8   7     2.073225425039   105.94901336    33.34820582
 H     10   9   8     2.068203289612   107.64199058   201.98546422
 H     10   9   8     2.062100338295   108.63739142    87.73826788
 H     12  11  10     2.040235332845   118.89459255   358.33090686
 H     15  14  13     2.046037803118   119.02213094   180.12036447
 H     16  11  10     2.047339526679   119.59258920     1.82310096
 H     17   8   7     2.061598558883   111.88873244   280.96379764
 H     17   8   7     2.062951762677   109.13804246    39.90147943
 H     18   9   8     2.063996164667   107.79513608   183.80080899
 H     18   9   8     2.070612145429   109.04533924   299.60301259
 H     22  14  13     1.831139567026   108.12250720   358.71078617
 H     24  21   2     2.058383580384   109.23220044   301.78203541
 H     25  24  21     2.068292501533   106.19342851   164.97635601
 H     27  24  21     2.060761956497   109.07805991   179.15243640
 H     27  24  21     2.068353692538   109.80878075   298.04789647
 H     28  27  24     1.826187697599   107.32646689   302.91930853
 H     29  26  25     2.041684795047   119.80523853   357.13332793
 H     32  31  30     2.044845136663   119.17442044   177.76181020
 H     33  26  25     2.041368217190   120.08890151     2.44190771
 H     34  20   1     2.061552791125   110.95873335    57.24625651
 H     34  20   1     2.054456056904   105.86969715   176.36422097
 H     34  20   1     2.064337488316   111.14308576   295.35453177
 H     35  19   3     2.063494622616   110.89946329   301.82841394
 H     35  19   3     2.063026374795   110.86866440    63.97701058
 H     35  19   3     2.054215054203   105.75754894   182.79736674
 H     36  23  13     2.062667400597   110.32739064   308.29339246
 H     36  23  13     2.062181468002   111.14799968    70.08875597
 H     36  23  13     2.054362827975   105.96205346   189.06292728
 H     37  25  24     1.840194240538   108.54025007   306.40214550
 H     38  17   8     1.839295898916   108.78384332   297.63035561
 H     39  18   9     1.845486070590   104.79825413   290.79745845
 H     41  31  30     1.839882837512   109.99394217     4.99324463
 H     42  40  30     2.052097815466   106.15304850   185.27941411
 H     42  40  30     2.064433083549   110.61756781   304.33629264
 H     42  40  30     2.062778818591   111.03705743    66.27805064

---------------------
BASIS SET INFORMATION
---------------------
There are 3 groups of distinct atoms

 Group   1 Type C   : 11s7p2d1f contracted to 4s5p2d1f pattern {7211/31111/11/1}
 Group   2 Type O   : 11s7p2d1f contracted to 4s5p2d1f pattern {7211/31111/11/1}
 Group   3 Type H   : 6s3p1d contracted to 3s2p1d pattern {411/21/1}

Atom   0C    basis set group =>   1
Atom   1C    basis set group =>   1
Atom   2C    basis set group =>   1
Atom   3C    basis set group =>   1
Atom   4C    basis set group =>   1
Atom   5C    basis set group =>   1
Atom   6C    basis set group =>   1
Atom   7C    basis set group =>   1
Atom   8C    basis set group =>   1
Atom   9C    basis set group =>   1
Atom  10C    basis set group =>   1
Atom  11C    basis set group =>   1
Atom  12C    basis set group =>   1
Atom  13C    basis set group =>   1
Atom  14C    basis set group =>   1
Atom  15C    basis set group =>   1
Atom  16C    basis set group =>   1
Atom  17C    basis set group =>   1
Atom  18O    basis set group =>   2
Atom  19O    basis set group =>   2
Atom  20O    basis set group =>   2
Atom  21O    basis set group =>   2
Atom  22O    basis set group =>   2
Atom  23C    basis set group =>   1
Atom  24C    basis set group =>   1
Atom  25C    basis set group =>   1
Atom  26C    basis set group =>   1
Atom  27O    basis set group =>   2
Atom  28C    basis set group =>   1
Atom  29C    basis set group =>   1
Atom  30C    basis set group =>   1
Atom  31C    basis set group =>   1
Atom  32C    basis set group =>   1
Atom  33C    basis set group =>   1
Atom  34C    basis set group =>   1
Atom  35C    basis set group =>   1
Atom  36O    basis set group =>   2
Atom  37O    basis set group =>   2
Atom  38O    basis set group =>   2
Atom  39O    basis set group =>   2
Atom  40O    basis set group =>   2
Atom  41C    basis set group =>   1
Atom  42H    basis set group =>   3
Atom  43H    basis set group =>   3
Atom  44H    basis set group =>   3
Atom  45H    basis set group =>   3
Atom  46H    basis set group =>   3
Atom  47H    basis set group =>   3
Atom  48H    basis set group =>   3
Atom  49H    basis set group =>   3
Atom  50H    basis set group =>   3
Atom  51H    basis set group =>   3
Atom  52H    basis set group =>   3
Atom  53H    basis set group =>   3
Atom  54H    basis set group =>   3
Atom  55H    basis set group =>   3
Atom  56H    basis set group =>   3
Atom  57H    basis set group =>   3
Atom  58H    basis set group =>   3
Atom  59H    basis set group =>   3
Atom  60H    basis set group =>   3
Atom  61H    basis set group =>   3
Atom  62H    basis set group =>   3
Atom  63H    basis set group =>   3
Atom  64H    basis set group =>   3
Atom  65H    basis set group =>   3
Atom  66H    basis set group =>   3
Atom  67H    basis set group =>   3
Atom  68H    basis set group =>   3
Atom  69H    basis set group =>   3
Atom  70H    basis set group =>   3
Atom  71H    basis set group =>   3
Atom  72H    basis set group =>   3
Atom  73H    basis set group =>   3
Atom  74H    basis set group =>   3
Atom  75H    basis set group =>   3
Atom  76H    basis set group =>   3
Atom  77H    basis set group =>   3
Atom  78H    basis set group =>   3
Atom  79H    basis set group =>   3
Atom  80H    basis set group =>   3
Atom  81H    basis set group =>   3
---------------------------------
AUXILIARY/J BASIS SET INFORMATION
---------------------------------
There are 3 groups of distinct atoms

 Group   1 Type C   : 15s13p12d5f5g contracted to 15s13p12d5f5g pattern {111111111111111/1111111111111/111111111111/11111/11111}
 Group   2 Type O   : 15s13p12d5f5g contracted to 15s13p12d5f5g pattern {111111111111111/1111111111111/111111111111/11111/11111}
 Group   3 Type H   : 12s4p3d2f contracted to 12s4p3d2f pattern {111111111111/1111/111/11}

Atom   0C    basis set group =>   1
Atom   1C    basis set group =>   1
Atom   2C    basis set group =>   1
Atom   3C    basis set group =>   1
Atom   4C    basis set group =>   1
Atom   5C    basis set group =>   1
Atom   6C    basis set group =>   1
Atom   7C    basis set group =>   1
Atom   8C    basis set group =>   1
Atom   9C    basis set group =>   1
Atom  10C    basis set group =>   1
Atom  11C    basis set group =>   1
Atom  12C    basis set group =>   1
Atom  13C    basis set group =>   1
Atom  14C    basis set group =>   1
Atom  15C    basis set group =>   1
Atom  16C    basis set group =>   1
Atom  17C    basis set group =>   1
Atom  18O    basis set group =>   2
Atom  19O    basis set group =>   2
Atom  20O    basis set group =>   2
Atom  21O    basis set group =>   2
Atom  22O    basis set group =>   2
Atom  23C    basis set group =>   1
Atom  24C    basis set group =>   1
Atom  25C    basis set group =>   1
Atom  26C    basis set group =>   1
Atom  27O    basis set group =>   2
Atom  28C    basis set group =>   1
Atom  29C    basis set group =>   1
Atom  30C    basis set group =>   1
Atom  31C    basis set group =>   1
Atom  32C    basis set group =>   1
Atom  33C    basis set group =>   1
Atom  34C    basis set group =>   1
Atom  35C    basis set group =>   1
Atom  36O    basis set group =>   2
Atom  37O    basis set group =>   2
Atom  38O    basis set group =>   2
Atom  39O    basis set group =>   2
Atom  40O    basis set group =>   2
Atom  41C    basis set group =>   1
Atom  42H    basis set group =>   3
Atom  43H    basis set group =>   3
Atom  44H    basis set group =>   3
Atom  45H    basis set group =>   3
Atom  46H    basis set group =>   3
Atom  47H    basis set group =>   3
Atom  48H    basis set group =>   3
Atom  49H    basis set group =>   3
Atom  50H    basis set group =>   3
Atom  51H    basis set group =>   3
Atom  52H    basis set group =>   3
Atom  53H    basis set group =>   3
Atom  54H    basis set group =>   3
Atom  55H    basis set group =>   3
Atom  56H    basis set group =>   3
Atom  57H    basis set group =>   3
Atom  58H    basis set group =>   3
Atom  59H    basis set group =>   3
Atom  60H    basis set group =>   3
Atom  61H    basis set group =>   3
Atom  62H    basis set group =>   3
Atom  63H    basis set group =>   3
Atom  64H    basis set group =>   3
Atom  65H    basis set group =>   3
Atom  66H    basis set group =>   3
Atom  67H    basis set group =>   3
Atom  68H    basis set group =>   3
Atom  69H    basis set group =>   3
Atom  70H    basis set group =>   3
Atom  71H    basis set group =>   3
Atom  72H    basis set group =>   3
Atom  73H    basis set group =>   3
Atom  74H    basis set group =>   3
Atom  75H    basis set group =>   3
Atom  76H    basis set group =>   3
Atom  77H    basis set group =>   3
Atom  78H    basis set group =>   3
Atom  79H    basis set group =>   3
Atom  80H    basis set group =>   3
Atom  81H    basis set group =>   3
---------------------------------
AUXILIARY/C BASIS SET INFORMATION
---------------------------------
There are 3 groups of distinct atoms

 Group   1 Type C   : 15s13p12d5f5g contracted to 15s13p12d5f5g pattern {111111111111111/1111111111111/111111111111/11111/11111}
 Group   2 Type O   : 15s13p12d5f5g contracted to 15s13p12d5f5g pattern {111111111111111/1111111111111/111111111111/11111/11111}
 Group   3 Type H   : 12s4p3d2f contracted to 12s4p3d2f pattern {111111111111/1111/111/11}

Atom   0C    basis set group =>   1
Atom   1C    basis set group =>   1
Atom   2C    basis set group =>   1
Atom   3C    basis set group =>   1
Atom   4C    basis set group =>   1
Atom   5C    basis set group =>   1
Atom   6C    basis set group =>   1
Atom   7C    basis set group =>   1
Atom   8C    basis set group =>   1
Atom   9C    basis set group =>   1
Atom  10C    basis set group =>   1
Atom  11C    basis set group =>   1
Atom  12C    basis set group =>   1
Atom  13C    basis set group =>   1
Atom  14C    basis set group =>   1
Atom  15C    basis set group =>   1
Atom  16C    basis set group =>   1
Atom  17C    basis set group =>   1
Atom  18O    basis set group =>   2
Atom  19O    basis set group =>   2
Atom  20O    basis set group =>   2
Atom  21O    basis set group =>   2
Atom  22O    basis set group =>   2
Atom  23C    basis set group =>   1
Atom  24C    basis set group =>   1
Atom  25C    basis set group =>   1
Atom  26C    basis set group =>   1
Atom  27O    basis set group =>   2
Atom  28C    basis set group =>   1
Atom  29C    basis set group =>   1
Atom  30C    basis set group =>   1
Atom  31C    basis set group =>   1
Atom  32C    basis set group =>   1
Atom  33C    basis set group =>   1
Atom  34C    basis set group =>   1
Atom  35C    basis set group =>   1
Atom  36O    basis set group =>   2
Atom  37O    basis set group =>   2
Atom  38O    basis set group =>   2
Atom  39O    basis set group =>   2
Atom  40O    basis set group =>   2
Atom  41C    basis set group =>   1
Atom  42H    basis set group =>   3
Atom  43H    basis set group =>   3
Atom  44H    basis set group =>   3
Atom  45H    basis set group =>   3
Atom  46H    basis set group =>   3
Atom  47H    basis set group =>   3
Atom  48H    basis set group =>   3
Atom  49H    basis set group =>   3
Atom  50H    basis set group =>   3
Atom  51H    basis set group =>   3
Atom  52H    basis set group =>   3
Atom  53H    basis set group =>   3
Atom  54H    basis set group =>   3
Atom  55H    basis set group =>   3
Atom  56H    basis set group =>   3
Atom  57H    basis set group =>   3
Atom  58H    basis set group =>   3
Atom  59H    basis set group =>   3
Atom  60H    basis set group =>   3
Atom  61H    basis set group =>   3
Atom  62H    basis set group =>   3
Atom  63H    basis set group =>   3
Atom  64H    basis set group =>   3
Atom  65H    basis set group =>   3
Atom  66H    basis set group =>   3
Atom  67H    basis set group =>   3
Atom  68H    basis set group =>   3
Atom  69H    basis set group =>   3
Atom  70H    basis set group =>   3
Atom  71H    basis set group =>   3
Atom  72H    basis set group =>   3
Atom  73H    basis set group =>   3
Atom  74H    basis set group =>   3
Atom  75H    basis set group =>   3
Atom  76H    basis set group =>   3
Atom  77H    basis set group =>   3
Atom  78H    basis set group =>   3
Atom  79H    basis set group =>   3
Atom  80H    basis set group =>   3
Atom  81H    basis set group =>   3
----------------------------------
AUXILIARY/JK BASIS SET INFORMATION
----------------------------------
There are 3 groups of distinct atoms

 Group   1 Type C   : 15s13p12d5f5g contracted to 15s13p12d5f5g pattern {111111111111111/1111111111111/111111111111/11111/11111}
 Group   2 Type O   : 15s13p12d5f5g contracted to 15s13p12d5f5g pattern {111111111111111/1111111111111/111111111111/11111/11111}
 Group   3 Type H   : 12s4p3d2f contracted to 12s4p3d2f pattern {111111111111/1111/111/11}

Atom   0C    basis set group =>   1
Atom   1C    basis set group =>   1
Atom   2C    basis set group =>   1
Atom   3C    basis set group =>   1
Atom   4C    basis set group =>   1
Atom   5C    basis set group =>   1
Atom   6C    basis set group =>   1
Atom   7C    basis set group =>   1
Atom   8C    basis set group =>   1
Atom   9C    basis set group =>   1
Atom  10C    basis set group =>   1
Atom  11C    basis set group =>   1
Atom  12C    basis set group =>   1
Atom  13C    basis set group =>   1
Atom  14C    basis set group =>   1
Atom  15C    basis set group =>   1
Atom  16C    basis set group =>   1
Atom  17C    basis set group =>   1
Atom  18O    basis set group =>   2
Atom  19O    basis set group =>   2
Atom  20O    basis set group =>   2
Atom  21O    basis set group =>   2
Atom  22O    basis set group =>   2
Atom  23C    basis set group =>   1
Atom  24C    basis set group =>   1
Atom  25C    basis set group =>   1
Atom  26C    basis set group =>   1
Atom  27O    basis set group =>   2
Atom  28C    basis set group =>   1
Atom  29C    basis set group =>   1
Atom  30C    basis set group =>   1
Atom  31C    basis set group =>   1
Atom  32C    basis set group =>   1
Atom  33C    basis set group =>   1
Atom  34C    basis set group =>   1
Atom  35C    basis set group =>   1
Atom  36O    basis set group =>   2
Atom  37O    basis set group =>   2
Atom  38O    basis set group =>   2
Atom  39O    basis set group =>   2
Atom  40O    basis set group =>   2
Atom  41C    basis set group =>   1
Atom  42H    basis set group =>   3
Atom  43H    basis set group =>   3
Atom  44H    basis set group =>   3
Atom  45H    basis set group =>   3
Atom  46H    basis set group =>   3
Atom  47H    basis set group =>   3
Atom  48H    basis set group =>   3
Atom  49H    basis set group =>   3
Atom  50H    basis set group =>   3
Atom  51H    basis set group =>   3
Atom  52H    basis set group =>   3
Atom  53H    basis set group =>   3
Atom  54H    basis set group =>   3
Atom  55H    basis set group =>   3
Atom  56H    basis set group =>   3
Atom  57H    basis set group =>   3
Atom  58H    basis set group =>   3
Atom  59H    basis set group =>   3
Atom  60H    basis set group =>   3
Atom  61H    basis set group =>   3
Atom  62H    basis set group =>   3
Atom  63H    basis set group =>   3
Atom  64H    basis set group =>   3
Atom  65H    basis set group =>   3
Atom  66H    basis set group =>   3
Atom  67H    basis set group =>   3
Atom  68H    basis set group =>   3
Atom  69H    basis set group =>   3
Atom  70H    basis set group =>   3
Atom  71H    basis set group =>   3
Atom  72H    basis set group =>   3
Atom  73H    basis set group =>   3
Atom  74H    basis set group =>   3
Atom  75H    basis set group =>   3
Atom  76H    basis set group =>   3
Atom  77H    basis set group =>   3
Atom  78H    basis set group =>   3
Atom  79H    basis set group =>   3
Atom  80H    basis set group =>   3
Atom  81H    basis set group =>   3
---------------------------------
AUXILIARY/X BASIS SET INFORMATION
---------------------------------
There are 3 groups of distinct atoms

 Group   1 Type C   : 15s13p12d5f5g contracted to 15s13p12d5f5g pattern {111111111111111/1111111111111/111111111111/11111/11111}
 Group   2 Type O   : 15s13p12d5f5g contracted to 15s13p12d5f5g pattern {111111111111111/1111111111111/111111111111/11111/11111}
 Group   3 Type H   : 12s4p3d2f contracted to 12s4p3d2f pattern {111111111111/1111/111/11}

Atom   0C    basis set group =>   1
Atom   1C    basis set group =>   1
Atom   2C    basis set group =>   1
Atom   3C    basis set group =>   1
Atom   4C    basis set group =>   1
Atom   5C    basis set group =>   1
Atom   6C    basis set group =>   1
Atom   7C    basis set group =>   1
Atom   8C    basis set group =>   1
Atom   9C    basis set group =>   1
Atom  10C    basis set group =>   1
Atom  11C    basis set group =>   1
Atom  12C    basis set group =>   1
Atom  13C    basis set group =>   1
Atom  14C    basis set group =>   1
Atom  15C    basis set group =>   1
Atom  16C    basis set group =>   1
Atom  17C    basis set group =>   1
Atom  18O    basis set group =>   2
Atom  19O    basis set group =>   2
Atom  20O    basis set group =>   2
Atom  21O    basis set group =>   2
Atom  22O    basis set group =>   2
Atom  23C    basis set group =>   1
Atom  24C    basis set group =>   1
Atom  25C    basis set group =>   1
Atom  26C    basis set group =>   1
Atom  27O    basis set group =>   2
Atom  28C    basis set group =>   1
Atom  29C    basis set group =>   1
Atom  30C    basis set group =>   1
Atom  31C    basis set group =>   1
Atom  32C    basis set group =>   1
Atom  33C    basis set group =>   1
Atom  34C    basis set group =>   1
Atom  35C    basis set group =>   1
Atom  36O    basis set group =>   2
Atom  37O    basis set group =>   2
Atom  38O    basis set group =>   2
Atom  39O    basis set group =>   2
Atom  40O    basis set group =>   2
Atom  41C    basis set group =>   1
Atom  42H    basis set group =>   3
Atom  43H    basis set group =>   3
Atom  44H    basis set group =>   3
Atom  45H    basis set group =>   3
Atom  46H    basis set group =>   3
Atom  47H    basis set group =>   3
Atom  48H    basis set group =>   3
Atom  49H    basis set group =>   3
Atom  50H    basis set group =>   3
Atom  51H    basis set group =>   3
Atom  52H    basis set group =>   3
Atom  53H    basis set group =>   3
Atom  54H    basis set group =>   3
Atom  55H    basis set group =>   3
Atom  56H    basis set group =>   3
Atom  57H    basis set group =>   3
Atom  58H    basis set group =>   3
Atom  59H    basis set group =>   3
Atom  60H    basis set group =>   3
Atom  61H    basis set group =>   3
Atom  62H    basis set group =>   3
Atom  63H    basis set group =>   3
Atom  64H    basis set group =>   3
Atom  65H    basis set group =>   3
Atom  66H    basis set group =>   3
Atom  67H    basis set group =>   3
Atom  68H    basis set group =>   3
Atom  69H    basis set group =>   3
Atom  70H    basis set group =>   3
Atom  71H    basis set group =>   3
Atom  72H    basis set group =>   3
Atom  73H    basis set group =>   3
Atom  74H    basis set group =>   3
Atom  75H    basis set group =>   3
Atom  76H    basis set group =>   3
Atom  77H    basis set group =>   3
Atom  78H    basis set group =>   3
Atom  79H    basis set group =>   3
Atom  80H    basis set group =>   3
Atom  81H    basis set group =>   3
--------------------------------------------------------------------------
WARNING: There was an error initializing an OpenFabrics device.

  Local host:   c08b01n03
  Local device: mlx5_0
--------------------------------------------------------------------------
--------------------------------------------------------------------------
WARNING: There is at least one non-excluded one OpenFabrics device found,
but there are no active ports detected (or Open MPI was unable to use
them).  This is most certainly not what you wanted.  Check your
cables, subnet manager configuration, etc.  The openib BTL will be
ignored for this job.

  Local host: c08b01n03
--------------------------------------------------------------------------


           ************************************************************
           *        Program running with 60 parallel MPI-processes    *
           *              working on a common directory               *
           ************************************************************
[c08b01n03:3338422] 58 more processes have sent help message help-mpi-btl-openib.txt / error in device init
[c08b01n03:3338422] Set MCA parameter "orte_base_help_aggregate" to 0 to see all help / error messages
------------------------------------------------------------------------------
                             ORCA STARTUP CALCULATIONS
                           -- RI-GTO INTEGRALS CHOSEN --
------------------------------------------------------------------------------
------------------------------------------------------------------------------
                   ___                                                        
                  /   \      - P O W E R E D   B Y -                         
                 /     \                                                     
                 |  |  |   _    _      __       _____    __    __             
                 |  |  |  | |  | |    /  \     |  _  \  |  |  /  |          
                  \  \/   | |  | |   /    \    | | | |  |  | /  /          
                 / \  \   | |__| |  /  /\  \   | |_| |  |  |/  /          
                |  |  |   |  __  | /  /__\  \  |    /   |      \           
                |  |  |   | |  | | |   __   |  |    \   |  |\   \          
                \     /   | |  | | |  |  |  |  | |\  \  |  | \   \       
                 \___/    |_|  |_| |__|  |__|  |_| \__\ |__|  \__/        
                                                                              
                      - O R C A' S   B I G   F R I E N D -                    
                                      &                                       
                       - I N T E G R A L  F E E D E R -                       
                                                                              
 v1 FN, 2020, v2 2021, v3 2022-2024                                           
------------------------------------------------------------------------------


----------------------
SHARK INTEGRAL PACKAGE
----------------------

Number of atoms                             ...     82
Number of basis functions                   ...   2072
Number of shells                            ...    744
Maximum angular momentum                    ...      3
Integral batch strategy                     ... SHARK/LIBINT Hybrid
RI-J (if used) integral strategy            ... SPLIT-RIJ (Revised 2003 algorithm where possible)
Printlevel                                  ...      1
Contraction scheme used                     ... SEGMENTED contraction
Prescreening option                         ... SCHWARTZ
   Thresh                                   ... 1.000e-10
   Tcut                                     ... 1.000e-11
   Tpresel                                  ... 1.000e-11 
Coulomb Range Separation                    ... NOT USED
Exchange Range Separation                   ... NOT USED
Multipole approximations                    ... NOT USED
Finite Nucleus Model                        ... NOT USED
CABS basis                                  ... NOT available
Auxiliary Coulomb fitting basis             ... AVAILABLE
   # of basis functions in Aux-J            ...  10268
   # of shells in Aux-J                     ...   2940
   Maximum angular momentum in Aux-J        ...      4
Auxiliary J/K fitting basis                 ... AVAILABLE
   # of basis functions in Aux-JK           ...  10268
   # of shells in Aux-JK                    ...   2940
   Maximum angular momentum in Aux-JK       ...      4
Auxiliary Correlation fitting basis         ... AVAILABLE
   # of basis functions in Aux-C            ...  10268
   # of shells in Aux-C                     ...   2940
   Maximum angular momentum in Aux-C        ...      4
Auxiliary 'external' fitting basis          ... NOT available

Checking pre-screening integrals            ... done (  0.0 sec) Dimension = 744
   => SHARK Basis and OBASIS are compatible. Storing Pre-screening
Shell pair information
Shell pair cut-off parameter TPreSel        ...   1.0e-11
Total number of shell pairs                 ...    277140
Shell pairs after pre-screening             ...    153924
Total number of primitive shell pairs       ...    823733
Primitive shell pairs kept                  ...    281902
          la=0 lb=0:  29205 shell pairs
          la=1 lb=0:  51104 shell pairs
          la=1 lb=1:  20890 shell pairs
          la=2 lb=0:  20221 shell pairs
          la=2 lb=1:  15326 shell pairs
          la=2 lb=2:   2739 shell pairs
          la=3 lb=0:   6995 shell pairs
          la=3 lb=1:   5232 shell pairs
          la=3 lb=2:   1861 shell pairs
          la=3 lb=3:    351 shell pairs

Checking whether 4 symmetric matrices of dimension 2072 fit in memory
:Max Core in MB      =   5000.00
 MB in use           =    189.90
 MB left             =   4810.10
 MB needed           =     65.54
 Data fit in memory  = YES
Calculating RI/J V-Matrix + Cholesky decomp.... done (  8.9 sec)
Calculating RI/JK V-Matrix + Cholesky decomp.... done (  8.4 sec)
Calculating RI/C V-Matrix + Cholesky decomp.... done (  8.7 sec)
Calculating Nuclear repulsion               ... done (  0.0 sec) ENN=   5801.547678631227 Eh

Diagonalization of the overlap matrix:
Smallest eigenvalue                        ... 7.251e-06
Time for diagonalization                   ...    0.503 sec
Threshold for overlap eigenvalues          ... 1.000e-07
Number of eigenvalues below threshold      ... 0
Time for construction of square roots      ...    0.317 sec
Total time needed                          ...    0.853 sec

-------------------
DFT GRID GENERATION
-------------------

General Integration Accuracy     IntAcc      ... 4.388
Radial Grid Type                 RadialGrid  ... OptM3 with GC (2021)
Angular Grid (max. ang.)         AngularGrid ... 4 (Lebedev-302)
Angular grid pruning method      GridPruning ... 4 (adaptive)
Weight generation scheme         WeightScheme... mBecke (2022)
Basis function cutoff            BFCut       ... 1.0000e-10
Integration weight cutoff        WCut        ... 1.0000e-14
Partially contracted basis set               ... off
Rotationally invariant grid construction     ... off
Angular grids for H and He will be reduced by one unit
Diffuse basis detected: some atoms will have their outermost
                        angular grid increased by 1.

Total number of grid points                  ...   376535
Total number of batches                      ...     5922
Average number of points per batch           ...       63
Average number of grid points per atom       ...     4592
Grids setup in   1.9 sec
Initializing property integral containers    ... done (  0.1 sec)

SHARK setup successfully completed in  37.8 seconds

Maximum memory used throughout the entire STARTUP-calculation: 262.0 MB
--------------------------------------------------------------------------
WARNING: There was an error initializing an OpenFabrics device.

  Local host:   c08b01n03
  Local device: mlx5_0
--------------------------------------------------------------------------
--------------------------------------------------------------------------
WARNING: There is at least one non-excluded one OpenFabrics device found,
but there are no active ports detected (or Open MPI was unable to use
them).  This is most certainly not what you wanted.  Check your
cables, subnet manager configuration, etc.  The openib BTL will be
ignored for this job.

  Local host: c08b01n03
--------------------------------------------------------------------------


           ************************************************************
           *        Program running with 60 parallel MPI-processes    *
           *              working on a common directory               *
           ************************************************************
-------------------------------------------------------------------------------
                                 ORCA GUESS
                   Start orbitals & Density for SCF / CASSCF
-------------------------------------------------------------------------------

------------
SCF SETTINGS
------------
Hamiltonian:
 Density Functional     Method          .... DFT(GTOs)
 Exchange Functional    Exchange        .... TPSS
 Correlation Functional Correlation     .... TPSS
 LDA part of GGA corr.  LDAOpt          .... PW91-LDA
 Gradients option       PostSCFGGA      .... off
   NL short-range parameter             ....  5.000000
 RI-approximation to the Coulomb term is turned on
   Number of AuxJ basis functions       .... 10268


General Settings:
 Integral files         IntName         .... nmr-conf-1
 Hartree-Fock type      HFTyp           .... RHF
 Total Charge           Charge          ....    0
 Multiplicity           Mult            ....    1
 Number of Electrons    NEL             ....  314
 Basis Dimension        Dim             .... 2072
 Nuclear Repulsion      ENuc            ....   5801.5476786312 Eh

Convergence Acceleration:
 AO-DIIS                CNVDIIS         .... on
   Start iteration      DIISMaxIt       ....    12
   Startup error        DIISStart       ....  0.200000
   # of expansion vecs  DIISMaxEq       ....     5
   Bias factor          DIISBfac        ....   1.050
   Max. coefficient     DIISMaxC        ....  10.000
 MO-DIIS                CNVKDIIS        .... off
 Trust-Rad. Augm. Hess. CNVTRAH         .... auto
   Auto Start mean grad. ratio tolernc. ....  1.125000
   Auto Start start iteration           ....    50
   Auto Start num. interpolation iter.  ....    10
   Max. Number of Micro iterations      ....    24
   Max. Number of Macro iterations      .... Maxiter - #DIIS iter
   Number of Davidson start vectors     ....     2
   Converg. threshold    (grad. norm)   ....   5.000e-05
   Grad. Scal. Fac. for Micro threshold ....   0.100
   Minimum threshold for Micro iter.    ....   1.000e-02
   NR start threshold (gradient norm)   ....   1.000e-04
   Initial trust radius                 ....   0.400
   Minimum AH scaling param. (alpha)    ....   1.000
   Maximum AH scaling param. (alpha)    .... 1000.000
   Quad. conv. algorithm                .... NR
   White noise on init. David. guess    .... on
   Maximum white noise                  ....   0.010
   Pseudo random numbers                .... off
   Inactive MOs                         .... canonical
   Orbital update algorithm             .... Taylor
   Preconditioner                       .... Diag
   Full preconditioner red. dimension   ....   250
 SOSCF                 CNVSOSCF           .... on
   Start iteration     SOSCFMaxIt         ....   150
   Startup grad/error  SOSCFStart         ....  0.003300
   Hessian update      SOSCFHessUp        .... L-BFGS
   Autom. constraints  SOSCFAutoConstrain .... off
 Level Shifting         CNVShift        .... on
   Level shift para.    LevelShift      ....    0.2500
   Turn off err/grad.   ShiftErr        ....    0.0010
 Zerner damping         CNVZerner       .... off
 Static damping         CNVDamp         .... on
   Fraction old density DampFac         ....    0.7000
   Max. Damping (<1)    DampMax         ....    0.9800
   Min. Damping (>=0)   DampMin         ....    0.0000
   Turn off err/grad.   DampErr         ....    0.1000

SCF Procedure:
 Maximum # iterations   MaxIter         ....   125
 SCF integral mode      SCFMode         .... Direct
   Integral package                     .... SHARK and LIBINT hybrid scheme
 Reset frequency        DirectResetFreq ....    20
 Integral Threshold     Thresh          ....  1.000e-10 Eh
 Primitive CutOff       TCut            ....  1.000e-11 Eh

Convergence Tolerance:
 Convergence Check Mode ConvCheckMode   .... Total+1el-Energy
 Convergence forced     ConvForced      .... 0
 Energy Change          TolE            ....  1.000e-06 Eh
 1-El. energy change                    ....  1.000e-03 Eh
 Orbital Gradient       TolG            ....  5.000e-05
 Orbital Rotation angle TolX            ....  5.000e-05
 DIIS Error             TolErr          ....  1.000e-06

------------------------------
INITIAL GUESS: MODEL POTENTIAL
------------------------------
Loading Hartree-Fock densities                     ... done
Calculating cut-offs                               ... done
Initializing the effective Hamiltonian             ... done
Setting up the integral package (SHARK)            ... done
Starting the Coulomb interaction                   ... done (   1.5 sec)
Making the grid                                    ... done (   0.6 sec)
Mapping shells                                     ... done
Starting the XC term evaluation                    ... done (   0.5 sec)
  promolecular density results
     # of electrons  =    314.006886330
     EX              =   -260.302724814
     EC              =    -10.650377764
     EX+EC           =   -270.953102578
[c08b01n03:3338871] 58 more processes have sent help message help-mpi-btl-openib.txt / error in device init
[c08b01n03:3338871] Set MCA parameter "orte_base_help_aggregate" to 0 to see all help / error messages
Transforming the Hamiltonian                       ... done (   0.4 sec)
Diagonalizing the Hamiltonian                      ... done (   0.6 sec)
Back transforming the eigenvectors                 ... done (   0.2 sec)
Now organizing SCF variables                       ... done
                      ------------------
                      INITIAL GUESS DONE (   4.7 sec)
                      ------------------
             **** ENERGY FILE WAS UPDATED (nmr-conf-1.en.tmp) ****
Finished Guess after  12.1 sec
Maximum memory used throughout the entire GUESS-calculation: 294.4 MB
--------------------------------------------------------------------------
WARNING: There was an error initializing an OpenFabrics device.

  Local host:   c08b01n03
  Local device: mlx5_0
--------------------------------------------------------------------------


           ************************************************************
           *        Program running with 60 parallel MPI-processes    *
           *              working on a common directory               *
           ************************************************************

-------------------------------------------------------------------------------------------
                                      ORCA LEAN-SCF
                              memory conserving SCF solver
-------------------------------------------------------------------------------------------

--------------------
CPCM SOLVATION MODEL
--------------------
CPCM parameters:
  Epsilon                                         ...      33.4280
  Refrac                                          ...       1.3288
  Rsolv                                           ...       1.3000
  Surface type                                    ... GAUSSIAN VDW
  Discretization scheme                           ... Constant charge density
    Threshold for H atoms                         ...       5.0000 (charges/Ang^2)
    Threshold for non-H atoms                     ...       5.0000 (charges/Ang^2)
  Epsilon function type                           ...         CPCM
Solvent:                                          ... METHANOL
Radii:
  Scheme                                          ... Element-dependent radii
  Radius for C  used is    3.8550 Bohr (=   2.0400 Ang.)
  Radius for O  used is    3.4469 Bohr (=   1.8240 Ang.)
  Radius for H  used is    2.4944 Bohr (=   1.3200 Ang.)
Calculating surface                               ...        done! (  0.1s)
Cavity surface points                             ...         6145
Cavity Volume                                     ...    4480.6049
Cavity Surface-area                               ...    2005.6367
Calculating surface distance matrix               ...        done! (  0.2s)
Performing Cholesky decomposition & store         ...        [c08b01n03:3339398] 59 more processes have sent help message help-mpi-btl-openib.txt / error in device init
[c08b01n03:3339398] Set MCA parameter "orte_base_help_aggregate" to 0 to see all help / error messages
done! (  0.7s)
Overall time for CPCM initialization              ...                 1.0s

----------------------------------------D-I-I-S--------------------------------------------
Iteration    Energy (Eh)           Delta-E    RMSDP     MaxDP     DIISErr   Damp  Time(sec)
-------------------------------------------------------------------------------------------
               ***  Starting incremental Fock matrix formation  ***
    1    -2033.0300807082558094     0.00e+00  8.25e-03  3.15e-01  2.37e-01  0.700  15.7
    2    -2033.4303096938137969    -4.00e-01  6.87e-03  2.52e-01  8.15e-02  0.700  10.6
                               ***Turning on AO-DIIS***
    3    -2033.5807682107788423    -1.50e-01  2.97e-03  8.47e-02  2.45e-02  0.700   6.9
    4    -2033.6715975683619035    -9.08e-02  4.95e-03  8.40e-02  1.14e-02  0.000   6.6
    5    -2033.8722830245851583    -2.01e-01  1.32e-03  4.02e-02  4.64e-03  0.000   6.9
                              *** Initializing SOSCF ***
---------------------------------------S-O-S-C-F--------------------------------------
Iteration    Energy (Eh)           Delta-E    RMSDP     MaxDP     MaxGrad    Time(sec)
--------------------------------------------------------------------------------------
    6    -2033.8736371454779146    -1.35e-03  4.20e-04  9.54e-03  1.33e-03     8.7
               *** Restarting incremental Fock matrix formation ***
    7    -2033.8737420911065783    -1.05e-04  3.43e-04  7.79e-03  1.47e-04     7.4
    8    -2033.8737175662899972     2.45e-05  8.21e-05  2.32e-03  6.51e-04     6.0
    9    -2033.8737584104164853    -4.08e-05  7.43e-05  1.38e-03  1.18e-04     5.5
   10    -2033.8737582314506653     1.79e-07  2.17e-05  6.59e-04  1.12e-04     6.3
                 **** Energy Check signals convergence ****

               *****************************************************
               *                     SUCCESS                       *
               *           SCF CONVERGED AFTER  10 CYCLES          *
               *****************************************************

             **** ENERGY FILE WAS UPDATED (nmr-conf-1.en.tmp) ****

----------------
TOTAL SCF ENERGY
----------------

Total Energy       :      -2033.87375838594562 Eh          -55344.51863 eV

Components:
Nuclear Repulsion  :       5801.54767863122652 Eh          157868.13820 eV
Electronic Energy  :      -7835.38023511468509 Eh         -213211.53566 eV
One Electron Energy:     -14330.79020114738159 Eh         -389960.62659 eV
Two Electron Energy:       6495.40996603269650 Eh          176749.09093 eV
CPCM Dielectric    :         -0.04120190248742 Eh              -1.12116 eV

Virial components:
Potential Energy   :      -4061.13320771276267 Eh         -110509.05275 eV
Kinetic Energy     :       2027.25944932681705 Eh           55164.53413 eV
Virial Ratio       :          2.00326268503093

DFT components:
N(Alpha)           :      157.000091075652 electrons
N(Beta)            :      157.000091075652 electrons
N(Total)           :      314.000182151304 electrons
E(X)               :     -268.094089217134 Eh       
E(C)               :      -10.609309644284 Eh       
E(XC)              :     -278.703398861418 Eh       

CPCM Solvation Model Properties:
Surface-charge          :         -0.04340896815452
Corrected charge        :         -0.00000000000000
Outlying charge corr.   :          0.00008243716927 Eh               0.00224 eV
Free-energy (cav+disp)  :  This term is not implemented in the current solvation scheme

---------------
SCF CONVERGENCE
---------------

  Last Energy change         ...   -1.7897e-07  Tolerance :   1.0000e-06
  Last MAX-Density change    ...    6.5930e-04  Tolerance :   1.0000e-05
  Last RMS-Density change    ...    2.1681e-05  Tolerance :   1.0000e-06
  Last DIIS Error            ...    1.3316e-03  Tolerance :   1.0000e-06
  Last Orbital Gradient      ...    1.1159e-04  Tolerance :   5.0000e-05
  Last Orbital Rotation      ...    2.2107e-04  Tolerance :   5.0000e-05


----------------
ORBITAL ENERGIES
----------------

  NO   OCC          E(Eh)            E(eV) 
   0   2.0000     -18.920757      -514.8600 
   1   2.0000     -18.920261      -514.8465 
   2   2.0000     -18.917560      -514.7730 
   3   2.0000     -18.917259      -514.7648 
   4   2.0000     -18.913097      -514.6515 
   5   2.0000     -18.909485      -514.5533 
   6   2.0000     -18.905326      -514.4401 
   7   2.0000     -18.883747      -513.8529 
   8   2.0000     -18.881383      -513.7885 
   9   2.0000     -18.877583      -513.6852 
  10   2.0000     -18.863369      -513.2984 
  11   2.0000     -10.046172      -273.3702 
  12   2.0000     -10.046018      -273.3660 
  13   2.0000     -10.045628      -273.3554 
  14   2.0000     -10.044873      -273.3349 
  15   2.0000     -10.044668      -273.3293 
  16   2.0000     -10.042561      -273.2720 
  17   2.0000     -10.042147      -273.2607 
  18   2.0000     -10.040982      -273.2290 
  19   2.0000     -10.037362      -273.1305 
  20   2.0000     -10.036338      -273.1026 
  21   2.0000     -10.035863      -273.0897 
  22   2.0000     -10.035384      -273.0767 
  23   2.0000     -10.032437      -272.9965 
  24   2.0000     -10.031017      -272.9579 
  25   2.0000     -10.026654      -272.8391 
  26   2.0000     -10.021540      -272.7000 
  27   2.0000      -9.992983      -271.9229 
  28   2.0000      -9.989710      -271.8338 
  29   2.0000      -9.987394      -271.7708 
  30   2.0000      -9.986303      -271.7411 
  31   2.0000      -9.985939      -271.7312 
  32   2.0000      -9.985875      -271.7295 
  33   2.0000      -9.985201      -271.7111 
  34   2.0000      -9.984988      -271.7053 
  35   2.0000      -9.982966      -271.6503 
  36   2.0000      -9.982470      -271.6368 
  37   2.0000      -9.980477      -271.5826 
  38   2.0000      -9.979988      -271.5693 
  39   2.0000      -9.978755      -271.5357 
  40   2.0000      -9.978432      -271.5269 
  41   2.0000      -9.977356      -271.4977 
  42   2.0000      -1.013859       -27.5885 
  43   2.0000      -1.012801       -27.5597 
  44   2.0000      -1.009492       -27.4697 
  45   2.0000      -1.001280       -27.2462 
  46   2.0000      -0.988343       -26.8942 
  47   2.0000      -0.984984       -26.8028 
  48   2.0000      -0.983492       -26.7622 
  49   2.0000      -0.957045       -26.0425 
  50   2.0000      -0.954296       -25.9677 
  51   2.0000      -0.951114       -25.8811 
  52   2.0000      -0.936206       -25.4755 
  53   2.0000      -0.798713       -21.7341 
  54   2.0000      -0.796854       -21.6835 
  55   2.0000      -0.795052       -21.6345 
  56   2.0000      -0.759231       -20.6597 
  57   2.0000      -0.734981       -19.9998 
  58   2.0000      -0.718673       -19.5561 
  59   2.0000      -0.703469       -19.1424 
  60   2.0000      -0.700457       -19.0604 
  61   2.0000      -0.699419       -19.0321 
  62   2.0000      -0.696050       -18.9405 
  63   2.0000      -0.687253       -18.7011 
  64   2.0000      -0.671191       -18.2640 
  65   2.0000      -0.652691       -17.7606 
  66   2.0000      -0.649028       -17.6610 
  67   2.0000      -0.648391       -17.6436 
  68   2.0000      -0.640967       -17.4416 
  69   2.0000      -0.624277       -16.9874 
  70   2.0000      -0.620094       -16.8736 
  71   2.0000      -0.611979       -16.6528 
  72   2.0000      -0.583187       -15.8693 
  73   2.0000      -0.565662       -15.3924 
  74   2.0000      -0.561064       -15.2673 
  75   2.0000      -0.559802       -15.2330 
  76   2.0000      -0.548756       -14.9324 
  77   2.0000      -0.546663       -14.8755 
  78   2.0000      -0.540443       -14.7062 
  79   2.0000      -0.533693       -14.5225 
  80   2.0000      -0.513361       -13.9693 
  81   2.0000      -0.511188       -13.9101 
  82   2.0000      -0.505920       -13.7668 
  83   2.0000      -0.499750       -13.5989 
  84   2.0000      -0.482269       -13.1232 
  85   2.0000      -0.479397       -13.0451 
  86   2.0000      -0.472549       -12.8587 
  87   2.0000      -0.469250       -12.7690 
  88   2.0000      -0.463806       -12.6208 
  89   2.0000      -0.458687       -12.4815 
  90   2.0000      -0.453483       -12.3399 
  91   2.0000      -0.450208       -12.2508 
  92   2.0000      -0.447376       -12.1737 
  93   2.0000      -0.443487       -12.0679 
  94   2.0000      -0.441894       -12.0245 
  95   2.0000      -0.432993       -11.7823 
  96   2.0000      -0.430319       -11.7096 
  97   2.0000      -0.426017       -11.5925 
  98   2.0000      -0.424043       -11.5388 
  99   2.0000      -0.421329       -11.4649 
 100   2.0000      -0.418707       -11.3936 
 101   2.0000      -0.413575       -11.2539 
 102   2.0000      -0.409809       -11.1515 
 103   2.0000      -0.405399       -11.0315 
 104   2.0000      -0.403633       -10.9834 
 105   2.0000      -0.399935       -10.8828 
 106   2.0000      -0.398828       -10.8527 
 107   2.0000      -0.390836       -10.6352 
 108   2.0000      -0.387642       -10.5483 
 109   2.0000      -0.386266       -10.5108 
 110   2.0000      -0.384255       -10.4561 
 111   2.0000      -0.381574       -10.3832 
 112   2.0000      -0.381571       -10.3831 
 113   2.0000      -0.377094       -10.2612 
 114   2.0000      -0.375276       -10.2118 
 115   2.0000      -0.372438       -10.1346 
 116   2.0000      -0.370819       -10.0905 
 117   2.0000      -0.362978        -9.8771 
 118   2.0000      -0.356685        -9.7059 
 119   2.0000      -0.355097        -9.6627 
 120   2.0000      -0.351914        -9.5761 
 121   2.0000      -0.349601        -9.5131 
 122   2.0000      -0.347051        -9.4437 
 123   2.0000      -0.343924        -9.3587 
 124   2.0000      -0.336086        -9.1454 
 125   2.0000      -0.331284        -9.0147 
 126   2.0000      -0.323176        -8.7941 
 127   2.0000      -0.320728        -8.7275 
 128   2.0000      -0.317191        -8.6312 
 129   2.0000      -0.314992        -8.5714 
 130   2.0000      -0.313451        -8.5294 
 131   2.0000      -0.312071        -8.4919 
 132   2.0000      -0.310672        -8.4538 
 133   2.0000      -0.305151        -8.3036 
 134   2.0000      -0.302371        -8.2279 
[...]
        ---------------  ---------------  ---------------
 Total           23.534           26.081           34.780  iso=      28.132

 Orientation: 
  X          -0.1242994    0.2582397   -0.9580511
  Y           0.1196503    0.9623944    0.2438867
  Z           0.9850043   -0.0843161   -0.1505235

 --------------
 Nucleus  73H :
 --------------

Diamagnetic contribution to the shielding tensor (ppm) : 
            34.908         80.675        21.274
            -6.695         90.251        12.307
            58.495        -44.951       219.096

Paramagnetic contribution to the shielding tensor (ppm): 
            -6.353        -78.718       -24.220
             6.650        -62.141       -13.499
           -61.550         43.100      -193.982

Total shielding tensor (ppm): 
            28.555          1.957        -2.946
            -0.044         28.110        -1.192
            -3.055         -1.850        25.114


 Diagonalized sT*s matrix:
 
 sDSO           209.412           38.036           96.807  iso=     114.752
 sPSO          -186.191          -10.628          -65.658  iso=     -87.492
        ---------------  ---------------  ---------------
 Total           23.221           27.409           31.149  iso=      27.260

 Orientation: 
  X           0.4526804   -0.5151083   -0.7278351
  Y           0.1840990    0.8526631   -0.4889511
  Z           0.8724609    0.0873449    0.4808148

 --------------
 Nucleus  74H :
 --------------

Diamagnetic contribution to the shielding tensor (ppm) : 
           109.096         56.868        20.154
            37.632         75.692        22.545
            51.306        -29.062       231.630

Paramagnetic contribution to the shielding tensor (ppm): 
           -79.808        -60.358       -24.388
           -39.459        -48.218       -20.451
           -54.369         32.439      -205.879

Total shielding tensor (ppm): 
            29.288         -3.490        -4.234
            -1.827         27.475         2.093
            -3.062          3.378        25.751


 Diagonalized sT*s matrix:
 
 sDSO           212.518          134.460           69.440  iso=     138.806
 sPSO          -189.359         -108.882          -35.664  iso=    -111.301
        ---------------  ---------------  ---------------
 Total           23.159           25.578           33.776  iso=      27.504

 Orientation: 
  X          -0.3849649    0.6115716   -0.6912179
  Y           0.3126062    0.7910712    0.5258172
  Z          -0.8683774    0.0136578    0.4957158

 --------------
 Nucleus  75H :
 --------------

Diamagnetic contribution to the shielding tensor (ppm) : 
           -20.697        -10.370       -28.513
           -29.822         41.343       -15.317
           142.660        -68.320      -104.234

Paramagnetic contribution to the shielding tensor (ppm): 
            38.967         15.483        31.167
            34.849         -4.015        23.056
          -138.932         76.512       130.494

Total shielding tensor (ppm): 
            18.270          5.112         2.654
             5.027         37.328         7.738
             3.728          8.192        26.260


 Diagonalized sT*s matrix:
 
 sDSO           -40.286          -23.221          -20.081  iso=     -27.862
 sPSO            57.071           45.356           63.019  iso=      55.149
        ---------------  ---------------  ---------------
 Total           16.785           22.135           42.938  iso=      27.286

 Orientation: 
  X           0.9663613   -0.0951264    0.2389495
  Y          -0.1652821    0.4821252    0.8603703
  Z          -0.1970475   -0.8709227    0.4501844

 --------------
 Nucleus  76H :
 --------------

Diamagnetic contribution to the shielding tensor (ppm) : 
            45.379          7.083        52.853
             8.206         60.250        42.162
            38.594        -60.689       166.356

Paramagnetic contribution to the shielding tensor (ppm): 
           -21.561          0.233       -51.664
             1.209        -19.913       -40.226
           -38.168         63.732      -147.025

Total shielding tensor (ppm): 
            23.818          7.317         1.189
             9.414         40.336         1.936
             0.426          3.043        19.331


 Diagonalized sT*s matrix:
 
 sDSO           174.154           31.443           66.387  iso=      90.661
 sPSO          -155.132          -11.081          -22.286  iso=     -62.833
        ---------------  ---------------  ---------------
 Total           19.022           20.362           44.101  iso=      27.828

 Orientation: 
  X           0.0980584   -0.9126680   -0.3967640
  Y          -0.1489601    0.3807333   -0.9126078
  Z           0.9839692    0.1485909   -0.0986170

 --------------
 Nucleus  77H :
 --------------

Diamagnetic contribution to the shielding tensor (ppm) : 
            11.275         59.313        48.191
           -19.751         67.246        27.373
            44.091        -37.026       192.349

Paramagnetic contribution to the shielding tensor (ppm): 
            17.715        -60.641       -36.252
            19.699        -49.447       -23.413
           -32.892         40.765      -160.685

Total shielding tensor (ppm): 
            28.990         -1.328        11.939
            -0.052         17.799         3.960
            11.198          3.739        31.665


 Diagonalized sT*s matrix:
 
 sDSO            81.578           27.215          162.078  iso=      90.290
 sPSO           -66.567           -5.985         -119.864  iso=     -64.139
        ---------------  ---------------  ---------------
 Total           15.011           21.229           42.213  iso=      26.151

 Orientation: 
  X           0.4469696    0.6162688    0.6484065
  Y           0.7580190   -0.6458142    0.0912755
  Z          -0.4750004   -0.4507071    0.7558027

 --------------
 Nucleus  78H :
 --------------

Diamagnetic contribution to the shielding tensor (ppm) : 
            55.473        -24.214        28.987
             2.801         41.968        13.875
            46.349        -28.561       206.032

Paramagnetic contribution to the shielding tensor (ppm): 
           -31.095         22.842       -22.461
            -2.757        -15.015       -24.473
           -42.546         19.321      -182.697

Total shielding tensor (ppm): 
            24.378         -1.372         6.526
             0.045         26.953       -10.598
             3.803         -9.240        23.335


 Diagonalized sT*s matrix:
 
 sDSO           112.750           49.514          141.209  iso=     101.158
 sPSO           -98.940          -25.131         -104.737  iso=     -76.269
        ---------------  ---------------  ---------------
 Total           13.810           24.383           36.473  iso=      24.889

 Orientation: 
  X          -0.3480517    0.8914111    0.2902519
  Y           0.5714646    0.4471758   -0.6880858
  Z           0.7431609    0.0736207    0.6650502

 --------------
 Nucleus  79H :
 --------------

Diamagnetic contribution to the shielding tensor (ppm) : 
           129.102        -48.480        31.374
            61.617         16.874        18.053
            19.124          1.257       217.014

Paramagnetic contribution to the shielding tensor (ppm): 
          -102.983         50.713       -30.030
           -61.594         14.662       -20.641
           -17.110         -2.368      -192.532

Total shielding tensor (ppm): 
            26.120          2.233         1.343
             0.023         31.535        -2.588
             2.014         -1.111        24.483


 Diagonalized sT*s matrix:
 
 sDSO           162.895          176.145           23.951  iso=     120.997
 sPSO          -140.003         -148.974            8.125  iso=     -93.618
        ---------------  ---------------  ---------------
 Total           22.891           27.171           32.076  iso=      27.379

 Orientation: 
  X          -0.5129965   -0.8518663   -0.1056332
  Y           0.2437901   -0.0265957   -0.9694633
  Z           0.8230437   -0.5230836    0.2213201

 --------------
 Nucleus  80H :
 --------------

Diamagnetic contribution to the shielding tensor (ppm) : 
           130.472        -57.742       -13.765
            73.742         -5.240        -2.054
            62.318        -73.425       186.191

Paramagnetic contribution to the shielding tensor (ppm): 
          -102.946         59.913        16.773
           -69.814         36.685         4.846
           -60.653         77.079      -160.974

Total shielding tensor (ppm): 
            27.525          2.171         3.009
             3.928         31.445         2.792
             1.665          3.653        25.216


 Diagonalized sT*s matrix:
 
 sDSO           169.829           97.315           44.280  iso=     103.808
 sPSO          -146.339          -71.367           -9.530  iso=     -75.745
        ---------------  ---------------  ---------------
 Total           23.489           25.948           34.750  iso=      28.062

 Orientation: 
  X          -0.3644084    0.8044930    0.4690389
  Y          -0.2196286   -0.5637101    0.7962375
  Z           0.9049695    0.1871413    0.3821103

 --------------
 Nucleus  81H :
 --------------

Diamagnetic contribution to the shielding tensor (ppm) : 
            96.553       -104.243       -14.444
            34.728        -29.898        -3.440
           -14.604         17.698       150.114

Paramagnetic contribution to the shielding tensor (ppm): 
           -66.879        105.070        12.083
           -32.262         56.719         1.862
            12.203        -18.053      -123.450

Total shielding tensor (ppm): 
            29.674          0.828        -2.361
             2.467         26.820        -1.578
            -2.401         -0.355        26.664


 Diagonalized sT*s matrix:
 
 sDSO           124.659           10.682           81.428  iso=      72.256
 sPSO           -99.310           15.401          -49.701  iso=     -44.537
        ---------------  ---------------  ---------------
 Total           25.349           26.083           31.727  iso=      27.719

 Orientation: 
  X           0.4645859    0.3346703   -0.8198510
  Y           0.0634402   -0.9360329   -0.3461471
  Z           0.8832527   -0.1088035    0.4560992



--------------------------------
CHEMICAL SHIELDING SUMMARY (ppm)
--------------------------------


  Nucleus  Element    Isotropic     Anisotropy
  -------  -------  ------------   ------------
      0       C           24.875        120.918 
      1       C           45.787         92.215 
      2       C           25.870        121.593 
      3       C           75.840        126.776 
      4       C           40.138        193.468 
      5       C           76.103        134.051 
      6       C          139.096         44.892 
      7       C          133.868         14.645 
      8       C          132.276         11.193 
      9       C          138.591         34.503 
     10       C           44.984        185.068 
     11       C           62.312        167.708 
     12       C           29.770        113.979 
     13       C           31.767        124.131 
     14       C           66.560        143.056 
     15       C           54.764        147.662 
     16       C          113.792         72.965 
     17       C          108.773         44.128 
     23       C           92.903         21.090 
     24       C          102.677         42.954 
     25       C           41.997        170.824 
     26       C          110.686         54.966 
     28       C           73.445        153.080 
     29       C           31.038        117.149 
     30       C           34.209        116.826 
     31       C           67.730        146.140 
     32       C           64.474        176.238 
     33       C          122.011         76.112 
     34       C          123.591         79.361 
     35       C          121.654         84.289 
     41       C          123.644         74.917 
     42       H           25.708          9.688 
     43       H           26.360          8.184 
     44       H           29.845          7.217 
     45       H           29.129          4.097 
     46       H           30.474          8.339 
     47       H           30.045          5.978 
     48       H           28.357          8.267 
     49       H           28.369          6.929 
     50       H           23.198          9.995 
     51       H           24.786          2.619 
     52       H           24.606          5.449 
     53       H           28.044          5.811 
     54       H           27.916          8.366 
     55       H           27.979          8.782 
     56       H           27.107          7.172 
     57       H           25.331         10.716 
     58       H           26.112          4.490 
     59       H           26.905          5.254 
     60       H           27.789          5.159 
     61       H           27.542          5.874 
     62       H           29.624         13.734 
     63       H           24.957          9.769 
     64       H           25.204          5.556 
     65       H           25.116          6.946 
     66       H           28.695          9.929 
     67       H           27.445          6.661 
     68       H           28.071          7.688 
     69       H           27.845          7.303 
     70       H           27.850          9.951 
     71       H           27.365          9.593 
     72       H           28.132          9.973 
     73       H           27.260          5.834 
     74       H           27.504          9.407 
     75       H           27.286         23.478 
     76       H           27.828         24.409 
     77       H           26.151         24.093 
     78       H           24.889         17.376 
     79       H           27.379          7.044 
     80       H           28.062         10.031 
     81       H           27.719          6.011 


NMR shielding tensor and spin rotation calculation done in   2.4 sec 

Maximum memory used throughout the entire PROP-calculation: 370.9 MB
[c08b01n03:3340905] 58 more processes have sent help message help-mpi-btl-openib.txt / error in device init
[c08b01n03:3340905] Set MCA parameter "orte_base_help_aggregate" to 0 to see all help / error messages
--------------------------------------------------------------------------
WARNING: There was an error initializing an OpenFabrics device.

  Local host:   c08b01n03
  Local device: mlx5_0
--------------------------------------------------------------------------
--------------------------------------------------------------------------
WARNING: There is at least one non-excluded one OpenFabrics device found,
but there are no active ports detected (or Open MPI was unable to use
them).  This is most certainly not what you wanted.  Check your
cables, subnet manager configuration, etc.  The openib BTL will be
ignored for this job.

  Local host: c08b01n03
--------------------------------------------------------------------------
[c08b01n03:3341348] 58 more processes have sent help message help-mpi-btl-openib.txt / error in device init
[c08b01n03:3341348] Set MCA parameter "orte_base_help_aggregate" to 0 to see all help / error messages

--------------------------------
SUGGESTED CITATIONS FOR THIS RUN
--------------------------------

Below you find a list of papers that are relevant to this ORCA run
We neither can nor want to force you to cite these papers, but we appreciate if you do
You receive ORCA, which is the product of decades of hard work by many enthusiastic individuals, for free
The only thing we kindly ask in return is that you cite our papers,
We deeply appreciate it, if you show your appreciation for ORCA by not just citing the generic ORCA reference.

Please note that relegating all ORCA citations to the supporting information does *not* help us.
SI sections are not indexed - citations you put there will not count into any citation statistics
But we need these citations in order to attract the funding resources that allow us to do what we are doing

Therefore, if you are a happy ORCA user, please consider citing a few of the papers listed below in the main body of your paper

In addition to the list printed below, the program has created the file nmr-conf-1.bibtex that contains the list in bibtex format
You can import this file easily into all common literature databanks and citation aid programs


List of essential papers. We consider these as the minimum necessary citations

  1. Neese, F.
     Software update: the ORCA program system, version 6.0
     WIRES Comput. Molec. Sci. 2025 15(1), e70019
     doi.org/10.1002/wcms.7019

List of papers to cite with high priority. The work reported in these papers was absolutely
necessary for this run to complete.
Our perspective: the developers of density functionals and basis sets usually get cited in chemistry papers
Good! But without the algorithms to do something with them, the functionals or basis sets would not do anything.
Hence, in our opinion, the algorithm design and method developments papers are equally worthy of getting cited

  1. Neese, F.
     An improvement of the resolution of the identity approximation for the formation of the Coulomb matrix
     J. Comp. Chem. 2003 24(14), 1740-1747
     doi.org/10.1002/jcc.10318
  2. Stoychev, G.L.; Auer, A.A.; Neese, F.
     Automatic Generation of Auxiliary Basis Sets
     J. Theo. Comp. Chem. 2017 13 , 554-562
     doi.org/10.1021/acs.jctc.6b01041
  3. Stoychev, G.L.; Auer, A.A.; Izsak, R.; Neese, F.
     Self-Consistent Field Calculation of Nuclear Magnetic Resonance Chemical Shielding Constants Using Gauge-Including Atomic Orbitals and Approximate Two-Electron Integrals
     J. Chem. Theory Comput. 2018 14(2), 619-637
     doi.org/10.1021/acs.jctc.7b01006
  4. Garcia-Rates, M.; Neese, F.
     Effect of the Solute Cavity on the Solvation Energy and its Derivatives within the Framework of the Gaussian Charge Scheme
     J. Comput. Chem. 2020 41 , 922-939
     doi.org/10.1002/jcc.26139
  5. Neese, F.
     The SHARK Integral Generation and Digestion System
     J. Comp. Chem. 2022 44(3), 381
     doi.org/10.1002/jcc.26942

List of suggested additional citations. These are papers that are important in the 'surrounding' of 
of this run, or papers that preceded the highly important papers. If you like your results we are grateful for a citation.

  1. Neese, F.
     The ORCA program system
     WIRES Comput. Molec. Sci. 2012 2(1), 73-78
     doi.org/10.1002/wcms.81
  2. Neese, F.
     Software update: the ORCA program system, version 4.0
     WIRES Comput. Molec. Sci. 2018 8(1), 1-6
     doi.org/10.1002/wcms.1327
  3. Neese, F.; Wennmohs, F.; Becker, U.; Riplinger, C.
     The ORCA quantum chemistry program package
     J. Chem. Phys. 2020 152(22), 224108
     doi.org/10.1063/5.0004608
  4. Neese, F.
     Software update: The ORCA program system—Version 5.0
     WIRES Comput. Molec. Sci. 2022 12(1), e1606
     doi.org/10.1002/wcms.1606

List of optional additional citations

  1. Neese, F.
     Approximate second-order SCF convergence for spin unrestricted wavefunctions
     Chem. Phys. Lett. 2000 325(1-3), 93-98
     doi.org/10.1016/s0009-2614(00)00662-x

Timings for individual modules:

Sum of individual times          ...      295.807 sec (=   4.930 min)
Startup calculation              ...       73.426 sec (=   1.224 min)  24.8 %
SCF iterations                   ...      110.590 sec (=   1.843 min)  37.4 %
Property integrals               ...       93.177 sec (=   1.553 min)  31.5 %
SCF Response                     ...       12.434 sec (=   0.207 min)   4.2 %
Property calculations            ...        6.181 sec (=   0.103 min)   2.1 %
                             ****ORCA TERMINATED NORMALLY****
TOTAL RUN TIME: 0 days 0 hours 5 minutes 7 seconds 952 msec
