
                                 *****************
                                 * O   R   C   A *
                                 *****************

                                            #,                                       
                                            ###                                      
                                            ####                                     
                                            #####                                    
                                            ######                                   
                                           ########,                                 
                                     ,,################,,,,,                         
                               ,,#################################,,                 
                          ,,##########################################,,             
                       ,#########################################, ''#####,          
                    ,#############################################,,   '####,        
                  ,##################################################,,,,####,       
                ,###########''''           ''''###############################       
              ,#####''   ,,,,##########,,,,          '''####'''          '####       
            ,##' ,,,,###########################,,,                        '##       
           ' ,,###''''                  '''############,,,                           
         ,,##''                                '''############,,,,        ,,,,,,###''
      ,#''                                            '''#######################'''  
     '                                                          ''''####''''         
             ,#######,   #######,   ,#######,      ##                                
            ,#'     '#,  ##    ##  ,#'     '#,    #''#        ,####,    ,#,          
            ##       ##  ##   ,#'  ##            #'  '#       #'       ,# #          
            ##       ##  #######   ##           ,######,      #####,      #          
            '#,     ,#'  ##    ##  '#,     ,#' ,#      #,     #,   #      #          
             '#######'   ##     ##  '#######'  #'      '#     '####' #    #          



                #########################################################
                #                        -***-                          #
                #          Department of theory and spectroscopy        #
                #                                                       #
                #                      Frank Neese                      #
                #                                                       #
                #     Directorship, Architecture, Infrastructure        #
                #                    SHARK, DRIVERS                     #
                #        Core code/Algorithms in most modules           #
                #                                                       #
                #        Max Planck Institute fuer Kohlenforschung      #
                #                Kaiser Wilhelm Platz 1                 #
                #                 D-45470 Muelheim/Ruhr                 #
                #                      Germany                          #
                #                                                       #
                #                  All rights reserved                  #
                #                        -***-                          #
                #########################################################


                         Program Version 6.1.0-f.0  -   RELEASE   -


 With contributions from (in alphabetic order):
[Max-Planck-Institut fuer Kohlenforschung]                               
  Daniel Aravena         : Magnetic Suceptibility                        
  Michael Atanasov       : Ab Initio Ligand Field Theory (pilot matlab implementation)
  Alexander A. Auer      : GIAO ZORA, VPT2 properties, NMR spectrum      
  Ute Becker             : All parallelization in ORCA, NUMFREQ, NUMCALC 
  Giovanni Bistoni       : ED, misc. LED, open-shell LED, HFLD           
  Dmytro Bykov           : pre 5.0 version of the SCF Hessian            
  Marcos Casanova-Páez   : Triplet and SCS-CIS(D). UHF-(DLPNO)-IP/EA/STEOM-CCSD. UHF-CVS-IP/STEOM-CCSD   
  Vijay G. Chilkuri      : MRCI spin determinant printing, contributions to CSF-ICE 
  Pauline Colinet        : FMM embedding                                 
  Dipayan Datta          : RHF DLPNO-CCSD density                        
  Achintya Kumar Dutta   : EOM-CC, STEOM-CC                              
  Nicolas Foglia         : Exact transition moments, OPA infrastructure, MCD improvements    
  Dmitry Ganyushin       : Spin-Orbit,Spin-Spin,Magnetic field MRCI      
  Miquel Garcia-Rates    : C-PCM and meta-GGA Hessian, CCSD/C-PCM, Gaussian charge scheme 
  Tiago L. C. Gouveia    : GS-ROHF, GS-ROCIS                             
  Yang Guo               : DLPNO-NEVPT2, F12-NEVPT2, CIM, IAO-localization        
  Andreas Hansen         : Spin unrestricted coupled pair/coupled cluster methods 
  Ingolf Harden          : AUTO-CI MPn and infrastructure                
  Benjamin Helmich-Paris : MC-RPA, TRAH-(SCF,CASSCF), AVAS, COSX integrals, SCF dyn. polar., MC-PDFT, srDFT 
  Lee Huntington         : MR-EOM, pCC                                   
  Robert Izsak           : Overlap fitted RIJCOSX, COSX-SCS-MP3, EOM     
  Riya Kayal             : Wick's Theorem for AUTO-CI, AUTO-CI UHF-CCSDT 
  Emily Kempfer          : AUTO-CI RHF CISDT and CCSDT, approximate NEVPT4
  Christian Kollmar      : KDIIS, OOCD, Brueckner-CCSD(T), CCSD density, CASPT2, CASPT2-K, improved NEVPT2 
  Axel Koslowski         : Symmetry handling                             
  Simone Kossmann        : meta-GGA functionals, TD-DFT gradient, OOMP2, (MP2 Hessian; deprecated post 5.0) 
  Lucas Lang             : DCDCAS, Hyperfine gauge corrections, ICE-SOC+SSC
  Marvin Lechner         : AUTO-CI (C++ implementation), FIC-MRCC        
  Spencer Leger          : CASSCF response                               
  Dagmar Lenk            : GEPOL surface, SMD, ORCA-2-JSON               
  Dimitrios Liakos       : Extrapolation schemes; Compound Job, Property file
  Dimitrios Manganas     : Further ROCIS development; embedding schemes. LFT, Crystal Embedding 
  Dimitrios Pantazis     : SARC Basis sets                               
  Anastasios Papadopoulos: AUTO-CI, single reference methods and gradients 
  Taras Petrenko         : pre 6.0 DFT Hessian and TD-DFT gradient,  ECA, NRVS 
  Petra Pikulova         : Analytic Raman intensities                    
  Peter Pinski           : DLPNO-MP2, DLPNO-MP2 Gradient                 
  Shashank Vittal Rao    : ES-AILFT, MagRelax                            
  Christoph Reimann      : Effective Core Potentials                     
  Marius Retegan         : Local ZFS, SOC                                
  Christoph Riplinger    : Optimizer, TS searches, QM/MM, DLPNO-CCSD(T), (RO)-DLPNO pert. Triples 
  Michael Roemelt        : Original ROCIS implementation, recursive CI coupling coefficients
  Masaaki Saitow         : Open-shell DLPNO-CCSD energy and density      
  Barbara Sandhoefer     : DKH picture change effects                    
  Yorick L. A. Schmerwitz: GMF and freeze-and-release deltaSCF, NEB S-IDPP initial path                    
  Kantharuban Sivalingam : CASSCF convergence/infrastructure, NEVPT2, NEVPT3, NEVPT4(SD), FIC-MRCI and CEPA variants
  Bernardo de Souza      : ESD, SOC TD-DFT                               
  Georgi L. Stoychev     : AutoAux, RI-MP2 NMR, DLPNO-MP2 response, X2C  
  Van Anh Tran           : RI-MP2 g-tensors                              
  Willem Van den Heuvel  : Paramagnetic NMR                              
  Zikuan Wang            : NOTCH, Electric field optimization            
  Frank Wennmohs         : Technical directorship and infrastructure     
  Hang Xu                : AUTO-CI-Response properties                   
                                                                         
[FACCTs GmbH]                                                            
  Markus Bursch, Nicolas Foglia, Miquel Garcia-Rates, Ingolf Harden, Hagen Neugebauer, Anastasios Papadopoulos, 
  Christoph Riplinger, Bernardo de Souza, Georgi L. Stoychev                                                    
                                                                 
  APM, various basis sets, CI-OPT, improved COSX, DLPNO-Multilevel,           
  DOCKER, DRACO, updates on ESD, Fragmentator, GOAT, IRC, LR-CPCM, L-BFGS, MBIS, meta-GGA TD-DFT gradient, ML-optimized integration grids, 
  MM, NACMEs, nearIR, NEB, NEB-TS, NL-DFT gradient (VV10), 2- and 3-layer-ONIOM, interface openCOSMO-RS, QMMM,   
  Crystal-QMMM, RESP, rigid body optimization, SF, symmetry and pop. for TD-DFT, various functionals, SOLVATOR                                   
                                                                         
[Other institutions]                                                     
  V. Asgeirsson          : NEB                                           
  Christoph Bannwarth    : sTDA-DFT, sTD-DFT, PBEh-3c, B97-3c, D3        
  Giovanni Bistoni       : ETS/NOCV, ADLD/ADEX, COVALED                  
  Martin Brehm           : Molecular dynamics                            
  Ronald Cardenas        : ETS/NOCV                                      
  Martina Colucci        : COVALED                                       
  Sebastian Ehlert       : rSCAN, r2SCAN, r2SCAN-3c, D4, dhf basis sets  
  Marvin Friede          : D4 for Fr, Ra, Ac-Lr                          
  Lars Goerigk           : TD-DFT with DH, B97 family of functionals     
  Stefan Grimme          : VdW corrections, initial TS optimization, DFT functionals, gCP, sTDA/sTD-DF 
  Waldemar Hujo          : DFT-NL                                        
  H. Jonsson             : NEB                                           
  Holger Kruse           : gCP                                           
  Marcel Mueller         : wB97X-3c, vDZP basis set                      
  Hagen Neugebauer       : wr2SCAN, Native XTB                           
  Gianluca Regni         : ADLD/ADEX                                     
  Tobias Risthaus        : pre 6.0 range-separated hybrid DFT and stability analysis
  Lukas Wittmann         : regularized MP2, r2SCAN double-hybrids, wr2SCAN        
                                                                         
We gratefully acknowledge several colleagues who have allowed us to      
interface, adapt or use parts of their codes:                            
  Ed Valeev, F. Pavosevic, A. Kumar             : LibInt (2-el integral package), F12 methods 
  Garnet Chan, S. Sharma, J. Yang, R. Olivares  : DMRG                   
  Ulf Ekstrom                                   : XCFun DFT Library      
  Mihaly Kallay                                 : mrcc  (arbitrary order and MRCC methods)
  Frank Weinhold                                : gennbo (NPA and NBO analysis)           
  Simon Mueller                                 : openCOSMO-RS                            
  Christopher J. Cramer and Donald G. Truhlar   : smd solvation model                     
  S Lehtola, MJT Oliveira, MAL Marques          : LibXC Library                           
  Liviu Ungur et al                             : ANISO software                          


 Your calculation uses the libint2 library for the computation of 2-el integrals
 For citations please refer to: http://libint.valeyev.net

 Your ORCA version has been built with support for libXC version: 7.0.0
 For citations please refer to: https://libxc.gitlab.io

 This ORCA versions uses:
   CBLAS   interface :  Fast vector & matrix operations
   LAPACKE interface :  Fast linear algebra routines
   SCALAPACK package :  Parallel linear algebra routines
   Shared memory     :  Shared parallel matrices
   BLAS/LAPACK       :  OpenBLAS 0.3.29  USE64BITINT DYNAMIC_ARCH NO_AFFINITY Cooperlake SINGLE_THREADED
        Core in use  :  Cooperlake
   Copyright (c) 2011-2014, The OpenBLAS Project


  ***********************************
  * Starting time: Wed Mar  4 13:40:32 2026
  * Host name:     c02b01n07
  * Process ID:    3124867
  * Working dir.:  /lustre1/jiangy/jiangy_liuxy/NMR/B9D7C2-SSRR-NMR/opt_conf
  ***********************************

NOTE: MaxCore=5000 MB was set to SCF,MP2,MDCI,CIPSI,MRCI,RASCI and CIS
      => If you want to overwrite this, your respective input block should be placed after the MaxCore statement


***************************************
The coordinates will be read from file: opt-conf-13.xyz
***************************************



Warning: The global flag for NMR shieldings has been found
         but shieldings for certain elements have also been explicitly requested in the EPRNMR block
         ==>> only the requested shieldings will be calculated

================================================================================

----- Orbital basis set information -----
Your calculation utilizes the basis: pcSseg-2
   F. Jensen, J. Chem. Theory Comput. 11, 132 (2015).

----- AuxJ basis set information -----
Your calculation utilizes the AutoAux generation procedure.
  G. L. Stoychev, A. A. Auer, F. Neese, J. Chem. Theory Comput. 13, 554 (2017)

----- AuxC basis set information -----
Your calculation utilizes the AutoAux generation procedure.
  G. L. Stoychev, A. A. Auer, F. Neese, J. Chem. Theory Comput. 13, 554 (2017)

----- AuxJK basis set information -----
Your calculation utilizes the AutoAux generation procedure.
  G. L. Stoychev, A. A. Auer, F. Neese, J. Chem. Theory Comput. 13, 554 (2017)

----- AuxX basis set information -----
Your calculation utilizes the AutoAux generation procedure.
  G. L. Stoychev, A. A. Auer, F. Neese, J. Chem. Theory Comput. 13, 554 (2017)

================================================================================
                                        WARNINGS
                       Please study these warnings very carefully!
================================================================================


================================================================================
                                       INPUT FILE
================================================================================
NAME = nmr-conf-13.inp
|  1> !TPSS PCSSEG-2 AUTOAUX NMR CPCM(Methanol)
|  2> 
|  3> %pal nprocs 60 end
|  4> %maxcore 5000
|  5> 
|  6> *XYZFILE 0 1 opt-conf-13.xyz
|  7> 
|  8> %EPRNMR
|  9>    NUCLEI = ALL C {SHIFT}
| 10>    NUCLEI = ALL H {SHIFT}
| 11>    TAU DOBSON
| 12> END
| 13> 
| 14> 
| 15>                          ****END OF INPUT****
================================================================================

                       ****************************
                       * Single Point Calculation *
                       ****************************

---------------------------------
CARTESIAN COORDINATES (ANGSTROEM)
---------------------------------
  C     21.978747  -31.504541   -0.788950
  C     21.808761  -30.959721    0.482009
  C     20.984541  -31.608925    1.404330
  C     20.349655  -32.793227    1.047877
  C     20.497762  -33.317858   -0.233071
  C     21.321427  -32.674743   -1.151235
  C     19.697673  -34.528237   -0.636916
  C     18.207444  -34.181056   -0.854489
  C     17.983975  -33.171346   -2.014665
  C     16.901937  -32.131774   -1.648188
  C     17.316840  -31.196833   -0.539830
  C     18.303750  -30.230530   -0.772807
  C     18.706142  -29.370873    0.235962
  C     18.127472  -29.465774    1.511564
  C     17.153477  -30.416338    1.748929
  C     16.750741  -31.275514    0.726123
  C     17.338591  -35.440416   -0.906461
  C     17.626383  -33.778328   -3.363915
  O     20.862706  -31.007740    2.614682
  O     22.841582  -30.821411   -1.601801
  O     22.409262  -29.754363    0.742274
  O     18.518099  -28.621761    2.511617
  O     19.648135  -28.389347    0.116693
  C     23.384063  -29.630885    1.794917
  C     24.644790  -30.462692    1.493714
  C     24.412080  -31.938136    1.793151
  C     23.646005  -28.138535    1.866405
  O     22.439948  -27.420412    2.123076
  C     24.473328  -32.901015    0.786921
  C     24.154314  -34.222442    1.061380
  C     23.787374  -34.603393    2.359353
  C     23.766537  -33.656649    3.368633
  C     24.078554  -32.331158    3.084958
  C     23.020184  -31.284345   -2.940302
  C     20.122899  -31.679567    3.629855
  C     20.239215  -28.173075   -1.163425
  O     25.118698  -30.218021    0.178375
  O     17.806431  -36.467852   -1.783365
  O     18.637790  -34.724610   -3.762048
  O     24.143545  -35.241069    0.151536
  O     23.454157  -35.900178    2.630663
  C     24.537671  -34.954636   -1.188775
  H     19.704242  -33.295884    1.753130
  H     21.442201  -33.090099   -2.140420
  H     19.758723  -35.286882    0.148811
  H     20.118392  -34.966569   -1.541678
  H     17.885852  -33.667169    0.055255
  H     18.916173  -32.621611   -2.157676
  H     15.983228  -32.650310   -1.360721
  H     16.665686  -31.546323   -2.542150
  H     18.756266  -30.160438   -1.752178
  H     16.711264  -30.479482    2.735456
  H     15.983529  -32.013711    0.925802
  H     17.314708  -35.886592    0.090491
  H     16.307629  -35.163825   -1.163143
  H     16.651087  -34.276338   -3.325455
  H     17.565321  -32.979928   -4.107964
  H     19.209252  -28.037861    2.165611
  H     22.948447  -29.965777    2.735018
  H     25.427257  -30.096233    2.164955
  H     24.328010  -27.927475    2.690719
  H     24.107573  -27.797754    0.933781
  H     21.776418  -27.756907    1.503101
  H     24.742043  -32.606776   -0.215452
  H     23.496187  -33.962885    4.371517
  H     24.040373  -31.600720    3.883655
  H     23.713453  -30.587546   -3.404590
  H     23.444106  -32.290044   -2.956717
  H     22.071590  -31.277289   -3.480906
  H     20.189113  -31.048009    4.512291
  H     19.076581  -31.796132    3.341325
  H     20.557690  -32.658720    3.844128
  H     20.783872  -29.056686   -1.496725
  H     19.476194  -27.909227   -1.899603
  H     20.931368  -27.344420   -1.037620
  H     24.376001  -30.310934   -0.443934
  H     18.148120  -36.041405   -2.590880
  H     18.453664  -35.005462   -4.667435
  H     23.535085  -36.412099    1.811823
  H     24.479009  -35.897528   -1.726634
  H     23.862414  -34.228576   -1.644054
  H     25.561314  -34.574098   -1.219792

----------------------------
CARTESIAN COORDINATES (A.U.)
----------------------------
  NO LB      ZA    FRAG     MASS         X           Y           Z
   0 C     6.0000    0    12.011   41.533813  -59.534954   -1.490899
   1 C     6.0000    0    12.011   41.212585  -58.505393    0.910865
   2 C     6.0000    0    12.011   39.655036  -59.732211    2.653799
   3 C     6.0000    0    12.011   38.455274  -61.970217    1.980200
   4 C     6.0000    0    12.011   38.735157  -62.961627   -0.440440
   5 C     6.0000    0    12.011   40.291659  -61.746315   -2.175519
   6 C     6.0000    0    12.011   37.223208  -65.248912   -1.203598
   7 C     6.0000    0    12.011   34.407083  -64.592834   -1.614751
   8 C     6.0000    0    12.011   33.984787  -62.684759   -3.807165
   9 C     6.0000    0    12.011   31.940032  -60.720252   -3.114624
  10 C     6.0000    0    12.011   32.724085  -58.953471   -1.020130
  11 C     6.0000    0    12.011   34.589075  -57.127422   -1.460393
  12 C     6.0000    0    12.011   35.349486  -55.502906    0.445903
  13 C     6.0000    0    12.011   34.255958  -55.682242    2.856441
  14 C     6.0000    0    12.011   32.415375  -57.478548    3.304997
  15 C     6.0000    0    12.011   31.654313  -59.102155    1.372174
  16 C     6.0000    0    12.011   32.765188  -66.972680   -1.712964
  17 C     6.0000    0    12.011   33.309037  -63.831789   -6.356878
  18 O     8.0000    0    15.999   39.424801  -58.596136    4.941033
  19 O     8.0000    0    15.999   43.164335  -58.244026   -3.026964
  20 O     8.0000    0    15.999   42.347368  -56.227598    1.402695
  21 O     8.0000    0    15.999   34.994136  -54.087290    4.746268
  22 O     8.0000    0    15.999   37.129594  -53.648090    0.220518
  23 C     6.0000    0    12.011   44.189474  -55.994258    3.391902
  24 C     6.0000    0    12.011   46.571904  -57.566145    2.822711
  25 C     6.0000    0    12.011   46.132146  -60.354331    3.388564
  26 C     6.0000    0    12.011   44.684473  -53.174126    3.526994
  27 O     8.0000    0    15.999   42.405356  -51.817068    4.012032
  28 C     6.0000    0    12.011   46.247887  -62.173908    1.487066
  29 C     6.0000    0    12.011   45.645039  -64.671043    2.005718
  30 C     6.0000    0    12.011   44.951623  -65.390936    4.458531
  31 C     6.0000    0    12.011   44.912246  -63.601850    6.365794
  32 C     6.0000    0    12.011   45.501872  -61.097034    5.829725
  33 C     6.0000    0    12.011   43.501843  -59.118845   -5.556365
  34 C     6.0000    0    12.011   38.026768  -59.865706    6.859432
  35 C     6.0000    0    12.011   38.246574  -53.239395   -2.198555
  36 O     8.0000    0    15.999   47.467460  -57.103784    0.337081
  37 O     8.0000    0    15.999   33.649279  -68.914252   -3.370071
  38 O     8.0000    0    15.999   35.220320  -65.620004   -7.109241
  39 O     8.0000    0    15.999   45.624687  -66.595968    0.286361
  40 O     8.0000    0    15.999   44.321934  -67.841504    4.971233
  41 C     6.0000    0    12.011   46.369478  -66.054689   -2.246459
  42 H     1.0000    0     1.008   37.235621  -62.920102    3.312935
  43 H     1.0000    0     1.008   40.519887  -62.531225   -4.044807
  44 H     1.0000    0     1.008   37.338576  -66.682544    0.281213
  45 H     1.0000    0     1.008   38.018252  -66.077240   -2.913349
  46 H     1.0000    0     1.008   33.799363  -63.621729    0.104416
  47 H     1.0000    0     1.008   35.746386  -61.645910   -4.077417
  48 H     1.0000    0     1.008   30.203923  -61.700145   -2.571390
  49 H     1.0000    0     1.008   31.493583  -59.613910   -4.803967
  50 H     1.0000    0     1.008   35.444206  -56.994968   -3.311136
  51 H     1.0000    0     1.008   31.579712  -57.597874    5.169263
  52 H     1.0000    0     1.008   30.204493  -60.497147    1.749512
  53 H     1.0000    0     1.008   32.720056  -67.815830    0.171004
  54 H     1.0000    0     1.008   30.816952  -66.449998   -2.198022
  55 H     1.0000    0     1.008   31.465995  -64.772892   -6.284199
  56 H     1.0000    0     1.008   33.193646  -62.323032   -7.762928
  57 H     1.0000    0     1.008   36.300226  -52.983879    4.092411
  58 H     1.0000    0     1.008   43.366281  -56.627111    5.168435
  59 H     1.0000    0     1.008   48.050551  -56.873639    4.091172
  60 H     1.0000    0     1.008   45.973277  -52.775279    5.084723
  61 H     1.0000    0     1.008   45.556711  -52.530143    1.764591
  62 H     1.0000    0     1.008   41.151466  -52.452952    2.840450
  63 H     1.0000    0     1.008   46.755685  -61.617877   -0.407145
  64 H     1.0000    0     1.008   44.401359  -64.180552    8.260969
  65 H     1.0000    0     1.008   45.429720  -59.716706    7.339044
  66 H     1.0000    0     1.008   44.811931  -57.802084   -6.433742
  67 H     1.0000    0     1.008   44.302940  -61.019340   -5.587386
  68 H     1.0000    0     1.008   41.709260  -59.105511   -6.577960
  69 H     1.0000    0     1.008   38.151895  -58.672234    8.526995
  70 H     1.0000    0     1.008   36.049513  -60.085982    6.314190
  71 H     1.0000    0     1.008   38.848404  -61.716038    7.264349
  72 H     1.0000    0     1.008   39.275826  -54.909179   -2.828400
  73 H     1.0000    0     1.008   36.804673  -52.740795   -3.589730
  74 H     1.0000    0     1.008   39.554552  -51.673465   -1.960818
  75 H     1.0000    0     1.008   46.063967  -57.279364   -0.838914
  76 H     1.0000    0     1.008   34.294977  -68.108385   -4.896054
  77 H     1.0000    0     1.008   34.872372  -66.150737   -8.820174
  78 H     1.0000    0     1.008   44.474865  -68.808895    3.423848
  79 H     1.0000    0     1.008   46.258623  -67.836497   -3.262865
  80 H     1.0000    0     1.008   45.093428  -64.682635   -3.106812
  81 H     1.0000    0     1.008   48.303883  -65.335577   -2.305073

--------------------------------
INTERNAL COORDINATES (ANGSTROEM)
--------------------------------
 C      0   0   0     0.000000000000     0.00000000     0.00000000
 C      1   0   0     1.393219453773     0.00000000     0.00000000
 C      2   1   0     1.396953704458   119.50855261     0.00000000
 C      3   2   1     1.390219650792   119.73935972     0.35450599
 C      4   3   2     1.392120946153   120.55574342   358.15741226
 C      1   2   3     1.390213163475   120.61085439     0.93172653
 C      5   4   3     1.506071287327   119.54324416   185.81482143
 C      7   5   4     1.545528037833   111.68172580    72.73959451
 C      8   7   5     1.554174955651   112.93397631    62.92410682
 C      9   8   7     1.544610595304   111.15333500   220.54962705
 C     10   9   8     1.508216080843   113.50687713    67.35069910
 C     11  10   9     1.400718667861   119.94969345    70.29851243
 C     12  11  10     1.385114705971   120.77772563   180.56649684
 C     13  12  11     1.403932282762   120.00165241     0.27243129
 C     14  13  12     1.381513805943   119.55208144   359.73140210
 C     11  10   9     1.388990588194   121.50354993   250.94908351
 C      8   7   5     1.530880314009   111.54484709   194.69187172
 C      9   8   7     1.522095569404   115.87583757    96.35204540
 O      3   2   1     1.356915622507   115.84898871   180.55914888
 O      1   2   3     1.368165486583   115.06672445   182.24654602
 O      2   1   3     1.371578009173   117.60323644   183.64446990
 O     14  13  12     1.365669369484   120.37596564   180.02505740
 O     13  12  11     1.365638405526   125.65172774   180.52988373
 C     21   2   1     1.439979371280   120.69414984   239.97661589
 C     24  21   2     1.540149392251   111.39918058    64.90192664
 C     25  24  21     1.523401363619   111.07544453   281.55186735
 C     24  21   2     1.516849229107   103.63401229   187.33143443
 O     27  24  21     1.426938907888   110.95616023    57.93275215
 C     26  25  24     1.394053031946   121.35731969   117.10414365
 C     29  26  25     1.386819224642   120.34337919   185.13080126
 C     30  29  26     1.401606778146   120.16387089   359.01505764
 C     31  30  29     1.383981392978   119.56106260   358.96638854
 C     26  25  24     1.390852605814   119.52952495   299.72387083
 C     20   1   2     1.427512664111   118.29772840   182.82031951
 C     19   3   2     1.424515032006   118.25192279   184.99862431
 C     23  13  12     1.426482956709   118.23974675     2.99948288
 O     25  24  21     1.419354951344   111.18918061    49.08943156
 O     17   8   7     1.429495726376   115.23564093   310.57257655
 O     18   9   8     1.441147408318   109.99009657   303.80817076
 O     30  29  26     1.365845267702   125.49276711   178.13374876
 O     31  30  29     1.366123265329   120.38258932   179.08168324
 C     40  30  29     1.426117731764   118.30022054     2.47395310
 H      4   3   2     1.080094307255   120.12731873   180.53084469
 H      6   1   2     1.079626242101   120.64461140   179.16176666
 H      7   5   4     1.093909578530   109.57903491   312.98401445
 H      7   5   4     1.089831353894   109.92348685   195.41083161
 H      8   7   5     1.093222393399   105.78854627   307.56597992
 H      9   8   7     1.091629197170   107.58857545   337.24651143
 H     10   9   8     1.093409198399   109.37796861   304.89334104
 H     10   9   8     1.094410675425   108.50893809   188.87541063
 H     12  11  10     1.081134428192   119.36031295     0.37356720
 H     15  14  13     1.082947756709   118.98149073   180.17913619
 H     16  11  10     1.083245780243   119.68716455   359.15141961
 H     17   8   7     1.092500606634   108.50525349    69.02868552
 H     17   8   7     1.097848491653   109.49081310   185.72500401
 H     18   9   8     1.095762327151   111.05308573    65.34553741
 H     18   9   8     1.093059970662   108.98063301   183.98482765
 H     22  14  13     0.968685782989   108.36365285   359.06970607
 H     24  21   2     1.088899587249   109.50751250   303.89845875
 H     25  24  21     1.094125407448   106.53103323   163.88477617
 H     27  24  21     1.090491820273   109.51457093   176.04087101
 H     27  24  21     1.094972069151   109.80679563   295.27975811
 H     28  27  24     0.968436588639   106.80289800   311.61639483
 H     29  26  25     1.078673531307   119.55641988     3.29259912
 H     32  31  30     1.082887357891   119.05748048   180.90859427
 H     33  26  25     1.083011539109   120.18746509   356.50943659
 H     34  20   1     1.087067313000   105.80657302   178.37842498
 H     34  20   1     1.091516750550   111.19174793   297.37983119
 H     34  20   1     1.091848661187   110.69911069    59.49705168
 H     35  19   3     1.087172515949   105.83317226   177.69726783
 H     35  19   3     1.091612795184   111.08719725   296.54637079
 H     35  19   3     1.092564624520   110.83956747    58.81717039
 H     36  23  13     1.090187502705   111.00743355   297.58625251
 H     36  23  13     1.092600078776   110.60310138    59.71956621
 H     36  23  13     1.087000337842   105.99566659   178.66905612
 H     37  25  24     0.973396155582   108.73889164   309.70777252
 H     38  17   8     0.975033004464   107.96165824   320.29948116
 H     39  18   9     0.965663348194   108.43151259   187.55667864
 H     41  31  30     0.969078077067   108.25609925     0.47495908
 H     42  40  30     1.087096337501   106.01441513   178.65467169
 H     42  40  30     1.091060733123   110.78056913   297.62066963
 H     42  40  30     1.092527590808   110.82881392    59.56901308

---------------------------
INTERNAL COORDINATES (A.U.)
---------------------------
 C      0   0   0     0.000000000000     0.00000000     0.00000000
 C      1   0   0     2.632803212082     0.00000000     0.00000000
 C      2   1   0     2.639859923193   119.50855261     0.00000000
 C      3   2   1     2.627134405992   119.73935972     0.35450599
 C      4   3   2     2.630727333524   120.55574342   358.15741226
 C      1   2   3     2.627122146740   120.61085439     0.93172653
 C      5   4   3     2.846062271210   119.54324416   185.81482143
 C      7   5   4     2.920624723801   111.68172580    72.73959451
 C      8   7   5     2.936965030380   112.93397631    62.92410682
 C      9   8   7     2.918891008678   111.15333500   220.54962705
 C     10   9   8     2.850115343569   113.50687713    67.35069910
 C     11  10   9     2.646974672929   119.94969345    70.29851243
 C     12  11  10     2.617487458351   120.77772563   180.56649684
 C     13  12  11     2.653047524991   120.00165241     0.27243129
 C     14  13  12     2.610682743464   119.55208144   359.73140210
 C     11  10   9     2.624811814280   121.50354993   250.94908351
 C      8   7   5     2.892944537287   111.54484709   194.69187172
 C      9   8   7     2.876343775828   115.87583757    96.35204540
 O      3   2   1     2.564198913377   115.84898871   180.55914888
 O      1   2   3     2.585458075525   115.06672445   182.24654602
 O      2   1   3     2.591906808646   117.60323644   183.64446990
 O     14  13  12     2.580741097810   120.37596564   180.02505740
 O     13  12  11     2.580682584408   125.65172774   180.52988373
 C     21   2   1     2.721166650214   120.69414984   239.97661589
 C     24  21   2     2.910460556679   111.39918058    64.90192664
 C     25  24  21     2.878811369283   111.07544453   281.55186735
 C     24  21   2     2.866429629462   103.63401229   187.33143443
 O     27  24  21     2.696523745745   110.95616023    57.93275215
 C     26  25  24     2.634378446540   121.35731969   117.10414365
 C     29  26  25     2.620708531831   120.34337919   185.13080126
 C     30  29  26     2.648652958143   120.16387089   359.01505764
 C     31  30  29     2.615345807170   119.56106260   358.96638854
 C     26  25  24     2.628330517639   119.52952495   299.72387083
 C     20   1   2     2.697607987874   118.29772840   182.82031951
 C     19   3   2     2.691943284146   118.25192279   184.99862431
 C     23  13  12     2.695662122886   118.23974675     2.99948288
 O     25  24  21     2.682192144865   111.18918061    49.08943156
 O     17   8   7     2.701355432461   115.23564093   310.57257655
 O     18   9   8     2.723373920332   109.99009657   303.80817076
 O     30  29  26     2.581073497270   125.49276711   178.13374876
 O     31  30  29     2.581598836651   120.38258932   179.08168324
 C     40  30  29     2.694971947762   118.30022054     2.47395310
 H      4   3   2     2.041082439518   120.12731873   180.53084469
 H      6   1   2     2.040197924565   120.64461140   179.16176666
 H      7   5   4     2.067189518696   109.57903491   312.98401445
 H      7   5   4     2.059482791020   109.92348685   195.41083161
 H      8   7   5     2.065890926995   105.78854627   307.56597992
 H      9   8   7     2.062880222444   107.58857545   337.24651143
 H     10   9   8     2.066243937284   109.37796861   304.89334104
 H     10   9   8     2.068136454592   108.50893809   188.87541063
 H     12  11  10     2.043047983237   119.36031295     0.37356720
 H     15  14  13     2.046474677524   118.98149073   180.17913619
 H     16  11  10     2.047037860385   119.68716455   359.15141961
 H     17   8   7     2.064526947682   108.50525349    69.02868552
 H     17   8   7     2.074632985763   109.49081310   185.72500401
 H     18   9   8     2.070690706183   111.05308573    65.34553741
 H     18   9   8     2.065583992503   108.98063301   183.98482765
 H     22  14  13     1.830550839673   108.36365285   359.06970607
 H     24  21   2     2.057722007240   109.50751250   303.89845875
 H     25  24  21     2.067597376241   106.53103323   163.88477617
 H     27  24  21     2.060730891598   109.51457093   176.04087101
 H     27  24  21     2.069197334988   109.80679563   295.27975811
 H     28  27  24     1.830079930597   106.80289800   311.61639483
 H     29  26  25     2.038397562081   119.55641988     3.29259912
 H     32  31  30     2.046360540300   119.05748048   180.90859427
 H     33  26  25     2.046595208792   120.18746509   356.50943659
 H     34  20   1     2.054259510708   105.80657302   178.37842498
 H     34  20   1     2.062667729126   111.19174793   297.37983119
 H     34  20   1     2.063294949332   110.69911069    59.49705168
 H     35  19   3     2.054458315469   105.83317226   177.69726783
 H     35  19   3     2.062849227182   111.08719725   296.54637079
 H     35  19   3     2.064647923954   110.83956747    58.81717039
 H     36  23  13     2.060155814736   111.00743355   297.58625251
 H     36  23  13     2.064714922788   110.60310138    59.71956621
 H     36  23  13     2.054132946001   105.99566659   178.66905612
 H     37  25  24     1.839452153862   108.73889164   309.70777252
 H     38  17   8     1.842545349971   107.96165824   320.29948116
 H     39  18   9     1.824839265652   108.43151259   187.55667864
 H     41  31  30     1.831292168043   108.25609925     0.47495908
 H     42  40  30     2.054314359066   106.01441513   178.65467169
 H     42  40  30     2.061805981078   110.78056913   297.62066963
 H     42  40  30     2.064577940379   110.82881392    59.56901308

---------------------
BASIS SET INFORMATION
---------------------
There are 3 groups of distinct atoms

 Group   1 Type C   : 11s7p2d1f contracted to 4s5p2d1f pattern {7211/31111/11/1}
 Group   2 Type O   : 11s7p2d1f contracted to 4s5p2d1f pattern {7211/31111/11/1}
 Group   3 Type H   : 6s3p1d contracted to 3s2p1d pattern {411/21/1}

Atom   0C    basis set group =>   1
Atom   1C    basis set group =>   1
Atom   2C    basis set group =>   1
Atom   3C    basis set group =>   1
Atom   4C    basis set group =>   1
Atom   5C    basis set group =>   1
Atom   6C    basis set group =>   1
Atom   7C    basis set group =>   1
Atom   8C    basis set group =>   1
Atom   9C    basis set group =>   1
Atom  10C    basis set group =>   1
Atom  11C    basis set group =>   1
Atom  12C    basis set group =>   1
Atom  13C    basis set group =>   1
Atom  14C    basis set group =>   1
Atom  15C    basis set group =>   1
Atom  16C    basis set group =>   1
Atom  17C    basis set group =>   1
Atom  18O    basis set group =>   2
Atom  19O    basis set group =>   2
Atom  20O    basis set group =>   2
Atom  21O    basis set group =>   2
Atom  22O    basis set group =>   2
Atom  23C    basis set group =>   1
Atom  24C    basis set group =>   1
Atom  25C    basis set group =>   1
Atom  26C    basis set group =>   1
Atom  27O    basis set group =>   2
Atom  28C    basis set group =>   1
Atom  29C    basis set group =>   1
Atom  30C    basis set group =>   1
Atom  31C    basis set group =>   1
Atom  32C    basis set group =>   1
Atom  33C    basis set group =>   1
Atom  34C    basis set group =>   1
Atom  35C    basis set group =>   1
Atom  36O    basis set group =>   2
Atom  37O    basis set group =>   2
Atom  38O    basis set group =>   2
Atom  39O    basis set group =>   2
Atom  40O    basis set group =>   2
Atom  41C    basis set group =>   1
Atom  42H    basis set group =>   3
Atom  43H    basis set group =>   3
Atom  44H    basis set group =>   3
Atom  45H    basis set group =>   3
Atom  46H    basis set group =>   3
Atom  47H    basis set group =>   3
Atom  48H    basis set group =>   3
Atom  49H    basis set group =>   3
Atom  50H    basis set group =>   3
Atom  51H    basis set group =>   3
Atom  52H    basis set group =>   3
Atom  53H    basis set group =>   3
Atom  54H    basis set group =>   3
Atom  55H    basis set group =>   3
Atom  56H    basis set group =>   3
Atom  57H    basis set group =>   3
Atom  58H    basis set group =>   3
Atom  59H    basis set group =>   3
Atom  60H    basis set group =>   3
Atom  61H    basis set group =>   3
Atom  62H    basis set group =>   3
Atom  63H    basis set group =>   3
Atom  64H    basis set group =>   3
Atom  65H    basis set group =>   3
Atom  66H    basis set group =>   3
Atom  67H    basis set group =>   3
Atom  68H    basis set group =>   3
Atom  69H    basis set group =>   3
Atom  70H    basis set group =>   3
Atom  71H    basis set group =>   3
Atom  72H    basis set group =>   3
Atom  73H    basis set group =>   3
Atom  74H    basis set group =>   3
Atom  75H    basis set group =>   3
Atom  76H    basis set group =>   3
Atom  77H    basis set group =>   3
Atom  78H    basis set group =>   3
Atom  79H    basis set group =>   3
Atom  80H    basis set group =>   3
Atom  81H    basis set group =>   3
---------------------------------
AUXILIARY/J BASIS SET INFORMATION
---------------------------------
There are 3 groups of distinct atoms

 Group   1 Type C   : 15s13p12d5f5g contracted to 15s13p12d5f5g pattern {111111111111111/1111111111111/111111111111/11111/11111}
 Group   2 Type O   : 15s13p12d5f5g contracted to 15s13p12d5f5g pattern {111111111111111/1111111111111/111111111111/11111/11111}
 Group   3 Type H   : 12s4p3d2f contracted to 12s4p3d2f pattern {111111111111/1111/111/11}

Atom   0C    basis set group =>   1
Atom   1C    basis set group =>   1
Atom   2C    basis set group =>   1
Atom   3C    basis set group =>   1
Atom   4C    basis set group =>   1
Atom   5C    basis set group =>   1
Atom   6C    basis set group =>   1
Atom   7C    basis set group =>   1
Atom   8C    basis set group =>   1
Atom   9C    basis set group =>   1
Atom  10C    basis set group =>   1
Atom  11C    basis set group =>   1
Atom  12C    basis set group =>   1
Atom  13C    basis set group =>   1
Atom  14C    basis set group =>   1
Atom  15C    basis set group =>   1
Atom  16C    basis set group =>   1
Atom  17C    basis set group =>   1
Atom  18O    basis set group =>   2
Atom  19O    basis set group =>   2
Atom  20O    basis set group =>   2
Atom  21O    basis set group =>   2
Atom  22O    basis set group =>   2
Atom  23C    basis set group =>   1
Atom  24C    basis set group =>   1
Atom  25C    basis set group =>   1
Atom  26C    basis set group =>   1
Atom  27O    basis set group =>   2
Atom  28C    basis set group =>   1
Atom  29C    basis set group =>   1
Atom  30C    basis set group =>   1
Atom  31C    basis set group =>   1
Atom  32C    basis set group =>   1
Atom  33C    basis set group =>   1
Atom  34C    basis set group =>   1
Atom  35C    basis set group =>   1
Atom  36O    basis set group =>   2
Atom  37O    basis set group =>   2
Atom  38O    basis set group =>   2
Atom  39O    basis set group =>   2
Atom  40O    basis set group =>   2
Atom  41C    basis set group =>   1
Atom  42H    basis set group =>   3
Atom  43H    basis set group =>   3
Atom  44H    basis set group =>   3
Atom  45H    basis set group =>   3
Atom  46H    basis set group =>   3
Atom  47H    basis set group =>   3
Atom  48H    basis set group =>   3
Atom  49H    basis set group =>   3
Atom  50H    basis set group =>   3
Atom  51H    basis set group =>   3
Atom  52H    basis set group =>   3
Atom  53H    basis set group =>   3
Atom  54H    basis set group =>   3
Atom  55H    basis set group =>   3
Atom  56H    basis set group =>   3
Atom  57H    basis set group =>   3
Atom  58H    basis set group =>   3
Atom  59H    basis set group =>   3
Atom  60H    basis set group =>   3
Atom  61H    basis set group =>   3
Atom  62H    basis set group =>   3
Atom  63H    basis set group =>   3
Atom  64H    basis set group =>   3
Atom  65H    basis set group =>   3
Atom  66H    basis set group =>   3
Atom  67H    basis set group =>   3
Atom  68H    basis set group =>   3
Atom  69H    basis set group =>   3
Atom  70H    basis set group =>   3
Atom  71H    basis set group =>   3
Atom  72H    basis set group =>   3
Atom  73H    basis set group =>   3
Atom  74H    basis set group =>   3
Atom  75H    basis set group =>   3
Atom  76H    basis set group =>   3
Atom  77H    basis set group =>   3
Atom  78H    basis set group =>   3
Atom  79H    basis set group =>   3
Atom  80H    basis set group =>   3
Atom  81H    basis set group =>   3
---------------------------------
AUXILIARY/C BASIS SET INFORMATION
---------------------------------
There are 3 groups of distinct atoms

 Group   1 Type C   : 15s13p12d5f5g contracted to 15s13p12d5f5g pattern {111111111111111/1111111111111/111111111111/11111/11111}
 Group   2 Type O   : 15s13p12d5f5g contracted to 15s13p12d5f5g pattern {111111111111111/1111111111111/111111111111/11111/11111}
 Group   3 Type H   : 12s4p3d2f contracted to 12s4p3d2f pattern {111111111111/1111/111/11}

Atom   0C    basis set group =>   1
Atom   1C    basis set group =>   1
Atom   2C    basis set group =>   1
Atom   3C    basis set group =>   1
Atom   4C    basis set group =>   1
Atom   5C    basis set group =>   1
Atom   6C    basis set group =>   1
Atom   7C    basis set group =>   1
Atom   8C    basis set group =>   1
Atom   9C    basis set group =>   1
Atom  10C    basis set group =>   1
Atom  11C    basis set group =>   1
Atom  12C    basis set group =>   1
Atom  13C    basis set group =>   1
Atom  14C    basis set group =>   1
Atom  15C    basis set group =>   1
Atom  16C    basis set group =>   1
Atom  17C    basis set group =>   1
Atom  18O    basis set group =>   2
Atom  19O    basis set group =>   2
Atom  20O    basis set group =>   2
Atom  21O    basis set group =>   2
Atom  22O    basis set group =>   2
Atom  23C    basis set group =>   1
Atom  24C    basis set group =>   1
Atom  25C    basis set group =>   1
Atom  26C    basis set group =>   1
Atom  27O    basis set group =>   2
Atom  28C    basis set group =>   1
Atom  29C    basis set group =>   1
Atom  30C    basis set group =>   1
Atom  31C    basis set group =>   1
Atom  32C    basis set group =>   1
Atom  33C    basis set group =>   1
Atom  34C    basis set group =>   1
Atom  35C    basis set group =>   1
Atom  36O    basis set group =>   2
Atom  37O    basis set group =>   2
Atom  38O    basis set group =>   2
Atom  39O    basis set group =>   2
Atom  40O    basis set group =>   2
Atom  41C    basis set group =>   1
Atom  42H    basis set group =>   3
Atom  43H    basis set group =>   3
Atom  44H    basis set group =>   3
Atom  45H    basis set group =>   3
Atom  46H    basis set group =>   3
Atom  47H    basis set group =>   3
Atom  48H    basis set group =>   3
Atom  49H    basis set group =>   3
Atom  50H    basis set group =>   3
Atom  51H    basis set group =>   3
Atom  52H    basis set group =>   3
Atom  53H    basis set group =>   3
Atom  54H    basis set group =>   3
Atom  55H    basis set group =>   3
Atom  56H    basis set group =>   3
Atom  57H    basis set group =>   3
Atom  58H    basis set group =>   3
Atom  59H    basis set group =>   3
Atom  60H    basis set group =>   3
Atom  61H    basis set group =>   3
Atom  62H    basis set group =>   3
Atom  63H    basis set group =>   3
Atom  64H    basis set group =>   3
Atom  65H    basis set group =>   3
Atom  66H    basis set group =>   3
Atom  67H    basis set group =>   3
Atom  68H    basis set group =>   3
Atom  69H    basis set group =>   3
Atom  70H    basis set group =>   3
Atom  71H    basis set group =>   3
Atom  72H    basis set group =>   3
Atom  73H    basis set group =>   3
Atom  74H    basis set group =>   3
Atom  75H    basis set group =>   3
Atom  76H    basis set group =>   3
Atom  77H    basis set group =>   3
Atom  78H    basis set group =>   3
Atom  79H    basis set group =>   3
Atom  80H    basis set group =>   3
Atom  81H    basis set group =>   3
----------------------------------
AUXILIARY/JK BASIS SET INFORMATION
----------------------------------
There are 3 groups of distinct atoms

 Group   1 Type C   : 15s13p12d5f5g contracted to 15s13p12d5f5g pattern {111111111111111/1111111111111/111111111111/11111/11111}
 Group   2 Type O   : 15s13p12d5f5g contracted to 15s13p12d5f5g pattern {111111111111111/1111111111111/111111111111/11111/11111}
 Group   3 Type H   : 12s4p3d2f contracted to 12s4p3d2f pattern {111111111111/1111/111/11}

Atom   0C    basis set group =>   1
Atom   1C    basis set group =>   1
Atom   2C    basis set group =>   1
Atom   3C    basis set group =>   1
Atom   4C    basis set group =>   1
Atom   5C    basis set group =>   1
Atom   6C    basis set group =>   1
Atom   7C    basis set group =>   1
Atom   8C    basis set group =>   1
Atom   9C    basis set group =>   1
Atom  10C    basis set group =>   1
Atom  11C    basis set group =>   1
Atom  12C    basis set group =>   1
Atom  13C    basis set group =>   1
Atom  14C    basis set group =>   1
Atom  15C    basis set group =>   1
Atom  16C    basis set group =>   1
Atom  17C    basis set group =>   1
Atom  18O    basis set group =>   2
Atom  19O    basis set group =>   2
Atom  20O    basis set group =>   2
Atom  21O    basis set group =>   2
Atom  22O    basis set group =>   2
Atom  23C    basis set group =>   1
Atom  24C    basis set group =>   1
Atom  25C    basis set group =>   1
Atom  26C    basis set group =>   1
Atom  27O    basis set group =>   2
Atom  28C    basis set group =>   1
Atom  29C    basis set group =>   1
Atom  30C    basis set group =>   1
Atom  31C    basis set group =>   1
Atom  32C    basis set group =>   1
Atom  33C    basis set group =>   1
Atom  34C    basis set group =>   1
Atom  35C    basis set group =>   1
Atom  36O    basis set group =>   2
Atom  37O    basis set group =>   2
Atom  38O    basis set group =>   2
Atom  39O    basis set group =>   2
Atom  40O    basis set group =>   2
Atom  41C    basis set group =>   1
Atom  42H    basis set group =>   3
Atom  43H    basis set group =>   3
Atom  44H    basis set group =>   3
Atom  45H    basis set group =>   3
Atom  46H    basis set group =>   3
Atom  47H    basis set group =>   3
Atom  48H    basis set group =>   3
Atom  49H    basis set group =>   3
Atom  50H    basis set group =>   3
Atom  51H    basis set group =>   3
Atom  52H    basis set group =>   3
Atom  53H    basis set group =>   3
Atom  54H    basis set group =>   3
Atom  55H    basis set group =>   3
Atom  56H    basis set group =>   3
Atom  57H    basis set group =>   3
Atom  58H    basis set group =>   3
Atom  59H    basis set group =>   3
Atom  60H    basis set group =>   3
Atom  61H    basis set group =>   3
Atom  62H    basis set group =>   3
Atom  63H    basis set group =>   3
Atom  64H    basis set group =>   3
Atom  65H    basis set group =>   3
Atom  66H    basis set group =>   3
Atom  67H    basis set group =>   3
Atom  68H    basis set group =>   3
Atom  69H    basis set group =>   3
Atom  70H    basis set group =>   3
Atom  71H    basis set group =>   3
Atom  72H    basis set group =>   3
Atom  73H    basis set group =>   3
Atom  74H    basis set group =>   3
Atom  75H    basis set group =>   3
Atom  76H    basis set group =>   3
Atom  77H    basis set group =>   3
Atom  78H    basis set group =>   3
Atom  79H    basis set group =>   3
Atom  80H    basis set group =>   3
Atom  81H    basis set group =>   3
---------------------------------
AUXILIARY/X BASIS SET INFORMATION
---------------------------------
There are 3 groups of distinct atoms

 Group   1 Type C   : 15s13p12d5f5g contracted to 15s13p12d5f5g pattern {111111111111111/1111111111111/111111111111/11111/11111}
 Group   2 Type O   : 15s13p12d5f5g contracted to 15s13p12d5f5g pattern {111111111111111/1111111111111/111111111111/11111/11111}
 Group   3 Type H   : 12s4p3d2f contracted to 12s4p3d2f pattern {111111111111/1111/111/11}

Atom   0C    basis set group =>   1
Atom   1C    basis set group =>   1
Atom   2C    basis set group =>   1
Atom   3C    basis set group =>   1
Atom   4C    basis set group =>   1
Atom   5C    basis set group =>   1
Atom   6C    basis set group =>   1
Atom   7C    basis set group =>   1
Atom   8C    basis set group =>   1
Atom   9C    basis set group =>   1
Atom  10C    basis set group =>   1
Atom  11C    basis set group =>   1
Atom  12C    basis set group =>   1
Atom  13C    basis set group =>   1
Atom  14C    basis set group =>   1
Atom  15C    basis set group =>   1
Atom  16C    basis set group =>   1
Atom  17C    basis set group =>   1
Atom  18O    basis set group =>   2
Atom  19O    basis set group =>   2
Atom  20O    basis set group =>   2
Atom  21O    basis set group =>   2
Atom  22O    basis set group =>   2
Atom  23C    basis set group =>   1
Atom  24C    basis set group =>   1
Atom  25C    basis set group =>   1
Atom  26C    basis set group =>   1
Atom  27O    basis set group =>   2
Atom  28C    basis set group =>   1
Atom  29C    basis set group =>   1
Atom  30C    basis set group =>   1
Atom  31C    basis set group =>   1
Atom  32C    basis set group =>   1
Atom  33C    basis set group =>   1
Atom  34C    basis set group =>   1
Atom  35C    basis set group =>   1
Atom  36O    basis set group =>   2
Atom  37O    basis set group =>   2
Atom  38O    basis set group =>   2
Atom  39O    basis set group =>   2
Atom  40O    basis set group =>   2
Atom  41C    basis set group =>   1
Atom  42H    basis set group =>   3
Atom  43H    basis set group =>   3
Atom  44H    basis set group =>   3
Atom  45H    basis set group =>   3
Atom  46H    basis set group =>   3
Atom  47H    basis set group =>   3
Atom  48H    basis set group =>   3
Atom  49H    basis set group =>   3
Atom  50H    basis set group =>   3
Atom  51H    basis set group =>   3
Atom  52H    basis set group =>   3
Atom  53H    basis set group =>   3
Atom  54H    basis set group =>   3
Atom  55H    basis set group =>   3
Atom  56H    basis set group =>   3
Atom  57H    basis set group =>   3
Atom  58H    basis set group =>   3
Atom  59H    basis set group =>   3
Atom  60H    basis set group =>   3
Atom  61H    basis set group =>   3
Atom  62H    basis set group =>   3
Atom  63H    basis set group =>   3
Atom  64H    basis set group =>   3
Atom  65H    basis set group =>   3
Atom  66H    basis set group =>   3
Atom  67H    basis set group =>   3
Atom  68H    basis set group =>   3
Atom  69H    basis set group =>   3
Atom  70H    basis set group =>   3
Atom  71H    basis set group =>   3
Atom  72H    basis set group =>   3
Atom  73H    basis set group =>   3
Atom  74H    basis set group =>   3
Atom  75H    basis set group =>   3
Atom  76H    basis set group =>   3
Atom  77H    basis set group =>   3
Atom  78H    basis set group =>   3
Atom  79H    basis set group =>   3
Atom  80H    basis set group =>   3
Atom  81H    basis set group =>   3
--------------------------------------------------------------------------
WARNING: There was an error initializing an OpenFabrics device.

  Local host:   c02b01n07
  Local device: mlx5_0
--------------------------------------------------------------------------
--------------------------------------------------------------------------
WARNING: There is at least one non-excluded one OpenFabrics device found,
but there are no active ports detected (or Open MPI was unable to use
them).  This is most certainly not what you wanted.  Check your
cables, subnet manager configuration, etc.  The openib BTL will be
ignored for this job.

  Local host: c02b01n07
--------------------------------------------------------------------------


           ************************************************************
           *        Program running with 60 parallel MPI-processes    *
           *              working on a common directory               *
           ************************************************************
------------------------------------------------------------------------------
                             ORCA STARTUP CALCULATIONS
                           -- RI-GTO INTEGRALS CHOSEN --
------------------------------------------------------------------------------
------------------------------------------------------------------------------
                   ___                                                        
                  /   \      - P O W E R E D   B Y -                         
                 /     \                                                     
                 |  |  |   _    _      __       _____    __    __             
                 |  |  |  | |  | |    /  \     |  _  \  |  |  /  |          
                  \  \/   | |  | |   /    \    | | | |  |  | /  /          
                 / \  \   | |__| |  /  /\  \   | |_| |  |  |/  /          
                |  |  |   |  __  | /  /__\  \  |    /   |      \           
                |  |  |   | |  | | |   __   |  |    \   |  |\   \          
                \     /   | |  | | |  |  |  |  | |\  \  |  | \   \       
                 \___/    |_|  |_| |__|  |__|  |_| \__\ |__|  \__/        
                                                                              
                      - O R C A' S   B I G   F R I E N D -                    
                                      &                                       
                       - I N T E G R A L  F E E D E R -                       
                                                                              
 v1 FN, 2020, v2 2021, v3 2022-2024                                           
------------------------------------------------------------------------------


----------------------
SHARK INTEGRAL PACKAGE
----------------------

Number of atoms                             ...     82
Number of basis functions                   ...   2072
Number of shells                            ...    744
Maximum angular momentum                    ...      3
Integral batch strategy                     ... SHARK/LIBINT Hybrid
RI-J (if used) integral strategy            ... SPLIT-RIJ (Revised 2003 algorithm where possible)
Printlevel                                  ...      1
Contraction scheme used                     ... SEGMENTED contraction
Prescreening option                         ... SCHWARTZ
   Thresh                                   ... 1.000e-10
   Tcut                                     ... 1.000e-11
   Tpresel                                  ... 1.000e-11 
Coulomb Range Separation                    ... NOT USED
Exchange Range Separation                   ... NOT USED
Multipole approximations                    ... NOT USED
Finite Nucleus Model                        ... NOT USED
CABS basis                                  ... NOT available
Auxiliary Coulomb fitting basis             ... AVAILABLE
   # of basis functions in Aux-J            ...  10268
   # of shells in Aux-J                     ...   2940
   Maximum angular momentum in Aux-J        ...      4
Auxiliary J/K fitting basis                 ... AVAILABLE
   # of basis functions in Aux-JK           ...  10268
   # of shells in Aux-JK                    ...   2940
   Maximum angular momentum in Aux-JK       ...      4
Auxiliary Correlation fitting basis         ... AVAILABLE
   # of basis functions in Aux-C            ...  10268
   # of shells in Aux-C                     ...   2940
   Maximum angular momentum in Aux-C        ...      4
Auxiliary 'external' fitting basis          ... NOT available

Checking pre-screening integrals            ... done (  0.0 sec) Dimension = 744
   => SHARK Basis and OBASIS are compatible. Storing Pre-screening
Shell pair information
Shell pair cut-off parameter TPreSel        ...   1.0e-11
Total number of shell pairs                 ...    277140
Shell pairs after pre-screening             ...    154784
Total number of primitive shell pairs       ...    823733
Primitive shell pairs kept                  ...    283833
          la=0 lb=0:  29471 shell pairs
          la=1 lb=0:  51431 shell pairs
          la=1 lb=1:  20939 shell pairs
          la=2 lb=0:  20330 shell pairs
          la=2 lb=1:  15337 shell pairs
          la=2 lb=2:   2731 shell pairs
          la=3 lb=0:   7025 shell pairs
          la=3 lb=1:   5266 shell pairs
          la=3 lb=2:   1884 shell pairs
          la=3 lb=3:    370 shell pairs

Checking whether 4 symmetric matrices of dimension 2072 fit in memory
:Max Core in MB      =   5000.00
 MB in use           =    190.95
 MB left             =   4809.05
 MB needed           =     65.54
 Data fit in memory  = YES
Calculating RI/J V-Matrix + Cholesky decomp.... [c02b01n07:3124868] 54 more processes have sent help message help-mpi-btl-openib.txt / error in device init
[c02b01n07:3124868] Set MCA parameter "orte_base_help_aggregate" to 0 to see all help / error messages
[c02b01n07:3124868] 4 more processes have sent help message help-mpi-btl-openib.txt / no active ports found
done (  4.2 sec)
Calculating RI/JK V-Matrix + Cholesky decomp.... done (  3.9 sec)
Calculating RI/C V-Matrix + Cholesky decomp.... done (  3.9 sec)
Calculating Nuclear repulsion               ... done (  0.0 sec) ENN=   5816.445077984420 Eh

Diagonalization of the overlap matrix:
Smallest eigenvalue                        ... 5.509e-06
Time for diagonalization                   ...   12.593 sec
Threshold for overlap eigenvalues          ... 1.000e-07
Number of eigenvalues below threshold      ... 0
Time for construction of square roots      ...    0.770 sec
Total time needed                          ...   13.633 sec

-------------------
DFT GRID GENERATION
-------------------

General Integration Accuracy     IntAcc      ... 4.388
Radial Grid Type                 RadialGrid  ... OptM3 with GC (2021)
Angular Grid (max. ang.)         AngularGrid ... 4 (Lebedev-302)
Angular grid pruning method      GridPruning ... 4 (adaptive)
Weight generation scheme         WeightScheme... mBecke (2022)
Basis function cutoff            BFCut       ... 1.0000e-10
Integration weight cutoff        WCut        ... 1.0000e-14
Partially contracted basis set               ... off
Rotationally invariant grid construction     ... off
Angular grids for H and He will be reduced by one unit
Diffuse basis detected: some atoms will have their outermost
                        angular grid increased by 1.

Total number of grid points                  ...   376687
Total number of batches                      ...     5927
Average number of points per batch           ...       63
Average number of grid points per atom       ...     4594
Grids setup in   7.0 sec
Initializing property integral containers    ... done (  0.4 sec)

SHARK setup successfully completed in  36.6 seconds

Maximum memory used throughout the entire STARTUP-calculation: 263.0 MB
--------------------------------------------------------------------------
WARNING: There was an error initializing an OpenFabrics device.

  Local host:   c02b01n07
  Local device: mlx5_0
--------------------------------------------------------------------------
--------------------------------------------------------------------------
WARNING: There is at least one non-excluded one OpenFabrics device found,
but there are no active ports detected (or Open MPI was unable to use
them).  This is most certainly not what you wanted.  Check your
cables, subnet manager configuration, etc.  The openib BTL will be
ignored for this job.

  Local host: c02b01n07
--------------------------------------------------------------------------


           ************************************************************
           *        Program running with 60 parallel MPI-processes    *
           *              working on a common directory               *
           ************************************************************
-------------------------------------------------------------------------------
                                 ORCA GUESS
                   Start orbitals & Density for SCF / CASSCF
-------------------------------------------------------------------------------

------------
SCF SETTINGS
------------
Hamiltonian:
 Density Functional     Method          .... DFT(GTOs)
 Exchange Functional    Exchange        .... TPSS
 Correlation Functional Correlation     .... TPSS
 LDA part of GGA corr.  LDAOpt          .... PW91-LDA
 Gradients option       PostSCFGGA      .... off
   NL short-range parameter             ....  5.000000
 RI-approximation to the Coulomb term is turned on
   Number of AuxJ basis functions       .... 10268


General Settings:
 Integral files         IntName         .... nmr-conf-13
 Hartree-Fock type      HFTyp           .... RHF
 Total Charge           Charge          ....    0
 Multiplicity           Mult            ....    1
 Number of Electrons    NEL             ....  314
 Basis Dimension        Dim             .... 2072
 Nuclear Repulsion      ENuc            ....   5816.4450779844 Eh

Convergence Acceleration:
 AO-DIIS                CNVDIIS         .... on
   Start iteration      DIISMaxIt       ....    12
   Startup error        DIISStart       ....  0.200000
   # of expansion vecs  DIISMaxEq       ....     5
   Bias factor          DIISBfac        ....   1.050
   Max. coefficient     DIISMaxC        ....  10.000
 MO-DIIS                CNVKDIIS        .... off
 Trust-Rad. Augm. Hess. CNVTRAH         .... auto
   Auto Start mean grad. ratio tolernc. ....  1.125000
   Auto Start start iteration           ....    50
   Auto Start num. interpolation iter.  ....    10
   Max. Number of Micro iterations      ....    24
   Max. Number of Macro iterations      .... Maxiter - #DIIS iter
   Number of Davidson start vectors     ....     2
   Converg. threshold    (grad. norm)   ....   5.000e-05
   Grad. Scal. Fac. for Micro threshold ....   0.100
   Minimum threshold for Micro iter.    ....   1.000e-02
   NR start threshold (gradient norm)   ....   1.000e-04
   Initial trust radius                 ....   0.400
   Minimum AH scaling param. (alpha)    ....   1.000
   Maximum AH scaling param. (alpha)    .... 1000.000
   Quad. conv. algorithm                .... NR
   White noise on init. David. guess    .... on
   Maximum white noise                  ....   0.010
   Pseudo random numbers                .... off
   Inactive MOs                         .... canonical
   Orbital update algorithm             .... Taylor
   Preconditioner                       .... Diag
   Full preconditioner red. dimension   ....   250
 SOSCF                 CNVSOSCF           .... on
   Start iteration     SOSCFMaxIt         ....   150
   Startup grad/error  SOSCFStart         ....  0.003300
   Hessian update      SOSCFHessUp        .... L-BFGS
   Autom. constraints  SOSCFAutoConstrain .... off
 Level Shifting         CNVShift        .... on
   Level shift para.    LevelShift      ....    0.2500
   Turn off err/grad.   ShiftErr        ....    0.0010
 Zerner damping         CNVZerner       .... off
 Static damping         CNVDamp         .... on
   Fraction old density DampFac         ....    0.7000
   Max. Damping (<1)    DampMax         ....    0.9800
   Min. Damping (>=0)   DampMin         ....    0.0000
   Turn off err/grad.   DampErr         ....    0.1000

SCF Procedure:
 Maximum # iterations   MaxIter         ....   125
 SCF integral mode      SCFMode         .... Direct
   Integral package                     .... SHARK and LIBINT hybrid scheme
 Reset frequency        DirectResetFreq ....    20
 Integral Threshold     Thresh          ....  1.000e-10 Eh
 Primitive CutOff       TCut            ....  1.000e-11 Eh

Convergence Tolerance:
 Convergence Check Mode ConvCheckMode   .... Total+1el-Energy
 Convergence forced     ConvForced      .... 0
 Energy Change          TolE            ....  1.000e-06 Eh
 1-El. energy change                    ....  1.000e-03 Eh
 Orbital Gradient       TolG            ....  5.000e-05
 Orbital Rotation angle TolX            ....  5.000e-05
 DIIS Error             TolErr          ....  1.000e-06

------------------------------
INITIAL GUESS: MODEL POTENTIAL
------------------------------
Loading Hartree-Fock densities                     ... done
Calculating cut-offs                               ... done
Initializing the effective Hamiltonian             ... done
Setting up the integral package (SHARK)            ... done
Starting the Coulomb interaction                   ... done (   0.7 sec)
Making the grid                                    ... done (   0.9 sec)
Mapping shells                                     ... done
Starting the XC term evaluation                    ... done (   0.1 sec)
  promolecular density results
     # of electrons  =    313.987895666
     EX              =   -260.298204091
     EC              =    -10.642025439
     EX+EC           =   -270.940229529
Transforming the Hamiltonian                       ... done (   0.3 sec)
Diagonalizing the Hamiltonian                      ... [c02b01n07:3125360] 50 more processes have sent help message help-mpi-btl-openib.txt / error in device init
[c02b01n07:3125360] Set MCA parameter "orte_base_help_aggregate" to 0 to see all help / error messages
[c02b01n07:3125360] 8 more processes have sent help message help-mpi-btl-openib.txt / no active ports found
done (   0.5 sec)
Back transforming the eigenvectors                 ... done (   0.2 sec)
Now organizing SCF variables                       ... done
                      ------------------
                      INITIAL GUESS DONE (   3.8 sec)
                      ------------------
             **** ENERGY FILE WAS UPDATED (nmr-conf-13.en.tmp) ****
Finished Guess after   8.4 sec
Maximum memory used throughout the entire GUESS-calculation: 295.7 MB
--------------------------------------------------------------------------
WARNING: There was an error initializing an OpenFabrics device.

  Local host:   c02b01n07
  Local device: mlx5_0
--------------------------------------------------------------------------
--------------------------------------------------------------------------
WARNING: There is at least one non-excluded one OpenFabrics device found,
but there are no active ports detected (or Open MPI was unable to use
them).  This is most certainly not what you wanted.  Check your
cables, subnet manager configuration, etc.  The openib BTL will be
ignored for this job.

  Local host: c02b01n07
--------------------------------------------------------------------------


           ************************************************************
           *        Program running with 60 parallel MPI-processes    *
           *              working on a common directory               *
           ************************************************************

-------------------------------------------------------------------------------------------
                                      ORCA LEAN-SCF
                              memory conserving SCF solver
-------------------------------------------------------------------------------------------

--------------------
CPCM SOLVATION MODEL
--------------------
CPCM parameters:
  Epsilon                                         ...      33.4280
  Refrac                                          ...       1.3288
  Rsolv                                           ...       1.3000
  Surface type                                    ... GAUSSIAN VDW
  Discretization scheme                           ... Constant charge density
    Threshold for H atoms                         ...       5.0000 (charges/Ang^2)
    Threshold for non-H atoms                     ...       5.0000 (charges/Ang^2)
  Epsilon function type                           ...         CPCM
Solvent:                                          ... METHANOL
Radii:
  Scheme                                          ... Element-dependent radii
  Radius for C  used is    3.8550 Bohr (=   2.0400 Ang.)
  Radius for O  used is    3.4469 Bohr (=   1.8240 Ang.)
  Radius for H  used is    2.4944 Bohr (=   1.3200 Ang.)
Calculating surface                               ...        done! (  0.0s)
Cavity surface points                             ...         6150
Cavity Volume                                     ...    4488.8266
Cavity Surface-area                               ...    2031.4394
Calculating surface distance matrix               ...        done! (  0.2s)
Performing Cholesky decomposition & store         ...        done! (  0.7s)
Overall time for CPCM initialization              ...                 0.9s

----------------------------------------D-I-I-S--------------------------------------------
Iteration    Energy (Eh)           Delta-E    RMSDP     MaxDP     DIISErr   Damp  Time(sec)
-------------------------------------------------------------------------------------------
               ***  Starting incremental Fock matrix formation  ***
[c02b01n07:3125884] 50 more processes have sent help message help-mpi-btl-openib.txt / error in device init
[c02b01n07:3125884] Set MCA parameter "orte_base_help_aggregate" to 0 to see all help / error messages
[c02b01n07:3125884] 8 more processes have sent help message help-mpi-btl-openib.txt / no active ports found
    1    -2033.0157461087546835     0.00e+00  7.98e-03  2.67e-01  2.39e-01  0.700   9.4
    2    -2033.4259106256786254    -4.10e-01  6.60e-03  2.11e-01  8.16e-02  0.700   8.7
                               ***Turning on AO-DIIS***
    3    -2033.5780470671688818    -1.52e-01  2.82e-03  7.24e-02  2.39e-02  0.700   7.6
    4    -2033.6702889705520647    -9.22e-02  4.93e-03  1.08e-01  1.17e-02  0.000   6.7
    5    -2033.8749298115662896    -2.05e-01  1.32e-03  4.24e-02  4.72e-03  0.000   7.2
                              *** Initializing SOSCF ***
---------------------------------------S-O-S-C-F--------------------------------------
Iteration    Energy (Eh)           Delta-E    RMSDP     MaxDP     MaxGrad    Time(sec)
--------------------------------------------------------------------------------------
    6    -2033.8762957121562067    -1.37e-03  4.16e-04  9.86e-03  1.47e-03     8.7
               *** Restarting incremental Fock matrix formation ***
    7    -2033.8764036554475751    -1.08e-04  3.26e-04  7.66e-03  1.44e-04     7.4
    8    -2033.8763740755757681     2.96e-05  7.97e-05  1.89e-03  7.31e-04     6.2
    9    -2033.8764207556778274    -4.67e-05  6.40e-05  1.34e-03  1.34e-04     5.7
   10    -2033.8764202010706867     5.55e-07  2.41e-05  7.20e-04  1.39e-04     5.6
                 **** Energy Check signals convergence ****

               *****************************************************
               *                     SUCCESS                       *
               *           SCF CONVERGED AFTER  10 CYCLES          *
               *****************************************************

             **** ENERGY FILE WAS UPDATED (nmr-conf-13.en.tmp) ****

----------------
TOTAL SCF ENERGY
----------------

Total Energy       :      -2033.87642131895063 Eh          -55344.59109 eV

Components:
Nuclear Repulsion  :       5816.44507798442010 Eh          158273.51704 eV
Electronic Energy  :      -7850.27333875463228 Eh         -213616.79762 eV
One Electron Energy:     -14361.60493632633006 Eh         -390799.13816 eV
Two Electron Energy:       6511.33159757169778 Eh          177182.34055 eV
CPCM Dielectric    :         -0.04816054873844 Eh              -1.31052 eV

Virial components:
Potential Energy   :      -4061.12609511493974 Eh         -110508.85921 eV
Kinetic Energy     :       2027.24967379598911 Eh           55164.26812 eV
Virial Ratio       :          2.00326883639870

DFT components:
N(Alpha)           :      157.000125788761 electrons
N(Beta)            :      157.000125788761 electrons
N(Total)           :      314.000251577522 electrons
E(X)               :     -268.092011907715 Eh       
E(C)               :      -10.607036272966 Eh       
E(XC)              :     -278.699048180681 Eh       

CPCM Solvation Model Properties:
Surface-charge          :         -0.04230049477710
Corrected charge        :         -0.00000000000000
Outlying charge corr.   :          0.00007788724344 Eh               0.00212 eV
Free-energy (cav+disp)  :  This term is not implemented in the current solvation scheme

---------------
SCF CONVERGENCE
---------------

  Last Energy change         ...   -5.5461e-07  Tolerance :   1.0000e-06
  Last MAX-Density change    ...    7.2009e-04  Tolerance :   1.0000e-05
  Last RMS-Density change    ...    2.4069e-05  Tolerance :   1.0000e-06
  Last DIIS Error            ...    1.4730e-03  Tolerance :   1.0000e-06
  Last Orbital Gradient      ...    1.3883e-04  Tolerance :   5.0000e-05
  Last Orbital Rotation      ...    2.6442e-04  Tolerance :   5.0000e-05


----------------
ORBITAL ENERGIES
----------------

  NO   OCC          E(Eh)            E(eV) 
   0   2.0000     -18.918736      -514.8050 
   1   2.0000     -18.916980      -514.7572 
   2   2.0000     -18.916309      -514.7389 
   3   2.0000     -18.910600      -514.5836 
   4   2.0000     -18.909292      -514.5480 
   5   2.0000     -18.907307      -514.4940 
   6   2.0000     -18.903961      -514.4029 
   7   2.0000     -18.892923      -514.1026 
   8   2.0000     -18.879437      -513.7356 
   9   2.0000     -18.878063      -513.6982 
  10   2.0000     -18.862827      -513.2836 
  11   2.0000     -10.044062      -273.3128 
  12   2.0000     -10.042750      -273.2771 
  13   2.0000     -10.042699      -273.2757 
  14   2.0000     -10.042670      -273.2749 
  15   2.0000     -10.041569      -273.2450 
  16   2.0000     -10.041000      -273.2295 
  17   2.0000     -10.040008      -273.2025 
  18   2.0000     -10.039177      -273.1799 
  19   2.0000     -10.035952      -273.0921 
  20   2.0000     -10.035129      -273.0697 
  21   2.0000     -10.033577      -273.0275 
  22   2.0000     -10.032603      -273.0010 
  23   2.0000     -10.031583      -272.9732 
  24   2.0000     -10.030995      -272.9572 
  25   2.0000     -10.030147      -272.9342 
  26   2.0000     -10.022111      -272.7155 
  27   2.0000      -9.989066      -271.8163 
  28   2.0000      -9.987777      -271.7812 
  29   2.0000      -9.986602      -271.7493 
  30   2.0000      -9.985452      -271.7180 
  31   2.0000      -9.984849      -271.7016 
  32   2.0000      -9.984015      -271.6789 
  33   2.0000      -9.983714      -271.6707 
  34   2.0000      -9.983160      -271.6556 
  35   2.0000      -9.981178      -271.6017 
  36   2.0000      -9.980545      -271.5844 
  37   2.0000      -9.980307      -271.5780 
  38   2.0000      -9.979998      -271.5695 
  39   2.0000      -9.977502      -271.5016 
  40   2.0000      -9.976088      -271.4632 
  41   2.0000      -9.974368      -271.4164 
  42   2.0000      -1.012604       -27.5544 
  43   2.0000      -1.010176       -27.4883 
  44   2.0000      -1.008706       -27.4483 
  45   2.0000      -0.999609       -27.2007 
  46   2.0000      -0.985231       -26.8095 
  47   2.0000      -0.982638       -26.7389 
  48   2.0000      -0.981082       -26.6966 
  49   2.0000      -0.964251       -26.2386 
  50   2.0000      -0.953849       -25.9555 
  51   2.0000      -0.948852       -25.8196 
  52   2.0000      -0.935144       -25.4466 
  53   2.0000      -0.797790       -21.7090 
  54   2.0000      -0.794412       -21.6171 
  55   2.0000      -0.792589       -21.5674 
  56   2.0000      -0.759789       -20.6749 
  57   2.0000      -0.734541       -19.9879 
  58   2.0000      -0.717356       -19.5203 
  59   2.0000      -0.701256       -19.0821 
  60   2.0000      -0.699322       -19.0295 
  61   2.0000      -0.696602       -18.9555 
  62   2.0000      -0.694558       -18.8999 
  63   2.0000      -0.686884       -18.6911 
  64   2.0000      -0.672946       -18.3118 
  65   2.0000      -0.650688       -17.7061 
  66   2.0000      -0.649727       -17.6800 
  67   2.0000      -0.647504       -17.6195 
  68   2.0000      -0.640895       -17.4396 
  69   2.0000      -0.618336       -16.8258 
  70   2.0000      -0.616774       -16.7833 
  71   2.0000      -0.614552       -16.7228 
  72   2.0000      -0.576887       -15.6979 
  73   2.0000      -0.564023       -15.3478 
  74   2.0000      -0.558717       -15.2035 
  75   2.0000      -0.557555       -15.1718 
  76   2.0000      -0.545854       -14.8535 
  77   2.0000      -0.544078       -14.8051 
  78   2.0000      -0.538898       -14.6642 
  79   2.0000      -0.532851       -14.4996 
  80   2.0000      -0.509315       -13.8592 
  81   2.0000      -0.509067       -13.8524 
  82   2.0000      -0.501563       -13.6482 
  83   2.0000      -0.494677       -13.4608 
  84   2.0000      -0.481751       -13.1091 
  85   2.0000      -0.479301       -13.0424 
  86   2.0000      -0.476120       -12.9559 
  87   2.0000      -0.472978       -12.8704 
  88   2.0000      -0.470154       -12.7935 
  89   2.0000      -0.456225       -12.4145 
  90   2.0000      -0.453337       -12.3359 
  91   2.0000      -0.448170       -12.1953 
  92   2.0000      -0.444931       -12.1072 
  93   2.0000      -0.443569       -12.0701 
  94   2.0000      -0.440695       -11.9919 
  95   2.0000      -0.432627       -11.7724 
  96   2.0000      -0.427897       -11.6437 
  97   2.0000      -0.426952       -11.6180 
  98   2.0000      -0.423258       -11.5174 
  99   2.0000      -0.420811       -11.4508 
 100   2.0000      -0.419446       -11.4137 
 101   2.0000      -0.416085       -11.3222 
 102   2.0000      -0.406284       -11.0555 
 103   2.0000      -0.401235       -10.9182 
 104   2.0000      -0.399774       -10.8784 
 105   2.0000      -0.397861       -10.8263 
 106   2.0000      -0.396595       -10.7919 
 107   2.0000      -0.391700       -10.6587 
 108   2.0000      -0.384995       -10.4762 
 109   2.0000      -0.384229       -10.4554 
 110   2.0000      -0.382555       -10.4099 
 111   2.0000      -0.378110       -10.2889 
 112   2.0000      -0.375281       -10.2119 
 113   2.0000      -0.374375       -10.1873 
 114   2.0000      -0.372240       -10.1292 
 115   2.0000      -0.370919       -10.0932 
 116   2.0000      -0.369254       -10.0479 
 117   2.0000      -0.365376        -9.9424 
[...]
  X           0.7195450   -0.0509849   -0.6925716
  Y           0.6542137    0.3842897    0.6514030
  Z           0.2329364   -0.9218036    0.3098688

 --------------
 Nucleus  73H :
 --------------

Diamagnetic contribution to the shielding tensor (ppm) : 
           198.864         39.729        26.389
           100.528         64.636         5.330
           -97.790        123.975       202.086

Paramagnetic contribution to the shielding tensor (ppm): 
          -174.057        -41.762       -25.033
          -100.869        -36.389        -9.972
           100.090       -127.367      -170.411

Total shielding tensor (ppm): 
            24.806         -2.033         1.356
            -0.341         28.246        -4.642
             2.300         -3.392        31.676


 Diagonalized sT*s matrix:
 
 sDSO           221.330          165.930           78.325  iso=     155.195
 sPSO          -196.998         -140.337          -43.522  iso=    -126.952
        ---------------  ---------------  ---------------
 Total           24.332           25.593           34.803  iso=      28.243

 Orientation: 
  X           0.9769313    0.0321335    0.2111222
  Y           0.0874682    0.8416770   -0.5328501
  Z          -0.1948190    0.5390244    0.8194499

 --------------
 Nucleus  74H :
 --------------

Diamagnetic contribution to the shielding tensor (ppm) : 
           207.035        -39.264        23.887
           119.849         13.605        12.864
           -49.171         57.841       158.434

Paramagnetic contribution to the shielding tensor (ppm): 
          -180.594         41.274       -24.201
          -116.905         15.515       -14.817
            47.048        -61.277      -131.130

Total shielding tensor (ppm): 
            26.440          2.010        -0.314
             2.945         29.121        -1.953
            -2.123         -3.436        27.304


 Diagonalized sT*s matrix:
 
 sDSO           111.469          176.720           90.886  iso=     126.358
 sPSO           -86.621         -151.022          -58.566  iso=     -98.736
        ---------------  ---------------  ---------------
 Total           24.848           25.697           32.320  iso=      27.622

 Orientation: 
  X           0.7128543    0.5494864   -0.4357791
  Y          -0.6219583    0.2082194   -0.7548593
  Z          -0.3240473    0.8091411    0.4901877

 --------------
 Nucleus  75H :
 --------------

Diamagnetic contribution to the shielding tensor (ppm) : 
           153.828        -84.152        25.210
            74.556        -22.402         5.267
           -23.534        128.366       -14.057

Paramagnetic contribution to the shielding tensor (ppm): 
          -121.519         87.252       -14.871
           -72.926         39.351        -1.884
            33.613       -125.153        46.086

Total shielding tensor (ppm): 
            32.309          3.100        10.340
             1.630         16.948         3.383
            10.079          3.214        32.029


 Diagonalized sT*s matrix:
 
 sDSO           -45.762           81.143           81.987  iso=      39.123
 sPSO            62.017          -59.105          -38.995  iso=     -12.027
        ---------------  ---------------  ---------------
 Total           16.256           22.038           42.992  iso=      27.095

 Orientation: 
  X           0.0391861    0.7158362    0.6971678
  Y          -0.9819251   -0.1017061    0.1596211
  Z           0.1851687   -0.6908215    0.6989121

 --------------
 Nucleus  76H :
 --------------

Diamagnetic contribution to the shielding tensor (ppm) : 
          -107.287         87.957       -95.769
           -76.280         83.925       -48.189
           -53.589        106.075       -86.219

Paramagnetic contribution to the shielding tensor (ppm): 
           124.613        -83.320        88.221
            81.027        -55.794        41.075
            45.439       -113.515       122.013

Total shielding tensor (ppm): 
            17.326          4.637        -7.548
             4.747         28.130        -7.114
            -8.150         -7.440        35.794


 Diagonalized sT*s matrix:
 
 sDSO          -145.541           64.413          -28.454  iso=     -36.527
 sPSO           159.660          -40.675           71.848  iso=      63.611
        ---------------  ---------------  ---------------
 Total           14.119           23.738           43.393  iso=      27.084

 Orientation: 
  X           0.9419493   -0.0054235   -0.3357112
  Y          -0.1692168    0.8559290   -0.4886218
  Z           0.2899950    0.5170650    0.8053240

 --------------
 Nucleus  77H :
 --------------

Diamagnetic contribution to the shielding tensor (ppm) : 
           -47.788         64.503       -37.191
           -37.104         66.086        -4.316
          -127.292        118.610       -59.731

Paramagnetic contribution to the shielding tensor (ppm): 
            70.504        -66.048        38.364
            36.108        -41.866        12.751
           129.524       -111.333       101.273

Total shielding tensor (ppm): 
            22.715         -1.545         1.173
            -0.995         24.220         8.435
             2.231          7.277        41.541


 Diagonalized sT*s matrix:
 
 sDSO            30.790          -56.204          -16.019  iso=     -13.811
 sPSO           -10.807           80.069           60.649  iso=      43.303
        ---------------  ---------------  ---------------
 Total           19.982           23.865           44.629  iso=      29.492

 Orientation: 
  X           0.5579260    0.8276890    0.0604104
  Y           0.7655155   -0.5413922    0.3476787
  Z          -0.3204756    0.1477339    0.9356656

 --------------
 Nucleus  78H :
 --------------

Diamagnetic contribution to the shielding tensor (ppm) : 
          -206.866        -41.132       -13.421
          -166.890         17.956        -0.844
           -50.670        -24.538       -73.560

Paramagnetic contribution to the shielding tensor (ppm): 
           223.309         41.368        11.351
           167.435         11.658         4.751
            48.207         26.810       105.094

Total shielding tensor (ppm): 
            16.443          0.235        -2.070
             0.544         29.615         3.907
            -2.463          2.273        31.534


 Diagonalized sT*s matrix:
 
 sDSO          -197.678          -23.003          -41.788  iso=     -87.490
 sPSO           213.735           50.581           75.745  iso=     113.353
        ---------------  ---------------  ---------------
 Total           16.057           27.577           33.957  iso=      25.864

 Orientation: 
  X           0.9845602    0.1479446   -0.0935603
  Y          -0.0706313    0.8248103    0.5609805
  Z           0.1601636   -0.5457108    0.8225250

 --------------
 Nucleus  79H :
 --------------

Diamagnetic contribution to the shielding tensor (ppm) : 
          -109.784        -76.458        -7.191
           -98.366        -10.164         5.575
          -101.910         63.463      -127.348

Paramagnetic contribution to the shielding tensor (ppm): 
           134.552         74.613         4.801
            97.415         38.489        -2.981
           100.598        -59.501       157.531

Total shielding tensor (ppm): 
            24.768         -1.845        -2.390
            -0.951         28.325         2.594
            -1.312          3.961        30.182


 Diagonalized sT*s matrix:
 
 sDSO          -152.730          -87.681           -6.886  iso=     -82.432
 sPSO           176.868          113.529           40.175  iso=     110.190
        ---------------  ---------------  ---------------
 Total           24.138           25.848           33.289  iso=      27.758

 Orientation: 
  X           0.9680718    0.0051626   -0.2506200
  Y           0.1491841    0.7915904    0.5925611
  Z           0.2014476   -0.6110302    0.7655462

 --------------
 Nucleus  80H :
 --------------

Diamagnetic contribution to the shielding tensor (ppm) : 
           -17.152        -86.578        17.617
           -48.816        -11.412         8.005
          -148.398         75.235       -82.959

Paramagnetic contribution to the shielding tensor (ppm): 
            44.041         83.316       -17.426
            45.113         39.203        -8.131
           150.686        -78.796       111.750

Total shielding tensor (ppm): 
            26.889         -3.261         0.191
            -3.702         27.790        -0.126
             2.288         -3.561        28.791


 Diagonalized sT*s matrix:
 
 sDSO           -84.926           20.536          -47.133  iso=     -37.174
 sPSO           108.736            6.875           79.383  iso=      64.998
        ---------------  ---------------  ---------------
 Total           23.810           27.411           32.250  iso=      27.823

 Orientation: 
  X           0.7353255   -0.3915997    0.5531239
  Y           0.6737080    0.3337669   -0.6593309
  Z           0.0735793    0.8574668    0.5092511

 --------------
 Nucleus  81H :
 --------------

Diamagnetic contribution to the shielding tensor (ppm) : 
            -4.369       -169.383         8.180
           -35.574        -87.902         8.369
          -110.716         39.044      -166.107

Paramagnetic contribution to the shielding tensor (ppm): 
            35.290        168.855       -12.964
            34.781        114.214        -7.360
           106.281        -40.481       193.277

Total shielding tensor (ppm): 
            30.922         -0.528        -4.784
            -0.793         26.312         1.009
            -4.435         -1.437        27.170


 Diagonalized sT*s matrix:
 
 sDSO          -174.475          -84.681            0.778  iso=     -86.126
 sPSO           198.419          111.097           33.267  iso=     114.261
        ---------------  ---------------  ---------------
 Total           23.944           26.416           34.045  iso=      28.135

 Orientation: 
  X           0.5548806    0.0819424   -0.8278846
  Y           0.2082747   -0.9771300    0.0428794
  Z           0.8054372    0.1962203    0.5592570



--------------------------------
CHEMICAL SHIELDING SUMMARY (ppm)
--------------------------------


  Nucleus  Element    Isotropic     Anisotropy
  -------  -------  ------------   ------------
      0       C           26.366        123.772 
      1       C           46.316         97.967 
      2       C           25.336        128.366 
      3       C           76.930        143.177 
      4       C           40.513        199.236 
      5       C           75.201        130.721 
      6       C          138.639         21.720 
      7       C          135.104         17.487 
      8       C          139.234         19.253 
      9       C          141.652         24.271 
     10       C           45.448        184.592 
     11       C           69.780        155.176 
     12       C           30.034        123.525 
     13       C           32.611        124.758 
     14       C           68.855        142.069 
     15       C           58.049        146.965 
     16       C          112.901         62.002 
     17       C          107.746         68.281 
     23       C           93.086         22.207 
     24       C          103.238         42.224 
     25       C           42.617        170.052 
     26       C          110.626         58.492 
     28       C           74.169        166.717 
     29       C           32.095        118.331 
     30       C           32.486        123.251 
     31       C           67.860        145.240 
     32       C           63.551        162.837 
     33       C          123.620         80.022 
     34       C          126.227         77.925 
     35       C          123.994         73.995 
     41       C          124.167         74.630 
     42       H           26.574          7.486 
     43       H           25.358          8.284 
     44       H           29.206          6.054 
     45       H           29.128          3.954 
     46       H           30.117          7.065 
     47       H           29.577          8.742 
     48       H           29.828          7.653 
     49       H           29.436          7.469 
     50       H           25.639          8.110 
     51       H           25.029          3.886 
     52       H           25.234          6.061 
     53       H           28.010          6.772 
     54       H           27.311          5.896 
     55       H           27.581          5.587 
     56       H           27.559          5.501 
     57       H           25.814         12.955 
     58       H           26.375          3.495 
     59       H           26.934          6.418 
     60       H           27.711          6.521 
     61       H           27.290          6.026 
     62       H           29.001         19.241 
     63       H           25.131          9.219 
     64       H           24.976          3.351 
     65       H           25.058          6.371 
     66       H           27.321          9.512 
     67       H           27.515          7.735 
     68       H           27.666          8.665 
     69       H           27.846          8.737 
     70       H           28.575          6.609 
     71       H           28.738          7.787 
     72       H           28.086          6.839 
     73       H           28.243          9.841 
     74       H           27.622          7.047 
     75       H           27.095         23.845 
     76       H           27.084         24.465 
     77       H           29.492         22.706 
     78       H           25.864         12.140 
     79       H           27.758          8.297 
     80       H           27.823          6.639 
     81       H           28.135          8.865 


NMR shielding tensor and spin rotation calculation done in   2.6 sec 

Maximum memory used throughout the entire PROP-calculation: 372.0 MB
[c02b01n07:3127499] 48 more processes have sent help message help-mpi-btl-openib.txt / error in device init
[c02b01n07:3127499] Set MCA parameter "orte_base_help_aggregate" to 0 to see all help / error messages
[c02b01n07:3127499] 10 more processes have sent help message help-mpi-btl-openib.txt / no active ports found
--------------------------------------------------------------------------
WARNING: There was an error initializing an OpenFabrics device.

  Local host:   c02b01n07
  Local device: mlx5_0
--------------------------------------------------------------------------
--------------------------------------------------------------------------
WARNING: There is at least one non-excluded one OpenFabrics device found,
but there are no active ports detected (or Open MPI was unable to use
them).  This is most certainly not what you wanted.  Check your
cables, subnet manager configuration, etc.  The openib BTL will be
ignored for this job.

  Local host: c02b01n07
--------------------------------------------------------------------------
[c02b01n07:3127947] 51 more processes have sent help message help-mpi-btl-openib.txt / error in device init
[c02b01n07:3127947] Set MCA parameter "orte_base_help_aggregate" to 0 to see all help / error messages
[c02b01n07:3127947] 7 more processes have sent help message help-mpi-btl-openib.txt / no active ports found

--------------------------------
SUGGESTED CITATIONS FOR THIS RUN
--------------------------------

Below you find a list of papers that are relevant to this ORCA run
We neither can nor want to force you to cite these papers, but we appreciate if you do
You receive ORCA, which is the product of decades of hard work by many enthusiastic individuals, for free
The only thing we kindly ask in return is that you cite our papers,
We deeply appreciate it, if you show your appreciation for ORCA by not just citing the generic ORCA reference.

Please note that relegating all ORCA citations to the supporting information does *not* help us.
SI sections are not indexed - citations you put there will not count into any citation statistics
But we need these citations in order to attract the funding resources that allow us to do what we are doing

Therefore, if you are a happy ORCA user, please consider citing a few of the papers listed below in the main body of your paper

In addition to the list printed below, the program has created the file nmr-conf-13.bibtex that contains the list in bibtex format
You can import this file easily into all common literature databanks and citation aid programs


List of essential papers. We consider these as the minimum necessary citations

  1. Neese, F.
     Software update: the ORCA program system, version 6.0
     WIRES Comput. Molec. Sci. 2025 15(1), e70019
     doi.org/10.1002/wcms.7019

List of papers to cite with high priority. The work reported in these papers was absolutely
necessary for this run to complete.
Our perspective: the developers of density functionals and basis sets usually get cited in chemistry papers
Good! But without the algorithms to do something with them, the functionals or basis sets would not do anything.
Hence, in our opinion, the algorithm design and method developments papers are equally worthy of getting cited

  1. Neese, F.
     An improvement of the resolution of the identity approximation for the formation of the Coulomb matrix
     J. Comp. Chem. 2003 24(14), 1740-1747
     doi.org/10.1002/jcc.10318
  2. Stoychev, G.L.; Auer, A.A.; Neese, F.
     Automatic Generation of Auxiliary Basis Sets
     J. Theo. Comp. Chem. 2017 13 , 554-562
     doi.org/10.1021/acs.jctc.6b01041
  3. Stoychev, G.L.; Auer, A.A.; Izsak, R.; Neese, F.
     Self-Consistent Field Calculation of Nuclear Magnetic Resonance Chemical Shielding Constants Using Gauge-Including Atomic Orbitals and Approximate Two-Electron Integrals
     J. Chem. Theory Comput. 2018 14(2), 619-637
     doi.org/10.1021/acs.jctc.7b01006
  4. Garcia-Rates, M.; Neese, F.
     Effect of the Solute Cavity on the Solvation Energy and its Derivatives within the Framework of the Gaussian Charge Scheme
     J. Comput. Chem. 2020 41 , 922-939
     doi.org/10.1002/jcc.26139
  5. Neese, F.
     The SHARK Integral Generation and Digestion System
     J. Comp. Chem. 2022 44(3), 381
     doi.org/10.1002/jcc.26942

List of suggested additional citations. These are papers that are important in the 'surrounding' of 
of this run, or papers that preceded the highly important papers. If you like your results we are grateful for a citation.

  1. Neese, F.
     The ORCA program system
     WIRES Comput. Molec. Sci. 2012 2(1), 73-78
     doi.org/10.1002/wcms.81
  2. Neese, F.
     Software update: the ORCA program system, version 4.0
     WIRES Comput. Molec. Sci. 2018 8(1), 1-6
     doi.org/10.1002/wcms.1327
  3. Neese, F.; Wennmohs, F.; Becker, U.; Riplinger, C.
     The ORCA quantum chemistry program package
     J. Chem. Phys. 2020 152(22), 224108
     doi.org/10.1063/5.0004608
  4. Neese, F.
     Software update: The ORCA program system—Version 5.0
     WIRES Comput. Molec. Sci. 2022 12(1), e1606
     doi.org/10.1002/wcms.1606

List of optional additional citations

  1. Neese, F.
     Approximate second-order SCF convergence for spin unrestricted wavefunctions
     Chem. Phys. Lett. 2000 325(1-3), 93-98
     doi.org/10.1016/s0009-2614(00)00662-x

Timings for individual modules:

Sum of individual times          ...      214.342 sec (=   3.572 min)
Startup calculation              ...       40.818 sec (=   0.680 min)  19.0 %
SCF iterations                   ...       96.990 sec (=   1.616 min)  45.2 %
Property integrals               ...       56.750 sec (=   0.946 min)  26.5 %
SCF Response                     ...       13.226 sec (=   0.220 min)   6.2 %
Property calculations            ...        6.558 sec (=   0.109 min)   3.1 %
                             ****ORCA TERMINATED NORMALLY****
TOTAL RUN TIME: 0 days 0 hours 3 minutes 42 seconds 14 msec
