
                                 *****************
                                 * O   R   C   A *
                                 *****************

                                            #,                                       
                                            ###                                      
                                            ####                                     
                                            #####                                    
                                            ######                                   
                                           ########,                                 
                                     ,,################,,,,,                         
                               ,,#################################,,                 
                          ,,##########################################,,             
                       ,#########################################, ''#####,          
                    ,#############################################,,   '####,        
                  ,##################################################,,,,####,       
                ,###########''''           ''''###############################       
              ,#####''   ,,,,##########,,,,          '''####'''          '####       
            ,##' ,,,,###########################,,,                        '##       
           ' ,,###''''                  '''############,,,                           
         ,,##''                                '''############,,,,        ,,,,,,###''
      ,#''                                            '''#######################'''  
     '                                                          ''''####''''         
             ,#######,   #######,   ,#######,      ##                                
            ,#'     '#,  ##    ##  ,#'     '#,    #''#        ,####,    ,#,          
            ##       ##  ##   ,#'  ##            #'  '#       #'       ,# #          
            ##       ##  #######   ##           ,######,      #####,      #          
            '#,     ,#'  ##    ##  '#,     ,#' ,#      #,     #,   #      #          
             '#######'   ##     ##  '#######'  #'      '#     '####' #    #          



                #########################################################
                #                        -***-                          #
                #          Department of theory and spectroscopy        #
                #                                                       #
                #                      Frank Neese                      #
                #                                                       #
                #     Directorship, Architecture, Infrastructure        #
                #                    SHARK, DRIVERS                     #
                #        Core code/Algorithms in most modules           #
                #                                                       #
                #        Max Planck Institute fuer Kohlenforschung      #
                #                Kaiser Wilhelm Platz 1                 #
                #                 D-45470 Muelheim/Ruhr                 #
                #                      Germany                          #
                #                                                       #
                #                  All rights reserved                  #
                #                        -***-                          #
                #########################################################


                         Program Version 6.1.0-f.0  -   RELEASE   -


 With contributions from (in alphabetic order):
[Max-Planck-Institut fuer Kohlenforschung]                               
  Daniel Aravena         : Magnetic Suceptibility                        
  Michael Atanasov       : Ab Initio Ligand Field Theory (pilot matlab implementation)
  Alexander A. Auer      : GIAO ZORA, VPT2 properties, NMR spectrum      
  Ute Becker             : All parallelization in ORCA, NUMFREQ, NUMCALC 
  Giovanni Bistoni       : ED, misc. LED, open-shell LED, HFLD           
  Dmytro Bykov           : pre 5.0 version of the SCF Hessian            
  Marcos Casanova-Páez   : Triplet and SCS-CIS(D). UHF-(DLPNO)-IP/EA/STEOM-CCSD. UHF-CVS-IP/STEOM-CCSD   
  Vijay G. Chilkuri      : MRCI spin determinant printing, contributions to CSF-ICE 
  Pauline Colinet        : FMM embedding                                 
  Dipayan Datta          : RHF DLPNO-CCSD density                        
  Achintya Kumar Dutta   : EOM-CC, STEOM-CC                              
  Nicolas Foglia         : Exact transition moments, OPA infrastructure, MCD improvements    
  Dmitry Ganyushin       : Spin-Orbit,Spin-Spin,Magnetic field MRCI      
  Miquel Garcia-Rates    : C-PCM and meta-GGA Hessian, CCSD/C-PCM, Gaussian charge scheme 
  Tiago L. C. Gouveia    : GS-ROHF, GS-ROCIS                             
  Yang Guo               : DLPNO-NEVPT2, F12-NEVPT2, CIM, IAO-localization        
  Andreas Hansen         : Spin unrestricted coupled pair/coupled cluster methods 
  Ingolf Harden          : AUTO-CI MPn and infrastructure                
  Benjamin Helmich-Paris : MC-RPA, TRAH-(SCF,CASSCF), AVAS, COSX integrals, SCF dyn. polar., MC-PDFT, srDFT 
  Lee Huntington         : MR-EOM, pCC                                   
  Robert Izsak           : Overlap fitted RIJCOSX, COSX-SCS-MP3, EOM     
  Riya Kayal             : Wick's Theorem for AUTO-CI, AUTO-CI UHF-CCSDT 
  Emily Kempfer          : AUTO-CI RHF CISDT and CCSDT, approximate NEVPT4
  Christian Kollmar      : KDIIS, OOCD, Brueckner-CCSD(T), CCSD density, CASPT2, CASPT2-K, improved NEVPT2 
  Axel Koslowski         : Symmetry handling                             
  Simone Kossmann        : meta-GGA functionals, TD-DFT gradient, OOMP2, (MP2 Hessian; deprecated post 5.0) 
  Lucas Lang             : DCDCAS, Hyperfine gauge corrections, ICE-SOC+SSC
  Marvin Lechner         : AUTO-CI (C++ implementation), FIC-MRCC        
  Spencer Leger          : CASSCF response                               
  Dagmar Lenk            : GEPOL surface, SMD, ORCA-2-JSON               
  Dimitrios Liakos       : Extrapolation schemes; Compound Job, Property file
  Dimitrios Manganas     : Further ROCIS development; embedding schemes. LFT, Crystal Embedding 
  Dimitrios Pantazis     : SARC Basis sets                               
  Anastasios Papadopoulos: AUTO-CI, single reference methods and gradients 
  Taras Petrenko         : pre 6.0 DFT Hessian and TD-DFT gradient,  ECA, NRVS 
  Petra Pikulova         : Analytic Raman intensities                    
  Peter Pinski           : DLPNO-MP2, DLPNO-MP2 Gradient                 
  Shashank Vittal Rao    : ES-AILFT, MagRelax                            
  Christoph Reimann      : Effective Core Potentials                     
  Marius Retegan         : Local ZFS, SOC                                
  Christoph Riplinger    : Optimizer, TS searches, QM/MM, DLPNO-CCSD(T), (RO)-DLPNO pert. Triples 
  Michael Roemelt        : Original ROCIS implementation, recursive CI coupling coefficients
  Masaaki Saitow         : Open-shell DLPNO-CCSD energy and density      
  Barbara Sandhoefer     : DKH picture change effects                    
  Yorick L. A. Schmerwitz: GMF and freeze-and-release deltaSCF, NEB S-IDPP initial path                    
  Kantharuban Sivalingam : CASSCF convergence/infrastructure, NEVPT2, NEVPT3, NEVPT4(SD), FIC-MRCI and CEPA variants
  Bernardo de Souza      : ESD, SOC TD-DFT                               
  Georgi L. Stoychev     : AutoAux, RI-MP2 NMR, DLPNO-MP2 response, X2C  
  Van Anh Tran           : RI-MP2 g-tensors                              
  Willem Van den Heuvel  : Paramagnetic NMR                              
  Zikuan Wang            : NOTCH, Electric field optimization            
  Frank Wennmohs         : Technical directorship and infrastructure     
  Hang Xu                : AUTO-CI-Response properties                   
                                                                         
[FACCTs GmbH]                                                            
  Markus Bursch, Nicolas Foglia, Miquel Garcia-Rates, Ingolf Harden, Hagen Neugebauer, Anastasios Papadopoulos, 
  Christoph Riplinger, Bernardo de Souza, Georgi L. Stoychev                                                    
                                                                 
  APM, various basis sets, CI-OPT, improved COSX, DLPNO-Multilevel,           
  DOCKER, DRACO, updates on ESD, Fragmentator, GOAT, IRC, LR-CPCM, L-BFGS, MBIS, meta-GGA TD-DFT gradient, ML-optimized integration grids, 
  MM, NACMEs, nearIR, NEB, NEB-TS, NL-DFT gradient (VV10), 2- and 3-layer-ONIOM, interface openCOSMO-RS, QMMM,   
  Crystal-QMMM, RESP, rigid body optimization, SF, symmetry and pop. for TD-DFT, various functionals, SOLVATOR                                   
                                                                         
[Other institutions]                                                     
  V. Asgeirsson          : NEB                                           
  Christoph Bannwarth    : sTDA-DFT, sTD-DFT, PBEh-3c, B97-3c, D3        
  Giovanni Bistoni       : ETS/NOCV, ADLD/ADEX, COVALED                  
  Martin Brehm           : Molecular dynamics                            
  Ronald Cardenas        : ETS/NOCV                                      
  Martina Colucci        : COVALED                                       
  Sebastian Ehlert       : rSCAN, r2SCAN, r2SCAN-3c, D4, dhf basis sets  
  Marvin Friede          : D4 for Fr, Ra, Ac-Lr                          
  Lars Goerigk           : TD-DFT with DH, B97 family of functionals     
  Stefan Grimme          : VdW corrections, initial TS optimization, DFT functionals, gCP, sTDA/sTD-DF 
  Waldemar Hujo          : DFT-NL                                        
  H. Jonsson             : NEB                                           
  Holger Kruse           : gCP                                           
  Marcel Mueller         : wB97X-3c, vDZP basis set                      
  Hagen Neugebauer       : wr2SCAN, Native XTB                           
  Gianluca Regni         : ADLD/ADEX                                     
  Tobias Risthaus        : pre 6.0 range-separated hybrid DFT and stability analysis
  Lukas Wittmann         : regularized MP2, r2SCAN double-hybrids, wr2SCAN        
                                                                         
We gratefully acknowledge several colleagues who have allowed us to      
interface, adapt or use parts of their codes:                            
  Ed Valeev, F. Pavosevic, A. Kumar             : LibInt (2-el integral package), F12 methods 
  Garnet Chan, S. Sharma, J. Yang, R. Olivares  : DMRG                   
  Ulf Ekstrom                                   : XCFun DFT Library      
  Mihaly Kallay                                 : mrcc  (arbitrary order and MRCC methods)
  Frank Weinhold                                : gennbo (NPA and NBO analysis)           
  Simon Mueller                                 : openCOSMO-RS                            
  Christopher J. Cramer and Donald G. Truhlar   : smd solvation model                     
  S Lehtola, MJT Oliveira, MAL Marques          : LibXC Library                           
  Liviu Ungur et al                             : ANISO software                          


 Your calculation uses the libint2 library for the computation of 2-el integrals
 For citations please refer to: http://libint.valeyev.net

 Your ORCA version has been built with support for libXC version: 7.0.0
 For citations please refer to: https://libxc.gitlab.io

 This ORCA versions uses:
   CBLAS   interface :  Fast vector & matrix operations
   LAPACKE interface :  Fast linear algebra routines
   SCALAPACK package :  Parallel linear algebra routines
   Shared memory     :  Shared parallel matrices
   BLAS/LAPACK       :  OpenBLAS 0.3.29  USE64BITINT DYNAMIC_ARCH NO_AFFINITY Cooperlake SINGLE_THREADED
        Core in use  :  Cooperlake
   Copyright (c) 2011-2014, The OpenBLAS Project


  ***********************************
  * Starting time: Sat Feb 28 12:46:47 2026
  * Host name:     c08b01n08
  * Process ID:    901465
  * Working dir.:  /lustre1/jiangy/jiangy_liuxy/NMR/B9D7C2-SRSS
  ***********************************

NOTE: MaxCore=6000 MB was set to SCF,MP2,MDCI,CIPSI,MRCI,RASCI and CIS
      => If you want to overwrite this, your respective input block should be placed after the MaxCore statement


***************************************
The coordinates will be read from file: conf-1.xyz
***************************************


Your calculation utilizes the atom-pairwise dispersion correction
based on EEQ partial charges (D4)


Warning: RI is on but no J-basis has been assigned. Assigning Def2/J (nothing to worry about!)
================================================================================

----- Orbital basis set information -----
Your calculation utilizes the basis: def2-TZVP
   F. Weigend and R. Ahlrichs, Phys. Chem. Chem. Phys. 7, 3297 (2005).

----- AuxJ basis set information -----
Your calculation utilizes the auxiliary basis: def2/J
   H-Rn: F. Weigend, Phys. Chem. Chem. Phys. 8, 1057 (2006).
   Fr-Lr: K. Eichkorn, F. Weigend, O. Treutler, R. Ahlrichs; Theor. Chem. Acc. 97, 119 (1997).

================================================================================
                                        WARNINGS
                       Please study these warnings very carefully!
================================================================================


WARNING: Geometry Optimization
  ===> : Switching off AutoStart
         For restart on a previous wavefunction, please use MOREAD

================================================================================
                                       INPUT FILE
================================================================================
NAME = opt-conf-1.inp
|  1> ! B3LYP OPT FREQ DEF2-TZVP D4 CPCM(Methanol) 
|  2> ! TightOpt
|  3> %pal nprocs 64 end
|  4> %maxcore 6000
|  5> 
|  6> %cpcm
|  7> end
|  8> 
|  9> %freq
| 10>    Temp 298.15
| 11> end
| 12> 
| 13> * xyzfile 0 1 conf-1.xyz
| 14> 
| 15> 
| 16>                          ****END OF INPUT****
================================================================================

                       *****************************
                       * Geometry Optimization Run *
                       *****************************

Geometry optimization settings:
Update method            Update   .... BFGS
Choice of coordinates    CoordSys .... (2022) Redundant Internals
Initial Hessian          InHess   .... Almloef's Model
Max. no of cycles        MaxIter  .... 246

Convergence Tolerances:
Energy Change            TolE     ....  1.0000e-06 Eh
Max. Gradient            TolMAXG  ....  1.0000e-04 Eh/bohr
RMS Gradient             TolRMSG  ....  3.0000e-05 Eh/bohr
Max. Displacement        TolMAXD  ....  1.0000e-03 bohr
RMS Displacement         TolRMSD  ....  6.0000e-04 bohr
Strict Convergence                .... False

------------------------------------------------------------------------------
                        ORCA OPTIMIZATION COORDINATE SETUP
------------------------------------------------------------------------------

The optimization will be done in redundant internal coordinates (2022)
Making redundant internal coordinates   ...  (2022 redundants) done
Evaluating the initial hessian          ...  (Almloef) done
Evaluating the coordinates              ...  done
Calculating the B-matrix                .... done
Calculating the G-matrix                .... done
The number of degrees of freedom        ....  406

    -----------------------------------------------------------------
                    Redundant Internal Coordinates


    -----------------------------------------------------------------
         Definition                    Initial Value    Approx d2E/dq
    -----------------------------------------------------------------
      1. B(C   1,C   0)                  1.4000         0.602213   
      2. B(C   2,C   1)                  1.4018         0.598357   
      3. B(C   3,C   2)                  1.3868         0.632204   
      4. B(C   4,C   3)                  1.3858         0.634518   
      5. B(C   5,C   4)                  1.3863         0.633311   
      6. B(C   5,C   0)                  1.3882         0.628948   
      7. B(C   6,C   4)                  1.5027         0.412978   
      8. B(C   7,C   6)                  1.5364         0.364834   
      9. B(C   8,C   7)                  1.5378         0.362986   
     10. B(C   9,C   8)                  1.5363         0.365056   
     11. B(C  10,C   9)                  1.5031         0.412444   
     12. B(C  11,C  10)                  1.3934         0.617050   
     13. B(C  12,C  11)                  1.3816         0.644315   
     14. B(C  13,C  12)                  1.4049         0.591425   
     15. B(C  14,C  13)                  1.3822         0.642889   
     16. B(C  15,C  10)                  1.3859         0.634328   
     17. B(C  15,C  14)                  1.3861         0.633855   
     18. B(C  16,C   7)                  1.5359         0.365562   
     19. B(C  17,C   8)                  1.5347         0.367231   
     20. B(O  18,C   2)                  1.3677         0.607398   
     21. B(O  19,C   0)                  1.3657         0.611840   
     22. B(O  20,C   1)                  1.3768         0.587377   
     23. B(O  21,C  13)                  1.3620         0.620232   
     24. B(O  22,C  12)                  1.3794         0.581828   
     25. B(C  23,O  20)                  1.4241         0.493639   
     26. B(C  24,C  23)                  1.5501         0.346953   
     27. B(C  25,C  24)                  1.5170         0.391911   
     28. B(C  26,C  23)                  1.5330         0.369416   
     29. B(O  27,C  26)                  1.4017         0.536120   
     30. B(C  28,C  25)                  1.3929         0.618151   
     31. B(C  29,C  28)                  1.3812         0.645351   
     32. B(C  30,C  29)                  1.4035         0.594557   
     33. B(C  31,C  30)                  1.3809         0.645972   
     34. B(C  32,C  31)                  1.3848         0.636886   
     35. B(C  32,C  25)                  1.3831         0.640771   
     36. B(C  33,O  19)                  1.4085         0.522903   
     37. B(C  34,O  18)                  1.4070         0.525699   
     38. B(C  35,O  22)                  1.4078         0.524263   
     39. B(O  36,C  24)                  1.3999         0.539686   
     40. B(O  37,C  16)                  1.4045         0.530555   
     41. B(O  38,C  17)                  1.4085         0.522749   
     42. B(O  39,C  29)                  1.3740         0.593485   
     43. B(O  40,C  30)                  1.3691         0.604257   
     44. B(C  41,O  39)                  1.4087         0.522429   
     45. B(H  42,C   3)                  1.0778         0.376594   
     46. B(H  43,C   5)                  1.0775         0.376959   
     47. B(H  44,C   6)                  1.0905         0.359380   
     48. B(H  45,C   6)                  1.0905         0.359497   
     49. B(H  46,C   7)                  1.0965         0.351585   
     50. B(H  47,C   8)                  1.0968         0.351204   
     51. B(H  48,C   9)                  1.0939         0.354925   
     52. B(H  49,C   9)                  1.0917         0.357832   
     53. B(H  50,C  11)                  1.0772         0.377407   
     54. B(H  51,C  14)                  1.0786         0.375538   
     55. B(H  52,C  15)                  1.0803         0.373096   
     56. B(H  53,C  16)                  1.0983         0.349240   
     57. B(H  54,C  16)                  1.0934         0.355635   
     58. B(H  55,C  17)                  1.0985         0.348990   
     59. B(H  56,C  17)                  1.0919         0.357597   
     60. B(H  57,O  21)                  0.9671         0.506603   
     61. B(H  57,O  22)                  2.1127         0.010000   
     62. B(H  58,C  23)                  1.0941         0.354710   
     63. B(H  59,C  24)                  1.0976         0.350165   
     64. B(H  60,C  26)                  1.0917         0.357875   
     65. B(H  61,C  26)                  1.0986         0.348853   
     66. B(H  62,O  20)                  2.3072         0.010000   
     67. B(H  62,O  27)                  0.9657         0.509275   
     68. B(H  63,C  28)                  1.0782         0.376109   
     69. B(H  64,C  31)                  1.0781         0.376237   
     70. B(H  65,C  32)                  1.0783         0.375944   
     71. B(H  66,C  33)                  1.0945         0.354221   
     72. B(H  67,C  33)                  1.0941         0.354669   
     73. B(H  68,C  33)                  1.0894         0.360904   
     74. B(H  69,C  34)                  1.0946         0.354057   
     75. B(H  70,C  34)                  1.0888         0.361681   
     76. B(H  71,C  34)                  1.0940         0.354871   
     77. B(H  72,H  64)                  4.9150         0.010000   
     78. B(H  72,C  35)                  1.0940         0.354874   
     79. B(H  73,C  35)                  1.0940         0.354820   
     80. B(H  74,C  35)                  1.0888         0.361702   
     81. B(H  75,O  20)                  2.2541         0.010000   
     82. B(H  75,O  18)                  2.0842         0.010000   
     83. B(H  75,O  36)                  0.9732         0.495300   
     84. B(H  76,O  40)                  1.9494         0.013721   
     85. B(H  76,O  37)                  0.9705         0.500272   
     86. B(H  77,O  38)                  0.9640         0.512343   
     87. B(H  78,O  39)                  2.1004         0.010000   
     88. B(H  78,O  40)                  0.9687         0.503545   
     89. B(H  79,C  41)                  1.0942         0.354596   
     90. B(H  80,O  21)                  2.3711         0.010000   
     91. B(H  80,C  41)                  1.0887         0.361858   
     92. B(H  81,H  66)                  2.4932         0.010000   
     93. B(H  81,C  41)                  1.0931         0.356048   
     94. A(C   1,C   0,O  19)          116.9894         0.427961   
     95. A(C   5,C   0,O  19)          123.8381         0.431310   
     96. A(C   1,C   0,C   5)          119.1725         0.432914   
     97. A(C   0,C   1,O  20)          124.0545         0.424845   
     98. A(C   0,C   1,C   2)          119.4561         0.429054   
     99. A(C   2,C   1,O  20)          116.3332         0.424357   
    100. A(C   3,C   2,O  18)          124.9435         0.431146   
    101. A(C   1,C   2,C   3)          120.3909         0.432816   
    102. A(C   1,C   2,O  18)          114.6626         0.426911   
    103. A(C   4,C   3,H  42)          119.2504         0.356998   
    104. A(C   2,C   3,H  42)          120.7173         0.356777   
    105. A(C   2,C   3,C   4)          120.0323         0.437412   
    106. A(C   5,C   4,C   6)          118.9284         0.405264   
    107. A(C   3,C   4,C   6)          121.3942         0.405400   
    108. A(C   3,C   4,C   5)          119.6671         0.437550   
    109. A(C   4,C   5,H  43)          118.4633         0.356941   
    110. A(C   0,C   5,H  43)          120.3027         0.356522   
    111. A(C   0,C   5,C   4)          121.2268         0.436855   
    112. A(C   4,C   6,H  44)          108.6194         0.329612   
    113. A(C   7,C   6,H  45)          109.7920         0.322972   
    114. A(C   4,C   6,C   7)          110.8657         0.368149   
    115. A(H  44,C   6,H  45)          108.2282         0.290671   
    116. A(C   4,C   6,H  45)          110.3289         0.329629   
    117. A(C   7,C   6,H  44)          108.9454         0.322955   
    118. A(C   6,C   7,C  16)          110.6575         0.360549   
    119. A(C   8,C   7,C  16)          110.3423         0.360237   
    120. A(C  16,C   7,H  46)          106.7185         0.321902   
    121. A(C   8,C   7,H  46)          106.7946         0.321529   
    122. A(C   6,C   7,H  46)          107.8252         0.321797   
    123. A(C   6,C   7,C   8)          114.1284         0.360115   
    124. A(C   7,C   8,C  17)          113.6056         0.360517   
    125. A(C  17,C   8,H  47)          107.0430         0.322085   
    126. A(C   7,C   8,C   9)          111.9920         0.360152   
    127. A(C   9,C   8,H  47)          108.5781         0.321772   
    128. A(C   7,C   8,H  47)          105.9432         0.321472   
    129. A(C   9,C   8,C  17)          109.3945         0.360867   
    130. A(H  48,C   9,H  49)          107.0770         0.289892   
    131. A(C  10,C   9,H  48)          109.3631         0.328863   
    132. A(C  10,C   9,H  49)          109.0979         0.329306   
    133. A(C   8,C   9,C  10)          114.0709         0.368106   
    134. A(C   8,C   9,H  48)          107.7551         0.322328   
    135. A(C   8,C   9,H  49)          109.2431         0.322759   
    136. A(C   9,C  10,C  11)          120.5440         0.403315   
    137. A(C  11,C  10,C  15)          118.6730         0.435481   
    138. A(C   9,C  10,C  15)          120.7777         0.405286   
    139. A(C  10,C  11,C  12)          120.7611         0.436708   
    140. A(C  10,C  11,H  50)          119.3206         0.355440   
    141. A(C  12,C  11,H  50)          119.9182         0.358060   
    142. A(C  11,C  12,C  13)          119.9899         0.433386   
    143. A(C  13,C  12,O  22)          114.5338         0.422756   
    144. A(C  11,C  12,O  22)          125.4763         0.429290   
    145. A(C  12,C  13,O  21)          120.2179         0.427620   
    146. A(C  12,C  13,C  14)          119.2660         0.433213   
    147. A(C  14,C  13,O  21)          120.5160         0.434075   
    148. A(C  13,C  14,H  51)          118.6589         0.357623   
    149. A(C  13,C  14,C  15)          120.1381         0.438654   
    150. A(C  15,C  14,H  51)          121.2000         0.356764   
    151. A(C  14,C  15,H  52)          119.1000         0.356369   
    152. A(C  10,C  15,H  52)          119.7467         0.356414   
    153. A(C  10,C  15,C  14)          121.1395         0.437594   
    154. A(O  37,C  16,H  54)          105.8092         0.340956   
    155. A(C   7,C  16,H  54)          110.7073         0.322506   
    156. A(O  37,C  16,H  53)          110.8745         0.339923   
    157. A(C   7,C  16,H  53)          108.7086         0.321549   
    158. A(C   7,C  16,O  37)          112.3841         0.382137   
    159. A(H  53,C  16,H  54)          108.2702         0.288880   
    160. A(O  38,C  17,H  56)          105.1034         0.340425   
    161. A(C   8,C  17,O  38)          112.2095         0.381457   
    162. A(H  55,C  17,H  56)          108.3997         0.289097   
    163. A(C   8,C  17,H  56)          110.8712         0.323039   
    164. A(O  38,C  17,H  55)          110.0737         0.339043   
    165. A(C   8,C  17,H  55)          110.0230         0.321752   
    166. A(C   2,O  18,C  34)          118.4295         0.414453   
    167. A(C   0,O  19,C  33)          118.2346         0.414597   
    168. A(C   1,O  20,C  23)          119.0261         0.407426   
    169. A(C  13,O  21,H  57)          107.5247         0.368489   
    170. A(C  12,O  22,C  35)          118.0654         0.411101   
    171. A(C  26,C  23,H  58)          109.6447         0.322923   
    172. A(C  24,C  23,H  58)          110.8886         0.319625   
    173. A(O  20,C  23,H  58)          110.2132         0.336731   
    174. A(C  24,C  23,C  26)          111.1217         0.358116   
    175. A(O  20,C  23,C  26)          104.7889         0.378076   
    176. A(O  20,C  23,C  24)          110.0199         0.374001   
    177. A(C  23,C  24,O  36)          109.8392         0.379812   
    178. A(O  36,C  24,H  59)          106.2088         0.341045   
    179. A(C  25,C  24,H  59)          108.9796         0.325383   
    180. A(C  23,C  24,H  59)          108.2201         0.318953   
    181. A(C  25,C  24,O  36)          113.2856         0.387944   
    182. A(C  23,C  24,C  25)          110.1173         0.361741   
    183. A(C  28,C  25,C  32)          119.4626         0.436414   
    184. A(C  24,C  25,C  32)          121.3572         0.402368   
    185. A(C  24,C  25,C  28)          119.1802         0.399829   
    186. A(O  27,C  26,H  61)          110.9568         0.340454   
    187. A(H  60,C  26,H  61)          109.0961         0.289114   
    188. A(C  23,C  26,H  61)          108.5078         0.322043   
    189. A(O  27,C  26,H  60)          106.7754         0.341911   
    190. A(C  23,C  26,H  60)          110.0004         0.323394   
    191. A(C  23,C  26,O  27)          111.4761         0.383528   
    192. A(C  26,O  27,H  62)          106.8632         0.359743   
    193. A(C  29,C  28,H  63)          120.3408         0.357948   
    194. A(C  25,C  28,H  63)          119.2816         0.355340   
    195. A(C  25,C  28,C  29)          120.3772         0.436975   
    196. A(C  30,C  29,O  39)          114.6497         0.424659   
    197. A(C  28,C  29,O  39)          125.7234         0.430945   
    198. A(C  28,C  29,C  30)          119.6265         0.433923   
    199. A(C  31,C  30,O  40)          120.4633         0.432415   
    200. A(C  29,C  30,O  40)          119.7322         0.426029   
    201. A(C  29,C  30,C  31)          119.7973         0.433998   
    202. A(C  32,C  31,H  64)          120.8146         0.357166   
    203. A(C  30,C  31,H  64)          119.1203         0.358028   
    204. A(C  30,C  31,C  32)          120.0610         0.439411   
    205. A(C  31,C  32,H  65)          119.9309         0.357119   
    206. A(C  25,C  32,H  65)          119.5083         0.357488   
    207. A(C  25,C  32,C  31)          120.5529         0.438770   
    208. A(H  67,C  33,H  68)          109.0870         0.290248   
    209. A(H  66,C  33,H  68)          109.7779         0.290190   
    210. A(O  19,C  33,H  68)          105.5065         0.340966   
    211. A(H  66,C  33,H  67)          109.3422         0.289398   
    212. A(O  19,C  33,H  67)          111.3488         0.339975   
    213. A(O  19,C  33,H  66)          111.6880         0.339903   
    214. A(H  69,C  34,H  71)          109.4797         0.289403   
    215. A(O  18,C  34,H  71)          111.5087         0.340310   
    216. A(H  69,C  34,H  70)          109.3648         0.290267   
    217. A(O  18,C  34,H  70)          105.5877         0.341394   
    218. A(O  18,C  34,H  69)          111.4841         0.340179   
    219. A(H  70,C  34,H  71)          109.3186         0.290372   
    220. A(H  73,C  35,H  74)          109.2759         0.290368   
    221. A(H  72,C  35,H  74)          109.4843         0.290375   
    222. A(O  22,C  35,H  74)          105.6008         0.341241   
    223. A(H  72,C  35,H  73)          109.6995         0.289501   
    224. A(O  22,C  35,H  73)          111.3090         0.340146   
    225. A(O  22,C  35,H  72)          111.3704         0.340155   
    226. A(C  24,O  36,H  75)          107.3613         0.358447   
    227. A(C  16,O  37,H  76)          108.0101         0.358016   
    228. A(C  17,O  38,H  77)          108.4194         0.358566   
    229. A(C  29,O  39,C  41)          118.2928         0.412294   
    230. A(C  30,O  40,H  78)          107.4230         0.366463   
    231. A(H  80,C  41,H  81)          109.3880         0.290545   
    232. A(H  79,C  41,H  81)          109.4205         0.289622   
    233. A(O  39,C  41,H  81)          111.5461         0.340144   
    234. A(H  79,C  41,H  80)          109.9832         0.290359   
    235. A(O  39,C  41,H  80)          105.3386         0.341065   
    236. A(O  39,C  41,H  79)          111.0867         0.339911   
    237. D(O  20,C   1,C   0,O  19)      5.2809         0.025011   
    238. D(C   2,C   1,C   0,O  19)   -179.4336         0.025011   
    239. D(C   2,C   1,C   0,C   5)      0.6615         0.025011   
    240. D(O  20,C   1,C   0,C   5)   -174.6240         0.025011   
    241. D(O  18,C   2,C   1,C   0)    177.1915         0.024675   
    242. D(C   3,C   2,C   1,C   0)     -2.1983         0.024675   
    243. D(C   3,C   2,C   1,O  20)    173.4442         0.024675   
    244. D(O  18,C   2,C   1,O  20)     -7.1660         0.024675   
    245. D(C   4,C   3,C   2,C   1)      1.6250         0.027725   
    246. D(H  42,C   3,C   2,O  18)      2.2919         0.027725   
    247. D(C   4,C   3,C   2,O  18)   -177.6985         0.027725   
    248. D(H  42,C   3,C   2,C   1)   -178.3845         0.027725   
    249. D(C   6,C   4,C   3,H  42)     -0.6778         0.027941   
    250. D(C   5,C   4,C   3,H  42)   -179.5017         0.027941   
    251. D(C   5,C   4,C   3,C   2)      0.4889         0.027941   
    252. D(C   6,C   4,C   3,C   2)    179.3128         0.027941   
    253. D(H  43,C   5,C   4,C   6)      0.0710         0.027828   
    254. D(H  43,C   5,C   4,C   3)    178.9239         0.027828   
    255. D(C   0,C   5,C   4,C   3)     -2.0513         0.027828   
    256. D(C   4,C   5,C   0,O  19)   -178.4381         0.027421   
    257. D(H  43,C   5,C   0,C   1)   -179.5332         0.027421   
    258. D(H  43,C   5,C   0,O  19)      0.5688         0.027421   
    259. D(C   0,C   5,C   4,C   6)    179.0958         0.027828   
    260. D(C   4,C   5,C   0,C   1)      1.4598         0.027421   
    261. D(H  45,C   6,C   4,C   3)     18.4876         0.012625   
    262. D(H  44,C   6,C   4,C   5)    -44.2018         0.012625   
    263. D(H  44,C   6,C   4,C   3)    136.9658         0.012625   
    264. D(C   7,C   6,C   4,C   5)     75.4723         0.012625   
    265. D(C   7,C   6,C   4,C   3)   -103.3600         0.012625   
    266. D(C   8,C   7,C   6,H  44)    -37.6146         0.010659   
    267. D(C   8,C   7,C   6,C   4)   -157.0934         0.010659   
    268. D(C  16,C   7,C   6,H  45)    -44.4211         0.010659   
    269. D(C  16,C   7,C   6,H  44)   -162.7810         0.010659   
    270. D(C   8,C   7,C   6,H  45)     80.7453         0.010659   
    271. D(C  16,C   7,C   6,C   4)     77.7402         0.010659   
    272. D(C  17,C   8,C   7,H  46)   -165.2516         0.010559   
    273. D(C  17,C   8,C   7,C  16)     79.1302         0.010559   
    274. D(C  17,C   8,C   7,C   6)    -46.2030         0.010559   
    275. D(C   9,C   8,C   7,C  16)   -156.3060         0.010559   
    276. D(C   9,C   8,C   7,H  46)    -40.6878         0.010559   
    277. D(C   9,C   8,C   7,C   6)     78.3609         0.010559   
    278. D(H  48,C   9,C   8,C  17)    -55.3290         0.010671   
    279. D(H  48,C   9,C   8,C   7)    177.7995         0.010671   
    280. D(C  10,C   9,C   8,H  47)    -60.4564         0.010671   
    281. D(C  10,C   9,C   8,C  17)   -176.9522         0.010671   
    282. D(H  48,C   9,C   8,H  47)     61.1667         0.010671   
    283. D(C  10,C   9,C   8,C   7)     56.1764         0.010671   
    284. D(C  15,C  10,C   9,H  48)    110.3302         0.012594   
    285. D(C  15,C  10,C   9,C   8)   -128.9389         0.012594   
    286. D(C  11,C  10,C   9,H  49)    174.3695         0.012594   
    287. D(C  11,C  10,C   9,H  48)    -68.8180         0.012594   
    288. D(C  11,C  10,C   9,C   8)     51.9129         0.012594   
    289. D(H  50,C  11,C  10,C  15)   -179.9982         0.026332   
    290. D(H  50,C  11,C  10,C   9)     -0.8323         0.026332   
    291. D(C  12,C  11,C  10,C  15)      0.1125         0.026332   
    292. D(C  12,C  11,C  10,C   9)    179.2783         0.026332   
    293. D(O  22,C  12,C  11,H  50)     -1.5703         0.028870   
    294. D(C  13,C  12,C  11,H  50)    178.4722         0.028870   
    295. D(O  22,C  12,C  11,C  10)    178.3184         0.028870   
    296. D(C  13,C  12,C  11,C  10)     -1.6391         0.028870   
    297. D(O  21,C  13,C  12,C  11)   -177.9905         0.024077   
    298. D(C  14,C  13,C  12,O  22)   -178.0766         0.024077   
    299. D(C  14,C  13,C  12,C  11)      1.8854         0.024077   
    300. D(O  21,C  13,C  12,O  22)      2.0476         0.024077   
    301. D(H  51,C  14,C  13,O  21)     -0.1090         0.028733   
    302. D(H  51,C  14,C  13,C  12)   -179.9845         0.028733   
    303. D(C  15,C  14,C  13,O  21)    179.2573         0.028733   
    304. D(C  15,C  14,C  13,C  12)     -0.6182         0.028733   
    305. D(H  52,C  15,C  14,H  51)     -0.2198         0.027879   
    306. D(H  52,C  15,C  14,C  13)   -179.5697         0.027879   
    307. D(C  10,C  15,C  14,H  51)    178.4281         0.027879   
    308. D(C  10,C  15,C  14,C  13)     -0.9218         0.027879   
    309. D(H  52,C  15,C  10,C  11)    179.8170         0.027923   
    310. D(H  52,C  15,C  10,C   9)      0.6532         0.027923   
    311. D(C  14,C  15,C  10,C  11)      1.1777         0.027923   
    312. D(C  14,C  15,C  10,C   9)   -177.9861         0.027923   
    313. D(H  53,C  16,C   7,H  46)     68.9824         0.010699   
    314. D(H  53,C  16,C   7,C   8)   -175.3517         0.010699   
    315. D(H  53,C  16,C   7,C   6)    -48.0717         0.010699   
    316. D(O  37,C  16,C   7,H  46)    -54.1330         0.010699   
    317. D(O  37,C  16,C   7,C   8)     61.5329         0.010699   
    318. D(O  37,C  16,C   7,C   6)   -171.1871         0.010699   
    319. D(H  55,C  17,C   8,H  47)     70.8582         0.010791   
    320. D(H  55,C  17,C   8,C   9)   -171.6773         0.010791   
    321. D(H  55,C  17,C   8,C   7)    -45.7254         0.010791   
    322. D(O  38,C  17,C   8,H  47)    -52.0555         0.010791   
    323. D(O  38,C  17,C   8,C   9)     65.4090         0.010791   
    324. D(O  38,C  17,C   8,C   7)   -168.6391         0.010791   
    325. D(C  34,O  18,C   2,C   3)      0.2520         0.029781   
    326. D(C  34,O  18,C   2,C   1)   -179.1059         0.029781   
    327. D(C  33,O  19,C   0,C   5)      2.8293         0.027413   
    328. D(C  33,O  19,C   0,C   1)   -177.0707         0.027413   
    329. D(C  23,O  20,C   1,C   2)    125.4781         0.030126   
    330. D(C  23,O  20,C   1,C   0)    -59.1019         0.030126   
    331. D(H  57,O  21,C  13,C  14)   -178.9575         0.031152   
    332. D(H  57,O  21,C  13,C  12)      0.9168         0.031152   
    333. D(C  35,O  22,C  12,C  13)    178.4177         0.027163   
    334. D(C  35,O  22,C  12,C  11)     -1.5418         0.027163   
    335. D(H  58,C  23,O  20,C   1)     55.4030         0.022413   
    336. D(C  26,C  23,O  20,C   1)    173.2898         0.022413   
    337. D(C  24,C  23,O  20,C   1)    -67.1815         0.022413   
    338. D(O  36,C  24,C  23,H  58)   -172.8172         0.010000   
    339. D(O  36,C  24,C  23,C  26)     64.9623         0.010000   
    340. D(O  36,C  24,C  23,O  20)    -50.6320         0.010000   
    341. D(C  25,C  24,C  23,H  58)    -47.3863         0.010000   
    342. D(C  25,C  24,C  23,C  26)   -169.6068         0.010000   
    343. D(C  25,C  24,C  23,O  20)     74.7989         0.010000   
    344. D(C  32,C  25,C  24,O  36)      3.0645         0.011421   
    345. D(C  32,C  25,C  24,C  23)   -120.3796         0.011421   
    346. D(C  28,C  25,C  24,H  59)    -59.0365         0.011421   
    347. D(C  28,C  25,C  24,O  36)   -177.0306         0.011421   
    348. D(C  28,C  25,C  24,C  23)     59.5252         0.011421   
    349. D(H  60,C  26,C  23,H  58)    -61.0323         0.010911   
    350. D(H  60,C  26,C  23,C  24)     61.9070         0.010911   
    351. D(H  60,C  26,C  23,O  20)   -179.3055         0.010911   
    352. D(O  27,C  26,C  23,H  58)     57.2138         0.010911   
    353. D(O  27,C  26,C  23,C  24)   -179.8469         0.010911   
    354. D(O  27,C  26,C  23,O  20)    -61.0594         0.010911   
    355. D(H  62,O  27,C  26,H  61)    -71.4463         0.022849   
    356. D(H  62,O  27,C  26,H  60)    169.7799         0.022849   
    357. D(H  62,O  27,C  26,C  23)     49.6156         0.022849   
    358. D(H  63,C  28,C  25,C  32)   -176.5659         0.026431   
    359. D(H  63,C  28,C  25,C  24)      3.5274         0.026431   
    360. D(C  29,C  28,C  25,C  32)      3.6346         0.026431   
    361. D(C  29,C  28,C  25,C  24)   -176.2721         0.026431   
    362. D(C  30,C  29,C  28,H  63)    178.5676         0.028969   
    363. D(C  30,C  29,C  28,C  25)     -1.6350         0.028969   
    364. D(O  39,C  29,C  28,H  63)     -1.1748         0.028969   
    365. D(O  39,C  29,C  28,C  25)    178.6225         0.028969   
    366. D(O  40,C  30,C  29,O  39)     -0.8440         0.024346   
    367. D(O  40,C  30,C  29,C  28)    179.3860         0.024346   
    368. D(C  31,C  30,C  29,O  39)    178.1862         0.024346   
    369. D(C  31,C  30,C  29,C  28)     -1.5838         0.024346   
    370. D(H  64,C  31,C  30,O  40)      2.5332         0.029029   
    371. D(H  64,C  31,C  30,C  29)   -176.4899         0.029029   
    372. D(C  32,C  31,C  30,O  40)   -178.1895         0.029029   
    373. D(C  32,C  31,C  30,C  29)      2.7874         0.029029   
    374. D(H  65,C  32,C  31,H  64)     -0.4880         0.028164   
    375. D(H  65,C  32,C  31,C  30)   -179.7529         0.028164   
    376. D(C  25,C  32,C  31,H  64)    178.4896         0.028164   
    377. D(C  25,C  32,C  31,C  30)     -0.7753         0.028164   
    378. D(H  65,C  32,C  25,C  28)    176.5494         0.028532   
    379. D(H  65,C  32,C  25,C  24)     -3.5460         0.028532   
    380. D(C  31,C  32,C  25,C  28)     -2.4325         0.028532   
    381. D(C  31,C  32,C  25,C  24)    177.4721         0.028532   
    382. D(H  68,C  33,O  19,C   0)    179.0581         0.021688   
    383. D(H  67,C  33,O  19,C   0)     60.8417         0.021688   
    384. D(H  66,C  33,O  19,C   0)    -61.7162         0.021688   
    385. D(H  71,C  34,O  18,C   2)    -62.8075         0.023807   
    386. D(H  70,C  34,O  18,C   2)    178.5659         0.023807   
    387. D(H  69,C  34,O  18,C   2)     59.8970         0.023807   
    388. D(H  74,C  35,O  22,C  12)   -178.1433         0.023671   
    389. D(H  73,C  35,O  22,C  12)     63.3794         0.023671   
    390. D(H  72,C  35,O  22,C  12)    -59.3839         0.023671   
    391. D(H  75,O  36,C  24,H  59)    163.0725         0.023169   
    392. D(H  75,O  36,C  24,C  25)    -77.3346         0.023169   
    393. D(H  75,O  36,C  24,C  23)     46.2623         0.023169   
    394. D(H  76,O  37,C  16,H  54)   -176.5876         0.022356   
    395. D(H  76,O  37,C  16,H  53)    -59.4139         0.022356   
    396. D(H  76,O  37,C  16,C   7)     62.4781         0.022356   
    397. D(H  77,O  38,C  17,H  56)   -179.4015         0.021675   
    398. D(H  77,O  38,C  17,H  55)    -62.8690         0.021675   
    399. D(H  77,O  38,C  17,C   8)     60.0161         0.021675   
    400. D(C  41,O  39,C  29,C  30)   -173.3773         0.028338   
    401. D(C  41,O  39,C  29,C  28)      6.3764         0.028338   
    402. D(H  78,O  40,C  30,C  31)   -177.2783         0.029451   
    403. D(H  78,O  40,C  30,C  29)      1.7453         0.029451   
    404. D(H  81,C  41,O  39,C  29)    -60.2250         0.023497   
    405. D(H  80,C  41,O  39,C  29)   -178.8052         0.023497   
    406. D(H  79,C  41,O  39,C  29)     62.1451         0.023497   
    -----------------------------------------------------------------

Number of atoms                         .... 82
Number of degrees of freedom            .... 406


         *************************************************************
         *                GEOMETRY OPTIMIZATION CYCLE   1            *
         *************************************************************
---------------------------------
CARTESIAN COORDINATES (ANGSTROEM)
---------------------------------
  C     10.577978  -10.289541   -2.354282
  C     11.262947   -9.076498   -2.493577
  C     10.654768   -7.888328   -2.065409
  C      9.367429   -7.905310   -1.549985
  C      8.686463   -9.105685   -1.424216
  C      9.302480  -10.287354   -1.806386
  C      7.296587   -9.161356   -0.855651
  C      7.317507   -9.677648    0.591301
  C      5.985779  -10.286789    1.060724
  C      5.785288  -11.712968    0.525962
  C      6.896414  -12.661768    0.878598
  C      7.317538  -12.799378    2.199685
  C      8.328392  -13.681045    2.530939
  C      8.920525  -14.476541    1.535737
  C      8.507336  -14.336652    0.224149
  C      7.510380  -13.429321   -0.098422
  C      7.767186   -8.569839    1.555429
  C      4.760758   -9.432871    0.706698
  O     11.433310   -6.770979   -2.191801
  O     11.222166  -11.417157   -2.776955
  O     12.483163   -8.947401   -3.118091
  O      9.888914  -15.376434    1.863529
  O      8.842363  -13.870649    3.796884
  C     13.595850   -9.683320   -2.619572
  C     13.992332   -9.159666   -1.215481
  C     12.992247   -9.636389   -0.179275
  C     14.715514   -9.437203   -3.637419
  O     14.363275   -9.904965   -4.910917
  C     12.802892  -11.004298    0.002848
  C     11.844476  -11.465536    0.883974
  C     11.082686  -10.547568    1.623457
  C     11.319301   -9.193722    1.489025
  C     12.265400   -8.741330    0.584666
  C     10.533409  -12.643748   -2.707303
  C     10.907568   -5.536749   -1.767600
  C      8.325937  -13.086377    4.845690
  O     14.132395   -7.767253   -1.249831
  O      7.990086   -9.050736    2.856080
  O      3.595490   -9.875844    1.362378
  O     11.547540  -12.784681    1.127997
  O     10.123420  -11.002053    2.488145
  C     12.359171  -13.772319    0.536149
  H      8.885098   -6.991552   -1.243269
  H      8.761797  -11.211340   -1.683849
  H      6.698056   -9.839472   -1.464920
  H      6.833866   -8.174505   -0.888911
  H      8.069148  -10.473633    0.652835
  H      6.042901  -10.328802    2.155239
  H      4.842505  -12.091795    0.931371
  H      5.676413  -11.678142   -0.559757
  H      6.847467  -12.207889    2.967526
  H      8.968328  -14.952451   -0.531893
  H      7.195466  -13.338682   -1.127873
  H      8.673272   -8.098065    1.151968
  H      6.994182   -7.802352    1.650005
  H      4.953400   -8.379288    0.950874
  H      4.532061   -9.503509   -0.358643
  H     10.017755  -15.329816    2.820856
  H     13.358238  -10.750755   -2.585057
  H     14.983080   -9.561213   -0.966605
  H     15.615644   -9.978920   -3.340617
  H     14.935055   -8.360982   -3.660954
  H     13.485816   -9.552196   -5.106108
  H     13.410433  -11.699498   -0.553945
  H     10.767550   -8.501105    2.103907
  H     12.451302   -7.683953    0.484262
  H     10.266568  -12.899856   -1.677209
  H      9.628929  -12.628187   -3.322776
  H     11.222463  -13.387705   -3.105437
  H     10.651780   -5.554439   -0.703446
  H     11.698750   -4.808088   -1.936672
  H     10.025523   -5.254989   -2.350184
  H      8.468887  -12.019029    4.653014
  H      7.264218  -13.292395    5.010591
  H      8.889739  -13.374198    5.731553
  H     13.361275   -7.409414   -1.723636
  H      8.712065   -9.698116    2.817017
  H      3.742774   -9.823776    2.313652
  H     10.147022  -11.970212    2.464724
  H     13.392120  -13.696416    0.889016
  H     11.928811  -14.722865    0.846737
  H     12.341915  -13.705359   -0.554742

----------------------------
CARTESIAN COORDINATES (A.U.)
----------------------------
  NO LB      ZA    FRAG     MASS         X           Y           Z
   0 C     6.0000    0    12.011   19.989482  -19.444415   -4.448949
   1 C     6.0000    0    12.011   21.283886  -17.152096   -4.712178
   2 C     6.0000    0    12.011   20.134593  -14.906779   -3.903058
   3 C     6.0000    0    12.011   17.701875  -14.938870   -2.929047
   4 C     6.0000    0    12.011   16.415036  -17.207251   -2.691378
   5 C     6.0000    0    12.011   17.579139  -19.440281   -3.413574
   6 C     6.0000    0    12.011   13.788552  -17.312455   -1.616946
   7 C     6.0000    0    12.011   13.828085  -18.288104    1.117397
   8 C     6.0000    0    12.011   11.311483  -19.439214    2.004477
   9 C     6.0000    0    12.011   10.932609  -22.134301    0.993923
  10 C     6.0000    0    12.011   13.032334  -23.927274    1.660309
  11 C     6.0000    0    12.011   13.828144  -24.187319    4.156802
  12 C     6.0000    0    12.011   15.738380  -25.853428    4.782782
  13 C     6.0000    0    12.011   16.857349  -27.356698    2.902123
  14 C     6.0000    0    12.011   16.076536  -27.092345    0.423580
  15 C     6.0000    0    12.011   14.192562  -25.377738   -0.185991
  16 C     6.0000    0    12.011   14.677855  -16.194648    2.939335
  17 C     6.0000    0    12.011    8.996529  -17.825543    1.335465
  18 O     8.0000    0    15.999   21.605825  -12.795297   -4.141903
  19 O     8.0000    0    15.999   21.206820  -21.575299   -5.247685
  20 O     8.0000    0    15.999   23.589759  -16.908138   -5.892338
  21 O     8.0000    0    15.999   18.687340  -29.057249    3.521560
  22 O     8.0000    0    15.999   16.709644  -26.211728    7.175071
  23 C     6.0000    0    12.011   25.692432  -18.298823   -4.950274
  24 C     6.0000    0    12.011   26.441675  -17.309261   -2.296925
  25 C     6.0000    0    12.011   24.551788  -18.210135   -0.338780
  26 C     6.0000    0    12.011   27.808292  -17.833730   -6.873725
  27 O     8.0000    0    15.999   27.142657  -18.717671   -9.280288
  28 C     6.0000    0    12.011   24.193959  -20.795110    0.005383
  29 C     6.0000    0    12.011   22.382815  -21.666723    1.670468
  30 C     6.0000    0    12.011   20.943241  -19.932016    3.067889
  31 C     6.0000    0    12.011   21.390379  -17.373617    2.813849
  32 C     6.0000    0    12.011   23.178246  -16.518720    1.104859
  33 C     6.0000    0    12.011   19.905259  -23.893221   -5.116061
  34 C     6.0000    0    12.011   20.612316  -10.462938   -3.340280
  35 C     6.0000    0    12.011   15.733740  -24.729669    9.157028
  36 O     8.0000    0    15.999   26.706356  -14.677980   -2.361839
  37 O     8.0000    0    15.999   15.099075  -17.103413    5.397210
  38 O     8.0000    0    15.999    6.794492  -18.662641    2.574521
  39 O     8.0000    0    15.999   21.821688  -24.159546    2.131606
  40 O     8.0000    0    15.999   19.130492  -20.790868    4.701913
  41 C     6.0000    0    12.011   23.355449  -26.025912    1.013175
  42 H     1.0000    0     1.008   16.790402  -13.212118   -2.349437
  43 H     1.0000    0     1.008   16.557397  -21.186362   -3.182014
  44 H     1.0000    0     1.008   12.657492  -18.593907   -2.768297
  45 H     1.0000    0     1.008   12.914135  -15.447575   -1.679799
  46 H     1.0000    0     1.008   15.248480  -19.792299    1.233679
  47 H     1.0000    0     1.008   11.419427  -19.518608    4.072811
  48 H     1.0000    0     1.008    9.151009  -22.850181    1.760036
  49 H     1.0000    0     1.008   10.726865  -22.068489   -1.057788
  50 H     1.0000    0     1.008   12.939837  -23.069567    5.607812
  51 H     1.0000    0     1.008   16.947683  -28.256037   -1.005132
  52 H     1.0000    0     1.008   13.597460  -25.206457   -2.131370
  53 H     1.0000    0     1.008   16.390108  -15.303125    2.176904
  54 H     1.0000    0     1.008   13.217089  -14.744308    3.118058
  55 H     1.0000    0     1.008    9.360570  -15.834560    1.796891
  56 H     1.0000    0     1.008    8.564355  -17.959030   -0.677737
  57 H     1.0000    0     1.008   18.930814  -28.969153    5.330645
  58 H     1.0000    0     1.008   25.243412  -20.315982   -4.885049
  59 H     1.0000    0     1.008   28.313918  -18.068074   -1.826619
  60 H     1.0000    0     1.008   29.509291  -18.857426   -6.312851
  61 H     1.0000    0     1.008   28.223164  -15.799965   -6.918200
  62 H     1.0000    0     1.008   25.484499  -18.051035   -9.649146
  63 H     1.0000    0     1.008   25.342046  -22.108848   -1.046804
  64 H     1.0000    0     1.008   20.347721  -16.064760    3.975809
  65 H     1.0000    0     1.008   23.529551  -14.520568    0.915122
  66 H     1.0000    0     1.008   19.401001  -24.377195   -3.169466
  67 H     1.0000    0     1.008   18.196038  -23.863815   -6.279137
  68 H     1.0000    0     1.008   21.207381  -25.299096   -5.868425
  69 H     1.0000    0     1.008   20.128947  -10.496369   -1.329320
  70 H     1.0000    0     1.008   22.107434   -9.085969   -3.659779
  71 H     1.0000    0     1.008   18.945494   -9.930490   -4.441204
  72 H     1.0000    0     1.008   16.003877  -22.712673    8.792923
  73 H     1.0000    0     1.008   13.727383  -25.118987    9.468644
  74 H     1.0000    0     1.008   16.799171  -25.273572   10.831066
  75 H     1.0000    0     1.008   25.249151  -14.001763   -3.257200
  76 H     1.0000    0     1.008   16.463418  -18.326783    5.323391
  77 H     1.0000    0     1.008    7.072817  -18.564247    4.372169
  78 H     1.0000    0     1.008   19.175093  -22.620423    4.657653
  79 H     1.0000    0     1.008   25.307438  -25.882476    1.679997
  80 H     1.0000    0     1.008   22.542185  -27.822182    1.600101
  81 H     1.0000    0     1.008   23.322838  -25.899376   -1.048311

--------------------------------
INTERNAL COORDINATES (ANGSTROEM)
--------------------------------
 C      0   0   0     0.000000000000     0.00000000     0.00000000
 C      1   0   0     1.400021177120     0.00000000     0.00000000
 C      2   1   0     1.401770012282   119.45609280     0.00000000
 C      3   2   1     1.386791864900   120.39087823   357.80169303
 C      4   3   2     1.385797042757   120.03225920     1.62501793
 C      5   4   3     1.386315610724   119.66714257     0.48889024
 C      5   4   3     1.502704005238   121.39418776   179.31275127
 C      7   5   4     1.536445034636   110.86569226   256.64000215
 C      8   7   5     1.537826914752   114.12839984   202.90657892
 C      9   8   7     1.536278983407   111.99202671    78.36085905
 C     10   9   8     1.503055729345   114.07091137    56.17635719
 C     11  10   9     1.393395920974   120.54401927    51.91293049
 C     12  11  10     1.381626231238   120.76109268   179.27833992
 C     13  12  11     1.404941935450   119.98991942   358.36086722
 C     14  13  12     1.382229563365   119.26598726     1.88538544
 C     11  10   9     1.385878600015   120.77768114   231.06109266
 C      8   7   5     1.535902150735   110.65749082    77.74018107
 C      9   8   7     1.534661798627   113.60555329   313.79701253
 O      3   2   1     1.367687894130   114.66255408   177.19153640
 O      1   2   3     1.365704064448   116.98939962   180.56642758
 O      2   1   3     1.376811375842   124.05454871   184.71448609
 O     14  13  12     1.361995977997   120.21788170   182.00952280
 O     13  12  11     1.379395352419   125.47631552   178.31835604
 C     21   2   1     1.424138425523   119.02609307   300.89806193
 C     24  21   2     1.550124094353   110.01987531   292.81853147
 C     25  24  21     1.516956369851   110.11734690    74.79889446
 C     24  21   2     1.533047549132   104.78888105   173.28983434
 O     27  24  21     1.401666920753   111.47610008   298.94063678
 C     26  25  24     1.392910854172   119.18015002    59.52521546
 C     29  26  25     1.381189133549   120.37724475   183.72793540
 C     30  29  26     1.403504122008   119.62649474   358.36497124
 C     31  30  29     1.380927017371   119.79733568   358.41622402
 C     26  25  24     1.383127617073   121.35718085   239.62035201
 C     20   1   2     1.408461387396   118.23460693   182.92925199
 C     19   3   2     1.407010075739   118.42945402   180.89410931
 C     23  13  12     1.407754768877   118.06544787   358.45818596
 O     25  24  21     1.399862127339   109.83918909   309.36804194
 O     17   8   7     1.404507124182   112.38407634   188.81288968
 O     18   9   8     1.408541940915   112.20954137   191.36094742
 O     30  29  26     1.373995282616   125.72340181   178.62248444
 O     31  30  29     1.369098976918   119.73217660   179.38601601
 C     40  30  29     1.408708282411   118.29277069     6.37636043
 H      4   3   2     1.077808479460   120.71731769   181.61546494
 H      6   5   4     1.077544870280   118.46326866   178.92394660
 H      7   5   4     1.090545145000   108.61941161   136.96582949
 H      7   5   4     1.090455870160   110.32890728    18.48757580
 H      8   7   5     1.096513945551   107.82522409   321.36988042
 H      9   8   7     1.096809476786   105.94323475   196.57175484
 H     10   9   8     1.093940124280   107.75513629   177.79949879
 H     10   9   8     1.091719736948   109.24308230   293.79925023
 H     12  11  10     1.077221964366   119.32059131   359.16765688
 H     15  14  13     1.078573366108   118.65887291   180.01548170
 H     16  11  10     1.080349286089   119.74673642     0.65317648
 H     17   8   7     1.098335894902   108.70861054   311.92829817
 H     17   8   7     1.093396587595   110.70731785    70.73525430
 H     18   9   8     1.098530575370   110.02298052   314.27463051
 H     18   9   8     1.091898687277   110.87119572    74.17496081
 H     22  14  13     0.967081937911   107.52474211     0.91684556
 H     24  21   2     1.094105568273   110.21315690    55.40297414
 H     25  24  21     1.097615849964   108.22010366   193.82562037
 H     27  24  21     1.091687411716   110.00040126   180.69447850
 H     27  24  21     1.098637842795   108.50783348    61.42098754
 H     28  27  24     0.965650022073   106.86322476    49.61557240
 H     29  26  25     1.078159783610   119.28163087     3.52739815
 H     32  31  30     1.078067295429   119.12031755   183.51014274
 H     33  26  25     1.078279398092   119.50832115   356.45398638
 H     34  20   1     1.094480904971   111.68801559   298.28377138
 H     34  20   1     1.094136777498   111.34879346    60.84170563
 H     34  20   1     1.089392834471   105.50651273   179.05807957
 H     35  19   3     1.094606635891   111.48411419    59.89696586
 H     35  19   3     1.088807474092   105.58766157   178.56589656
 H     35  19   3     1.093981366989   111.50868900   297.19249879
 H     36  23  13     1.093979679921   111.37035098   300.61614977
 H     36  23  13     1.094020586016   111.30901657    63.37943436
 H     36  23  13     1.088791419746   105.60076011   181.85671338
 H     37  25  24     0.973224170965   107.36132427    46.26229941
 H     38  17   8     0.970505264329   108.01013693    62.47812415
 H     39  18   9     0.964015347121   108.41940592    60.01609411
 H     41  31  30     0.968730034788   107.42295939     1.74532703
 H     42  40  30     1.094192907924   111.08671454    62.14507197
 H     42  40  30     1.088674297530   105.33861551   181.19479178
 H     42  40  30     1.093080481251   111.54613894   299.77497083

---------------------------
INTERNAL COORDINATES (A.U.)
---------------------------
 C      0   0   0     0.000000000000     0.00000000     0.00000000
 C      1   0   0     2.645656606448     0.00000000     0.00000000
 C      2   1   0     2.648961425956   119.45609280     0.00000000
 C      3   2   1     2.620656829411   120.39087823   357.80169303
 C      4   3   2     2.618776888009   120.03225920     1.62501793
 C      5   4   3     2.619756839448   119.66714257     0.48889024
 C      5   4   3     2.839699030247   121.39418776   179.31275127
 C      7   5   4     2.903460335285   110.86569226   256.64000215
 C      8   7   5     2.906071710254   114.12839984   202.90657892
 C      9   8   7     2.903146543939   111.99202671    78.36085905
 C     10   9   8     2.840363692484   114.07091137    56.17635719
 C     11  10   9     2.633136686763   120.54401927    51.91293049
 C     12  11  10     2.610895196482   120.76109268   179.27833992
 C     13  12  11     2.654955492062   119.98991942   358.36086722
 C     14  13  12     2.612035328970   119.26598726     1.88538544
 C     11  10   9     2.618931008891   120.77768114   231.06109266
 C      8   7   5     2.902434433389   110.65749082    77.74018107
 C      9   8   7     2.900090507596   113.60555329   313.79701253
 O      3   2   1     2.584555556585   114.66255408   177.19153640
 O      1   2   3     2.580806661790   116.98939962   180.56642758
 O      2   1   3     2.601796438408   124.05454871   184.71448609
 O     14  13  12     2.573799393916   120.21788170   182.00952280
 O     13  12  11     2.606679446475   125.47631552   178.31835604
 C     21   2   1     2.691231601031   119.02609307   300.89806193
 C     24  21   2     2.929310011919   110.01987531   292.81853147
 C     25  24  21     2.866632096125   110.11734690    74.79889446
 C     24  21   2     2.897040018138   104.78888105   173.28983434
 O     27  24  21     2.648766611200   111.47610008   298.94063678
 C     26  25  24     2.632220043352   119.18015002    59.52521546
 C     29  26  25     2.610069201555   120.37724475   183.72793540
 C     30  29  26     2.652238418424   119.62649474   358.36497124
 C     31  30  29     2.609573873765   119.79733568   358.41622402
 C     26  25  24     2.613732404532   121.35718085   239.62035201
 C     20   1   2     2.661606292381   118.23460693   182.92925199
 C     19   3   2     2.658863710815   118.42945402   180.89410931
 C     23  13  12     2.660270976900   118.06544787   358.45818596
 O     25  24  21     2.645356045919   109.83918909   309.36804194
 O     17   8   7     2.654133817846   112.38407634   188.81288968
 O     18   9   8     2.661758516471   112.20954137   191.36094742
 O     30  29  26     2.596474793444   125.72340181   178.62248444
 O     31  30  29     2.587222116606   119.73217660   179.38601601
 C     40  30  29     2.662072856342   118.29277069     6.37636043
 H      4   3   2     2.036762850997   120.71731769   181.61546494
 H      6   5   4     2.036264701840   118.46326866   178.92394660
 H      7   5   4     2.060831660728   108.61941161   136.96582949
 H      7   5   4     2.060662955729   110.32890728    18.48757580
 H      8   7   5     2.072111059117   107.82522409   321.36988042
 H      9   8   7     2.072669532216   105.94323475   196.57175484
 H     10   9   8     2.067247241798   107.75513629   177.79949879
 H     10   9   8     2.063051317829   109.24308230   293.79925023
 H     12  11  10     2.035654498097   119.32059131   359.16765688
 H     15  14  13     2.038208277285   118.65887291   180.01548170
 H     16  11  10     2.041564279686   119.74673642     0.65317648
 H     17   8   7     2.075554044421   108.70861054   311.92829817
 H     17   8   7     2.066220106319   110.70731785    70.73525430
 H     18   9   8     2.075921937188   110.02298052   314.27463051
 H     18   9   8     2.063389484942   110.87119572    74.17496081
 H     22  14  13     1.827520011713   107.52474211     0.91684556
 H     24  21   2     2.067559885635   110.21315690    55.40297414
 H     25  24  21     2.074193356684   108.22010366   193.82562037
 H     27  24  21     2.062990231992   110.00040126   180.69447850
 H     27  24  21     2.076124643246   108.50783348    61.42098754
 H     28  27  24     1.824814082933   106.86322476    49.61557240
 H     29  26  25     2.037426719631   119.28163087     3.52739815
 H     32  31  30     2.037251942298   119.12031755   183.51014274
 H     33  26  25     2.037652758244   119.50832115   356.45398638
 H     34  20   1     2.068269169202   111.68801559   298.28377138
 H     34  20   1     2.067618862522   111.34879346    60.84170563
 H     34  20   1     2.058654109407   105.50651273   179.05807957
 H     35  19   3     2.068506766207   111.48411419    59.89696586
 H     35  19   3     2.057547938600   105.58766157   178.56589656
 H     35  19   3     2.067325179222   111.50868900   297.19249879
 H     36  23  13     2.067321991126   111.37035098   300.61614977
 H     36  23  13     2.067399292442   111.30901657    63.37943436
 H     36  23  13     2.057517600283   105.60076011   181.85671338
 H     37  25  24     1.839127150037   107.36132427    46.26229941
 H     38  17   8     1.833989161111   108.01013693    62.47812415
 H     39  18   9     1.821724994956   108.41940592    60.01609411
 H     41  31  30     1.830634463454   107.42295939     1.74532703
 H     42  40  30     2.067724933655   111.08671454    62.14507197
 H     42  40  30     2.057296271371   105.33861551   181.19479178
 H     42  40  30     2.065622751900   111.54613894   299.77497083

---------------------
BASIS SET INFORMATION
---------------------
There are 3 groups of distinct atoms

 Group   1 Type C   : 11s6p2d1f contracted to 5s3p2d1f pattern {62111/411/11/1}
 Group   2 Type O   : 11s6p2d1f contracted to 5s3p2d1f pattern {62111/411/11/1}
 Group   3 Type H   : 5s1p contracted to 3s1p pattern {311/1}

Atom   0C    basis set group =>   1
Atom   1C    basis set group =>   1
Atom   2C    basis set group =>   1
Atom   3C    basis set group =>   1
Atom   4C    basis set group =>   1
Atom   5C    basis set group =>   1
Atom   6C    basis set group =>   1
Atom   7C    basis set group =>   1
Atom   8C    basis set group =>   1
Atom   9C    basis set group =>   1
Atom  10C    basis set group =>   1
Atom  11C    basis set group =>   1
Atom  12C    basis set group =>   1
Atom  13C    basis set group =>   1
Atom  14C    basis set group =>   1
Atom  15C    basis set group =>   1
Atom  16C    basis set group =>   1
Atom  17C    basis set group =>   1
Atom  18O    basis set group =>   2
Atom  19O    basis set group =>   2
Atom  20O    basis set group =>   2
Atom  21O    basis set group =>   2
Atom  22O    basis set group =>   2
Atom  23C    basis set group =>   1
Atom  24C    basis set group =>   1
Atom  25C    basis set group =>   1
Atom  26C    basis set group =>   1
Atom  27O    basis set group =>   2
Atom  28C    basis set group =>   1
Atom  29C    basis set group =>   1
Atom  30C    basis set group =>   1
Atom  31C    basis set group =>   1
Atom  32C    basis set group =>   1
Atom  33C    basis set group =>   1
Atom  34C    basis set group =>   1
Atom  35C    basis set group =>   1
Atom  36O    basis set group =>   2
Atom  37O    basis set group =>   2
Atom  38O    basis set group =>   2
Atom  39O    basis set group =>   2
Atom  40O    basis set group =>   2
Atom  41C    basis set group =>   1
Atom  42H    basis set group =>   3
Atom  43H    basis set group =>   3
Atom  44H    basis set group =>   3
Atom  45H    basis set group =>   3
Atom  46H    basis set group =>   3
Atom  47H    basis set group =>   3
Atom  48H    basis set group =>   3
Atom  49H    basis set group =>   3
Atom  50H    basis set group =>   3
Atom  51H    basis set group =>   3
Atom  52H    basis set group =>   3
Atom  53H    basis set group =>   3
Atom  54H    basis set group =>   3
Atom  55H    basis set group =>   3
Atom  56H    basis set group =>   3
Atom  57H    basis set group =>   3
Atom  58H    basis set group =>   3
Atom  59H    basis set group =>   3
Atom  60H    basis set group =>   3
Atom  61H    basis set group =>   3
Atom  62H    basis set group =>   3
Atom  63H    basis set group =>   3
Atom  64H    basis set group =>   3
Atom  65H    basis set group =>   3
Atom  66H    basis set group =>   3
Atom  67H    basis set group =>   3
Atom  68H    basis set group =>   3
Atom  69H    basis set group =>   3
Atom  70H    basis set group =>   3
Atom  71H    basis set group =>   3
Atom  72H    basis set group =>   3
Atom  73H    basis set group =>   3
Atom  74H    basis set group =>   3
Atom  75H    basis set group =>   3
Atom  76H    basis set group =>   3
Atom  77H    basis set group =>   3
Atom  78H    basis set group =>   3
Atom  79H    basis set group =>   3
Atom  80H    basis set group =>   3
Atom  81H    basis set group =>   3
---------------------------------
AUXILIARY/J BASIS SET INFORMATION
---------------------------------
There are 3 groups of distinct atoms

 Group   1 Type C   : 12s5p4d2f1g contracted to 6s4p3d1f1g pattern {711111/2111/211/2/1}
 Group   2 Type O   : 12s5p4d2f1g contracted to 6s4p3d1f1g pattern {711111/2111/211/2/1}
 Group   3 Type H   : 5s2p1d contracted to 3s1p1d pattern {311/2/1}

Atom   0C    basis set group =>   1
Atom   1C    basis set group =>   1
Atom   2C    basis set group =>   1
Atom   3C    basis set group =>   1
Atom   4C    basis set group =>   1
Atom   5C    basis set group =>   1
Atom   6C    basis set group =>   1
Atom   7C    basis set group =>   1
Atom   8C    basis set group =>   1
Atom   9C    basis set group =>   1
Atom  10C    basis set group =>   1
Atom  11C    basis set group =>   1
Atom  12C    basis set group =>   1
Atom  13C    basis set group =>   1
Atom  14C    basis set group =>   1
Atom  15C    basis set group =>   1
Atom  16C    basis set group =>   1
Atom  17C    basis set group =>   1
Atom  18O    basis set group =>   2
Atom  19O    basis set group =>   2
Atom  20O    basis set group =>   2
Atom  21O    basis set group =>   2
Atom  22O    basis set group =>   2
Atom  23C    basis set group =>   1
Atom  24C    basis set group =>   1
Atom  25C    basis set group =>   1
Atom  26C    basis set group =>   1
Atom  27O    basis set group =>   2
Atom  28C    basis set group =>   1
Atom  29C    basis set group =>   1
Atom  30C    basis set group =>   1
Atom  31C    basis set group =>   1
Atom  32C    basis set group =>   1
Atom  33C    basis set group =>   1
Atom  34C    basis set group =>   1
Atom  35C    basis set group =>   1
Atom  36O    basis set group =>   2
Atom  37O    basis set group =>   2
Atom  38O    basis set group =>   2
Atom  39O    basis set group =>   2
Atom  40O    basis set group =>   2
Atom  41C    basis set group =>   1
Atom  42H    basis set group =>   3
Atom  43H    basis set group =>   3
Atom  44H    basis set group =>   3
Atom  45H    basis set group =>   3
Atom  46H    basis set group =>   3
Atom  47H    basis set group =>   3
Atom  48H    basis set group =>   3
Atom  49H    basis set group =>   3
Atom  50H    basis set group =>   3
Atom  51H    basis set group =>   3
Atom  52H    basis set group =>   3
Atom  53H    basis set group =>   3
Atom  54H    basis set group =>   3
Atom  55H    basis set group =>   3
Atom  56H    basis set group =>   3
Atom  57H    basis set group =>   3
Atom  58H    basis set group =>   3
Atom  59H    basis set group =>   3
Atom  60H    basis set group =>   3
Atom  61H    basis set group =>   3
Atom  62H    basis set group =>   3
Atom  63H    basis set group =>   3
Atom  64H    basis set group =>   3
Atom  65H    basis set group =>   3
Atom  66H    basis set group =>   3
Atom  67H    basis set group =>   3
Atom  68H    basis set group =>   3
Atom  69H    basis set group =>   3
Atom  70H    basis set group =>   3
Atom  71H    basis set group =>   3
Atom  72H    basis set group =>   3
Atom  73H    basis set group =>   3
Atom  74H    basis set group =>   3
Atom  75H    basis set group =>   3
Atom  76H    basis set group =>   3
Atom  77H    basis set group =>   3
Atom  78H    basis set group =>   3
Atom  79H    basis set group =>   3
Atom  80H    basis set group =>   3
Atom  81H    basis set group =>   3
--------------------------------------------------------------------------
WARNING: There was an error initializing an OpenFabrics device.

  Local host:   c08b01n08
  Local device: mlx5_0
--------------------------------------------------------------------------
--------------------------------------------------------------------------
WARNING: There is at least one non-excluded one OpenFabrics device found,
but there are no active ports detected (or Open MPI was unable to use
them).  This is most certainly not what you wanted.  Check your
cables, subnet manager configuration, etc.  The openib BTL will be
ignored for this job.

  Local host: c08b01n08
--------------------------------------------------------------------------


           ************************************************************
           *        Program running with 64 parallel MPI-processes    *
           *              working on a common directory               *
           ************************************************************
[c08b01n08:901474] 60 more processes have sent help message help-mpi-btl-openib.txt / error in device init
[c08b01n08:901474] Set MCA parameter "orte_base_help_aggregate" to 0 to see all help / error messages
[c08b01n08:901474] 2 more processes have sent help message help-mpi-btl-openib.txt / no active ports found
------------------------------------------------------------------------------
                             ORCA STARTUP CALCULATIONS
                           -- RI-GTO INTEGRALS CHOSEN --
------------------------------------------------------------------------------
------------------------------------------------------------------------------
                   ___                                                        
                  /   \      - P O W E R E D   B Y -                         
                 /     \                                                     
                 |  |  |   _    _      __       _____    __    __             
                 |  |  |  | |  | |    /  \     |  _  \  |  |  /  |          
                  \  \/   | |  | |   /    \    | | | |  |  | /  /          
                 / \  \   | |__| |  /  /\  \   | |_| |  |  |/  /          
                |  |  |   |  __  | /  /__\  \  |    /   |      \           
                |  |  |   | |  | | |   __   |  |    \   |  |\   \          
                \     /   | |  | | |  |  |  |  | |\  \  |  | \   \       
                 \___/    |_|  |_| |__|  |__|  |_| \__\ |__|  \__/        
                                                                              
                      - O R C A' S   B I G   F R I E N D -                    
                                      &                                       
                       - I N T E G R A L  F E E D E R -                       
                                                                              
 v1 FN, 2020, v2 2021, v3 2022-2024                                           
------------------------------------------------------------------------------


----------------------
SHARK INTEGRAL PACKAGE
----------------------

Number of atoms                             ...     82
Number of basis functions                   ...   1542
Number of shells                            ...    622
Maximum angular momentum                    ...      3
Integral batch strategy                     ... SHARK/LIBINT Hybrid
RI-J (if used) integral strategy            ... SPLIT-RIJ (Revised 2003 algorithm where possible)
Printlevel                                  ...      1
Contraction scheme used                     ... SEGMENTED contraction
Prescreening option                         ... SCHWARTZ
   Thresh                                   ... 2.500e-11
   Tcut                                     ... 2.500e-12
   Tpresel                                  ... 2.500e-12 
Coulomb Range Separation                    ... NOT USED
Exchange Range Separation                   ... NOT USED
Multipole approximations                    ... NOT USED
Finite Nucleus Model                        ... NOT USED
CABS basis                                  ... NOT available
Auxiliary Coulomb fitting basis             ... AVAILABLE
   # of basis functions in Aux-J            ...   2498
   # of shells in Aux-J                     ...    830
   Maximum angular momentum in Aux-J        ...      4
Auxiliary J/K fitting basis                 ... NOT available
Auxiliary Correlation fitting basis         ... NOT available
Auxiliary 'external' fitting basis          ... NOT available

Checking pre-screening integrals            ... done (  0.3 sec) Dimension = 622
   => SHARK Basis and OBASIS are compatible. Storing Pre-screening
Shell pair information
Shell pair cut-off parameter TPreSel        ...   2.5e-12
Total number of shell pairs                 ...    193753
Shell pairs after pre-screening             ...    116742
Total number of primitive shell pairs       ...    584784
Primitive shell pairs kept                  ...    220179
          la=0 lb=0:  32481 shell pairs
          la=1 lb=0:  34811 shell pairs
          la=1 lb=1:   9427 shell pairs
          la=2 lb=0:  15842 shell pairs
          la=2 lb=1:   8712 shell pairs
          la=2 lb=2:   2007 shell pairs
          la=3 lb=0:   7215 shell pairs
          la=3 lb=1:   4039 shell pairs
          la=3 lb=2:   1781 shell pairs
          la=3 lb=3:    427 shell pairs

Checking whether 4 symmetric matrices of dimension 1542 fit in memory
:Max Core in MB      =   6000.00
 MB in use           =    139.91
 MB left             =   5860.09
 MB needed           =     36.31
 Data fit in memory  = YES
Calculating RI/J V-Matrix + Cholesky decomp.... done (  2.7 sec)
Calculating Nuclear repulsion               ... done (  0.1 sec) ENN=   5773.350226809249 Eh

Diagonalization of the overlap matrix:
Smallest eigenvalue                        ... 3.206e-06
Time for diagonalization                   ...   13.043 sec
Threshold for overlap eigenvalues          ... 1.000e-07
Number of eigenvalues below threshold      ... 0
Time for construction of square roots      ...    3.415 sec
Total time needed                          ...   16.803 sec

-------------------
DFT GRID GENERATION
-------------------

General Integration Accuracy     IntAcc      ... 4.388
Radial Grid Type                 RadialGrid  ... OptM3 with GC (2021)
Angular Grid (max. ang.)         AngularGrid ... 4 (Lebedev-302)
Angular grid pruning method      GridPruning ... 4 (adaptive)
Weight generation scheme         WeightScheme... mBecke (2022)
Basis function cutoff            BFCut       ... 1.0000e-11
Integration weight cutoff        WCut        ... 1.0000e-14
Partially contracted basis set               ... off
Rotationally invariant grid construction     ... off
Angular grids for H and He will be reduced by one unit

Total number of grid points                  ...   373448
Total number of batches                      ...     5875
Average number of points per batch           ...       63
Average number of grid points per atom       ...     4554

--------------------
COSX GRID GENERATION
--------------------

GRIDX 1
-------
General Integration Accuracy     IntAcc      ... 3.816
Radial Grid Type                 RadialGrid  ... OptM3 with GC (2021)
Angular Grid (max. ang.)         AngularGrid ... 1 (Lebedev-50)
Angular grid pruning method      GridPruning ... 4 (adaptive)
Weight generation scheme         WeightScheme... mBecke (2022)
Basis function cutoff            BFCut       ... 1.0000e-11
Integration weight cutoff        WCut        ... 1.0000e-14
Partially contracted basis set               ... on
Rotationally invariant grid construction     ... off
Angular grids for H and He will be reduced by one unit

Total number of grid points                  ...    47204
Total number of batches                      ...      413
Average number of points per batch           ...      114
Average number of grid points per atom       ...      576
UseSFitting                                  ... on

GRIDX 2
-------
General Integration Accuracy     IntAcc      ... 4.020
Radial Grid Type                 RadialGrid  ... OptM3 with GC (2021)
Angular Grid (max. ang.)         AngularGrid ... 2 (Lebedev-110)
Angular grid pruning method      GridPruning ... 4 (adaptive)
Weight generation scheme         WeightScheme... mBecke (2022)
Basis function cutoff            BFCut       ... 1.0000e-11
Integration weight cutoff        WCut        ... 1.0000e-14
[...]
freq.     633.37  E(vib)   ...       0.09 
freq.     635.67  E(vib)   ...       0.09 
freq.     657.52  E(vib)   ...       0.08 
freq.     698.83  E(vib)   ...       0.07 
freq.     729.19  E(vib)   ...       0.06 
freq.     730.56  E(vib)   ...       0.06 
freq.     746.89  E(vib)   ...       0.06 
freq.     747.75  E(vib)   ...       0.06 
freq.     762.42  E(vib)   ...       0.06 
freq.     778.63  E(vib)   ...       0.05 
freq.     792.02  E(vib)   ...       0.05 
freq.     800.74  E(vib)   ...       0.05 
freq.     809.62  E(vib)   ...       0.05 
freq.     814.46  E(vib)   ...       0.05 
freq.     834.55  E(vib)   ...       0.04 
freq.     848.98  E(vib)   ...       0.04 
freq.     851.94  E(vib)   ...       0.04 
freq.     856.18  E(vib)   ...       0.04 
freq.     872.74  E(vib)   ...       0.04 
freq.     878.86  E(vib)   ...       0.04 
freq.     881.25  E(vib)   ...       0.04 
freq.     896.60  E(vib)   ...       0.03 
freq.     901.18  E(vib)   ...       0.03 
freq.     916.82  E(vib)   ...       0.03 
freq.     928.40  E(vib)   ...       0.03 
freq.     941.81  E(vib)   ...       0.03 
freq.     951.06  E(vib)   ...       0.03 
freq.     959.72  E(vib)   ...       0.03 
freq.     960.64  E(vib)   ...       0.03 
freq.     967.39  E(vib)   ...       0.03 
freq.     970.51  E(vib)   ...       0.03 
freq.     997.14  E(vib)   ...       0.02 
freq.    1027.77  E(vib)   ...       0.02 
freq.    1029.51  E(vib)   ...       0.02 
freq.    1039.03  E(vib)   ...       0.02 
freq.    1046.56  E(vib)   ...       0.02 
freq.    1048.40  E(vib)   ...       0.02 
freq.    1056.85  E(vib)   ...       0.02 
freq.    1064.59  E(vib)   ...       0.02 
freq.    1069.52  E(vib)   ...       0.02 
freq.    1077.75  E(vib)   ...       0.02 
freq.    1102.01  E(vib)   ...       0.02 
freq.    1103.66  E(vib)   ...       0.02 
freq.    1113.70  E(vib)   ...       0.01 
freq.    1127.37  E(vib)   ...       0.01 
freq.    1140.81  E(vib)   ...       0.01 
freq.    1142.66  E(vib)   ...       0.01 
freq.    1144.33  E(vib)   ...       0.01 
freq.    1170.22  E(vib)   ...       0.01 
freq.    1171.21  E(vib)   ...       0.01 
freq.    1171.51  E(vib)   ...       0.01 
freq.    1172.56  E(vib)   ...       0.01 
freq.    1173.09  E(vib)   ...       0.01 
freq.    1173.54  E(vib)   ...       0.01 
freq.    1177.42  E(vib)   ...       0.01 
freq.    1179.79  E(vib)   ...       0.01 
freq.    1199.65  E(vib)   ...       0.01 
freq.    1203.00  E(vib)   ...       0.01 
freq.    1204.08  E(vib)   ...       0.01 
freq.    1208.07  E(vib)   ...       0.01 
freq.    1213.41  E(vib)   ...       0.01 
freq.    1221.99  E(vib)   ...       0.01 
freq.    1224.42  E(vib)   ...       0.01 
freq.    1226.97  E(vib)   ...       0.01 
freq.    1228.91  E(vib)   ...       0.01 
freq.    1243.19  E(vib)   ...       0.01 
freq.    1247.32  E(vib)   ...       0.01 
freq.    1250.71  E(vib)   ...       0.01 
freq.    1262.10  E(vib)   ...       0.01 
freq.    1273.57  E(vib)   ...       0.01 
freq.    1276.37  E(vib)   ...       0.01 
freq.    1287.09  E(vib)   ...       0.01 
freq.    1287.66  E(vib)   ...       0.01 
freq.    1294.84  E(vib)   ...       0.01 
freq.    1295.21  E(vib)   ...       0.01 
freq.    1312.89  E(vib)   ...       0.01 
freq.    1329.31  E(vib)   ...       0.01 
freq.    1335.58  E(vib)   ...       0.01 
freq.    1343.13  E(vib)   ...       0.01 
freq.    1346.19  E(vib)   ...       0.01 
freq.    1347.82  E(vib)   ...       0.01 
freq.    1354.49  E(vib)   ...       0.01 
freq.    1365.77  E(vib)   ...       0.01 
freq.    1370.16  E(vib)   ...       0.01 
freq.    1372.62  E(vib)   ...       0.01 
freq.    1385.30  E(vib)   ...       0.00 
freq.    1388.89  E(vib)   ...       0.00 
freq.    1398.13  E(vib)   ...       0.00 
freq.    1400.61  E(vib)   ...       0.00 
freq.    1406.30  E(vib)   ...       0.00 
freq.    1410.46  E(vib)   ...       0.00 
freq.    1419.18  E(vib)   ...       0.00 
freq.    1426.76  E(vib)   ...       0.00 
freq.    1429.96  E(vib)   ...       0.00 
freq.    1440.17  E(vib)   ...       0.00 
freq.    1453.51  E(vib)   ...       0.00 
freq.    1455.20  E(vib)   ...       0.00 
freq.    1459.80  E(vib)   ...       0.00 
freq.    1477.59  E(vib)   ...       0.00 
freq.    1478.57  E(vib)   ...       0.00 
freq.    1479.47  E(vib)   ...       0.00 
freq.    1480.28  E(vib)   ...       0.00 
freq.    1481.44  E(vib)   ...       0.00 
freq.    1482.18  E(vib)   ...       0.00 
freq.    1483.22  E(vib)   ...       0.00 
freq.    1484.75  E(vib)   ...       0.00 
freq.    1488.50  E(vib)   ...       0.00 
freq.    1489.92  E(vib)   ...       0.00 
freq.    1490.41  E(vib)   ...       0.00 
freq.    1491.49  E(vib)   ...       0.00 
freq.    1491.92  E(vib)   ...       0.00 
freq.    1492.40  E(vib)   ...       0.00 
freq.    1497.85  E(vib)   ...       0.00 
freq.    1499.58  E(vib)   ...       0.00 
freq.    1506.34  E(vib)   ...       0.00 
freq.    1536.10  E(vib)   ...       0.00 
freq.    1542.13  E(vib)   ...       0.00 
freq.    1546.07  E(vib)   ...       0.00 
freq.    1628.36  E(vib)   ...       0.00 
freq.    1637.47  E(vib)   ...       0.00 
freq.    1642.86  E(vib)   ...       0.00 
freq.    1647.35  E(vib)   ...       0.00 
freq.    1648.81  E(vib)   ...       0.00 
freq.    1652.55  E(vib)   ...       0.00 
freq.    3013.25  E(vib)   ...       0.00 
freq.    3020.49  E(vib)   ...       0.00 
freq.    3021.43  E(vib)   ...       0.00 
freq.    3021.77  E(vib)   ...       0.00 
freq.    3022.96  E(vib)   ...       0.00 
freq.    3023.72  E(vib)   ...       0.00 
freq.    3025.90  E(vib)   ...       0.00 
freq.    3025.94  E(vib)   ...       0.00 
freq.    3026.56  E(vib)   ...       0.00 
freq.    3026.84  E(vib)   ...       0.00 
freq.    3027.69  E(vib)   ...       0.00 
freq.    3038.45  E(vib)   ...       0.00 
freq.    3059.16  E(vib)   ...       0.00 
freq.    3067.34  E(vib)   ...       0.00 
freq.    3074.91  E(vib)   ...       0.00 
freq.    3078.39  E(vib)   ...       0.00 
freq.    3084.27  E(vib)   ...       0.00 
freq.    3088.40  E(vib)   ...       0.00 
freq.    3089.34  E(vib)   ...       0.00 
freq.    3090.38  E(vib)   ...       0.00 
freq.    3093.38  E(vib)   ...       0.00 
freq.    3102.36  E(vib)   ...       0.00 
freq.    3140.39  E(vib)   ...       0.00 
freq.    3142.53  E(vib)   ...       0.00 
freq.    3142.78  E(vib)   ...       0.00 
freq.    3162.65  E(vib)   ...       0.00 
freq.    3170.07  E(vib)   ...       0.00 
freq.    3187.46  E(vib)   ...       0.00 
freq.    3187.59  E(vib)   ...       0.00 
freq.    3205.27  E(vib)   ...       0.00 
freq.    3207.43  E(vib)   ...       0.00 
freq.    3211.84  E(vib)   ...       0.00 
freq.    3213.31  E(vib)   ...       0.00 
freq.    3214.47  E(vib)   ...       0.00 
freq.    3598.73  E(vib)   ...       0.00 
freq.    3629.36  E(vib)   ...       0.00 
freq.    3717.20  E(vib)   ...       0.00 
freq.    3723.32  E(vib)   ...       0.00 
freq.    3761.30  E(vib)   ...       0.00 
freq.    3770.56  E(vib)   ...       0.00 

------------
INNER ENERGY
------------

The inner energy is: U= E(el) + E(ZPE) + E(vib) + E(rot) + E(trans)
    E(el)   - is the total energy from the electronic structure calculation
              = E(kin-el) + E(nuc-el) + E(el-el) + E(nuc-nuc)
    E(ZPE)  - the the zero temperature vibrational energy from the frequency calculation
    E(vib)  - the the finite temperature correction to E(ZPE) due to population
              of excited vibrational states
    E(rot)  - is the rotational thermal energy
    E(trans)- is the translational thermal energy

Summary of contributions to the inner energy U:
Electronic energy                ...  -2032.63991692 Eh
Zero point energy                ...      0.67935355 Eh     426.30 kcal/mol
Thermal vibrational correction   ...      0.04022762 Eh      25.24 kcal/mol
Thermal rotational correction    ...      0.00141627 Eh       0.89 kcal/mol
Thermal translational correction ...      0.00141627 Eh       0.89 kcal/mol
-----------------------------------------------------------------------
Total thermal energy                  -2031.91750320 Eh


Summary of corrections to the electronic energy:
(perhaps to be used in another calculation)
Total thermal correction                  0.04306016 Eh      27.02 kcal/mol
Non-thermal (ZPE) correction              0.67935355 Eh     426.30 kcal/mol
-----------------------------------------------------------------------
Total correction                          0.72241372 Eh     453.32 kcal/mol


--------
ENTHALPY
--------

The enthalpy is H = U + kB*T
                kB is Boltzmann's constant
Total thermal energy              ...  -2031.91750320 Eh 
Thermal Enthalpy correction       ...      0.00094421 Eh       0.59 kcal/mol
-----------------------------------------------------------------------
Total Enthalpy                    ...  -2031.91655899 Eh


Note: Only C1 symmetry has been detected, increase convergence thresholds 
      if your molecule has a higher symmetry. Symmetry factor of 1.0 is   
      used for the rotational entropy correction. 
 

Note: Rotational entropy computed according to Herzberg 
Infrared and Raman Spectra, Chapter V,1, Van Nostrand Reinhold, 1945 
Point Group:  C1, Symmetry Number:   1  
Rotational constants in cm-1:     0.004069     0.002174     0.001845 

Vibrational entropy computed according to the QRRHO of S. Grimme
Chem.Eur.J. 2012 18 9955 using a reference frequency of 100.0 cm-1


-------
ENTROPY
-------

The entropy contributions are T*S = T*(S(el)+S(vib)+S(rot)+S(trans))
     S(el)   - electronic entropy
     S(vib)  - vibrational entropy
     S(rot)  - rotational entropy
     S(trans)- translational entropy
The entropies will be listed as multiplied by the temperature to get
units of energy

Electronic entropy                ...      0.00000000 Eh      0.00 kcal/mol
Vibrational entropy               ...      0.07203901 Eh     45.21 kcal/mol
Rotational entropy                ...      0.01797579 Eh     11.28 kcal/mol
Translational entropy             ...      0.02138181 Eh     13.42 kcal/mol
-----------------------------------------------------------------------
Final entropy term                ...      0.11139661 Eh     69.90 kcal/mol

In case the symmetry of your molecule has not been determined correctly
or in case you have a reason to use a different symmetry number we print 
out the resulting rotational entropy values for sn=1,12:

 non-linear molecules -----------------------------------
|  sn= 1 | S(rot)=       0.01797579 Eh     11.28 kcal/mol|
|  sn= 2 | S(rot)=       0.01732134 Eh     10.87 kcal/mol|
|  sn= 3 | S(rot)=       0.01693850 Eh     10.63 kcal/mol|
|  sn= 4 | S(rot)=       0.01666688 Eh     10.46 kcal/mol|
|  sn= 5 | S(rot)=       0.01645619 Eh     10.33 kcal/mol|
|  sn= 6 | S(rot)=       0.01628405 Eh     10.22 kcal/mol|
|  sn= 7 | S(rot)=       0.01613850 Eh     10.13 kcal/mol|
|  sn= 8 | S(rot)=       0.01601242 Eh     10.05 kcal/mol|
|  sn= 9 | S(rot)=       0.01590121 Eh      9.98 kcal/mol|
|  sn=10 | S(rot)=       0.01580174 Eh      9.92 kcal/mol|
|  sn=11 | S(rot)=       0.01571174 Eh      9.86 kcal/mol|
|  sn=12 | S(rot)=       0.01562959 Eh      9.81 kcal/mol|
 linear molecules ---------------------------------------
|  Dinfh | S(rot)=       0.01126953 Eh      7.07 kcal/mol|
|  Cinfv | S(rot)=       0.01192399 Eh      7.48 kcal/mol|
 --------------------------------------------------------


-------------------
GIBBS FREE ENERGY
-------------------

The Gibbs free energy is G = H - T*S

Total enthalpy                    ...  -2031.91655899 Eh 
Total entropy correction          ...     -0.11139661 Eh    -69.90 kcal/mol
-----------------------------------------------------------------------
Final Gibbs free energy         ...  -2032.02795561 Eh

For completeness - the Gibbs free energy minus the electronic energy
G-E(el)                           ...      0.61196132 Eh    384.01 kcal/mol


Maximum memory used throughout the entire PROP-calculation: 1822.2 MB
--------------------------------------------------------------------------
WARNING: There was an error initializing an OpenFabrics device.

  Local host:   c08b01n08
  Local device: mlx5_0
--------------------------------------------------------------------------
--------------------------------------------------------------------------
WARNING: There is at least one non-excluded one OpenFabrics device found,
but there are no active ports detected (or Open MPI was unable to use
them).  This is most certainly not what you wanted.  Check your
cables, subnet manager configuration, etc.  The openib BTL will be
ignored for this job.

  Local host: c08b01n08
--------------------------------------------------------------------------
[c08b01n08:961530] 57 more processes have sent help message help-mpi-btl-openib.txt / error in device init
[c08b01n08:961530] Set MCA parameter "orte_base_help_aggregate" to 0 to see all help / error messages
[c08b01n08:961530] 5 more processes have sent help message help-mpi-btl-openib.txt / no active ports found

--------------------------------
SUGGESTED CITATIONS FOR THIS RUN
--------------------------------

Below you find a list of papers that are relevant to this ORCA run
We neither can nor want to force you to cite these papers, but we appreciate if you do
You receive ORCA, which is the product of decades of hard work by many enthusiastic individuals, for free
The only thing we kindly ask in return is that you cite our papers,
We deeply appreciate it, if you show your appreciation for ORCA by not just citing the generic ORCA reference.

Please note that relegating all ORCA citations to the supporting information does *not* help us.
SI sections are not indexed - citations you put there will not count into any citation statistics
But we need these citations in order to attract the funding resources that allow us to do what we are doing

Therefore, if you are a happy ORCA user, please consider citing a few of the papers listed below in the main body of your paper

In addition to the list printed below, the program has created the file opt-conf-1.bibtex that contains the list in bibtex format
You can import this file easily into all common literature databanks and citation aid programs


List of essential papers. We consider these as the minimum necessary citations

  1. Neese, F.
     Software update: the ORCA program system, version 6.0
     WIRES Comput. Molec. Sci. 2025 15(1), e70019
     doi.org/10.1002/wcms.7019

List of papers to cite with high priority. The work reported in these papers was absolutely
necessary for this run to complete.
Our perspective: the developers of density functionals and basis sets usually get cited in chemistry papers
Good! But without the algorithms to do something with them, the functionals or basis sets would not do anything.
Hence, in our opinion, the algorithm design and method developments papers are equally worthy of getting cited

  1. Neese, F.
     An improvement of the resolution of the identity approximation for the formation of the Coulomb matrix
     J. Comp. Chem. 2003 24(14), 1740-1747
     doi.org/10.1002/jcc.10318
  2. Neese, F.; Wennmohs, F.; Hansen, A.; Becker, U.
     Efficient, approximate and parallel Hartree-Fock and hybrid DFT calculations. A 'chain-of-spheres' algorithm for the Hartree-Fock exchange
     Chem. Phys. 2009 356(1-3), 98-109
     doi.org/10.1016/j.chemphys.2008.10.036
  3. Bykov, D.; Petrenko, T.; Izsak, R.; Kossmann, S.; Becker, U.; Valeev, E.; Neese, F.
     Efficient implementation of the analytic second derivatives of Hartree-Fock and hybrid DFT energies: a detailed analysis of different approximations
     Molec. Phys. 2015 113 , 1961-1977
     doi.org/10.1080/00268976.2015.1025114
  4. Caldeweyher, E.; Bannwarth, C.; Grimme, S.
     Extension of the D3 dispersion coefficient model
     J. Chem. Phys. 2017 147 , 034112
     doi.org/10.1063/1.4993215
  5. Caldeweyher, E.; Ehlert, S.; Hansen, A.; Neugebauer, H.; Spicher, S.; Bannwarth, C.; Grimme, S.
     A generally applicable atomic-charge dependent London dispersion correction
     J. Chem. Phys. 2019 150 , 154122
     doi.org/10.1063/1.5090222
  6. Garcia-Rates, M.; Neese, F.
     Efficient implementation of the analytical second derivatives of hartree-fock and hybrid DFT energies within the framework of the conductor-like polarizable continuum model
     J. Comput. Chem. 2019 40 , 1816-1828
     doi.org/10.1002/jcc.25833
  7. Caldeweyher, E.; Mewes, J.; Ehlert, S.; Grimme, S.
     Extension and evaluation of the D4 London-dispersion model for periodic systems
     Phys. Chem. Chem. Phys. 2020 22(16), 8499-8512
     doi.org/10.1039/D0CP00502A
  8. Garcia-Rates, M.; Neese, F.
     Effect of the Solute Cavity on the Solvation Energy and its Derivatives within the Framework of the Gaussian Charge Scheme
     J. Comput. Chem. 2020 41 , 922-939
     doi.org/10.1002/jcc.26139
  9. Helmich-Paris, B.; de Souza, B.; Neese, F.; Izsák, R.
     An improved chain of spheres for exchange algorithm
     J. Chem. Phys. 2021 155(10), 104109
     doi.org/10.1063/5.0058766
 10. Neese, F.
     The SHARK Integral Generation and Digestion System
     J. Comp. Chem. 2022 44(3), 381
     doi.org/10.1002/jcc.26942
 11. Wittmann, L.; Gordiy, I.; Friede, M.; Helmich-Paris, B.; Grimme, S.; Hansen, A.; Bursch, M.
     Extension of the D3 and D4 London Dispersion Corrections to the full Actinides Series
     Phys. Chem. Chem. Phys. 2024 26(32), 21379-21394
     doi.org/10.1039/D4CP01514B

List of suggested additional citations. These are papers that are important in the 'surrounding' of 
of this run, or papers that preceded the highly important papers. If you like your results we are grateful for a citation.

  1. Izsak, R.; Neese, F.
     An overlap fitted chain of spheres exchange method
     J. Chem. Phys. 2011 135 , 144105
     doi.org/10.1063/1.3646921
  2. Izsak, R.; Hansen, A.; Neese, F.
     The resolution of identity and chain of spheres approximations for the LPNO-CCSD singles Fock term
     Molec. Phys. 2012 110 , 2413-2417
     doi.org/10.1080/00268976.2012.687466
  3. Neese, F.
     The ORCA program system
     WIRES Comput. Molec. Sci. 2012 2(1), 73-78
     doi.org/10.1002/wcms.81
  4. Izsak, R.; Neese, F.; Klopper, W.
     Robust fitting techniques in the chain of spheres approximation to the Fock exchange: The role of the complementary space
     J. Chem. Phys. 2013 139 , 
     doi.org/10.1063/1.4819264
  5. Neese, F.
     Software update: the ORCA program system, version 4.0
     WIRES Comput. Molec. Sci. 2018 8(1), 1-6
     doi.org/10.1002/wcms.1327
  6. Neese, F.; Wennmohs, F.; Becker, U.; Riplinger, C.
     The ORCA quantum chemistry program package
     J. Chem. Phys. 2020 152(22), 224108
     doi.org/10.1063/5.0004608
  7. Neese, F.
     Software update: The ORCA program system—Version 5.0
     WIRES Comput. Molec. Sci. 2022 12(1), e1606
     doi.org/10.1002/wcms.1606

List of optional additional citations

  1. Neese, F.
     Approximate second-order SCF convergence for spin unrestricted wavefunctions
     Chem. Phys. Lett. 2000 325(1-3), 93-98
     doi.org/10.1016/s0009-2614(00)00662-x

Timings for individual modules:

Sum of individual times          ...    16386.645 sec (= 273.111 min)
Startup calculation              ...     1404.447 sec (=  23.407 min)   8.6 %
SCF iterations                   ...     8473.971 sec (= 141.233 min)  51.7 %
Property integrals               ...     1472.115 sec (=  24.535 min)   9.0 %
SCF Response                     ...     3359.007 sec (=  55.983 min)  20.5 %
Property calculations            ...      790.257 sec (=  13.171 min)   4.8 %
SCF Gradient evaluation          ...      875.454 sec (=  14.591 min)   5.3 %
Geometry relaxation              ...       11.394 sec (=   0.190 min)   0.1 %
                             ****ORCA TERMINATED NORMALLY****
TOTAL RUN TIME: 0 days 4 hours 39 minutes 8 seconds 747 msec
