
                                 *****************
                                 * O   R   C   A *
                                 *****************

                                            #,                                       
                                            ###                                      
                                            ####                                     
                                            #####                                    
                                            ######                                   
                                           ########,                                 
                                     ,,################,,,,,                         
                               ,,#################################,,                 
                          ,,##########################################,,             
                       ,#########################################, ''#####,          
                    ,#############################################,,   '####,        
                  ,##################################################,,,,####,       
                ,###########''''           ''''###############################       
              ,#####''   ,,,,##########,,,,          '''####'''          '####       
            ,##' ,,,,###########################,,,                        '##       
           ' ,,###''''                  '''############,,,                           
         ,,##''                                '''############,,,,        ,,,,,,###''
      ,#''                                            '''#######################'''  
     '                                                          ''''####''''         
             ,#######,   #######,   ,#######,      ##                                
            ,#'     '#,  ##    ##  ,#'     '#,    #''#        ,####,    ,#,          
            ##       ##  ##   ,#'  ##            #'  '#       #'       ,# #          
            ##       ##  #######   ##           ,######,      #####,      #          
            '#,     ,#'  ##    ##  '#,     ,#' ,#      #,     #,   #      #          
             '#######'   ##     ##  '#######'  #'      '#     '####' #    #          



                #########################################################
                #                        -***-                          #
                #          Department of theory and spectroscopy        #
                #                                                       #
                #                      Frank Neese                      #
                #                                                       #
                #     Directorship, Architecture, Infrastructure        #
                #                    SHARK, DRIVERS                     #
                #        Core code/Algorithms in most modules           #
                #                                                       #
                #        Max Planck Institute fuer Kohlenforschung      #
                #                Kaiser Wilhelm Platz 1                 #
                #                 D-45470 Muelheim/Ruhr                 #
                #                      Germany                          #
                #                                                       #
                #                  All rights reserved                  #
                #                        -***-                          #
                #########################################################


                         Program Version 6.1.0-f.0  -   RELEASE   -


 With contributions from (in alphabetic order):
[Max-Planck-Institut fuer Kohlenforschung]                               
  Daniel Aravena         : Magnetic Suceptibility                        
  Michael Atanasov       : Ab Initio Ligand Field Theory (pilot matlab implementation)
  Alexander A. Auer      : GIAO ZORA, VPT2 properties, NMR spectrum      
  Ute Becker             : All parallelization in ORCA, NUMFREQ, NUMCALC 
  Giovanni Bistoni       : ED, misc. LED, open-shell LED, HFLD           
  Dmytro Bykov           : pre 5.0 version of the SCF Hessian            
  Marcos Casanova-Páez   : Triplet and SCS-CIS(D). UHF-(DLPNO)-IP/EA/STEOM-CCSD. UHF-CVS-IP/STEOM-CCSD   
  Vijay G. Chilkuri      : MRCI spin determinant printing, contributions to CSF-ICE 
  Pauline Colinet        : FMM embedding                                 
  Dipayan Datta          : RHF DLPNO-CCSD density                        
  Achintya Kumar Dutta   : EOM-CC, STEOM-CC                              
  Nicolas Foglia         : Exact transition moments, OPA infrastructure, MCD improvements    
  Dmitry Ganyushin       : Spin-Orbit,Spin-Spin,Magnetic field MRCI      
  Miquel Garcia-Rates    : C-PCM and meta-GGA Hessian, CCSD/C-PCM, Gaussian charge scheme 
  Tiago L. C. Gouveia    : GS-ROHF, GS-ROCIS                             
  Yang Guo               : DLPNO-NEVPT2, F12-NEVPT2, CIM, IAO-localization        
  Andreas Hansen         : Spin unrestricted coupled pair/coupled cluster methods 
  Ingolf Harden          : AUTO-CI MPn and infrastructure                
  Benjamin Helmich-Paris : MC-RPA, TRAH-(SCF,CASSCF), AVAS, COSX integrals, SCF dyn. polar., MC-PDFT, srDFT 
  Lee Huntington         : MR-EOM, pCC                                   
  Robert Izsak           : Overlap fitted RIJCOSX, COSX-SCS-MP3, EOM     
  Riya Kayal             : Wick's Theorem for AUTO-CI, AUTO-CI UHF-CCSDT 
  Emily Kempfer          : AUTO-CI RHF CISDT and CCSDT, approximate NEVPT4
  Christian Kollmar      : KDIIS, OOCD, Brueckner-CCSD(T), CCSD density, CASPT2, CASPT2-K, improved NEVPT2 
  Axel Koslowski         : Symmetry handling                             
  Simone Kossmann        : meta-GGA functionals, TD-DFT gradient, OOMP2, (MP2 Hessian; deprecated post 5.0) 
  Lucas Lang             : DCDCAS, Hyperfine gauge corrections, ICE-SOC+SSC
  Marvin Lechner         : AUTO-CI (C++ implementation), FIC-MRCC        
  Spencer Leger          : CASSCF response                               
  Dagmar Lenk            : GEPOL surface, SMD, ORCA-2-JSON               
  Dimitrios Liakos       : Extrapolation schemes; Compound Job, Property file
  Dimitrios Manganas     : Further ROCIS development; embedding schemes. LFT, Crystal Embedding 
  Dimitrios Pantazis     : SARC Basis sets                               
  Anastasios Papadopoulos: AUTO-CI, single reference methods and gradients 
  Taras Petrenko         : pre 6.0 DFT Hessian and TD-DFT gradient,  ECA, NRVS 
  Petra Pikulova         : Analytic Raman intensities                    
  Peter Pinski           : DLPNO-MP2, DLPNO-MP2 Gradient                 
  Shashank Vittal Rao    : ES-AILFT, MagRelax                            
  Christoph Reimann      : Effective Core Potentials                     
  Marius Retegan         : Local ZFS, SOC                                
  Christoph Riplinger    : Optimizer, TS searches, QM/MM, DLPNO-CCSD(T), (RO)-DLPNO pert. Triples 
  Michael Roemelt        : Original ROCIS implementation, recursive CI coupling coefficients
  Masaaki Saitow         : Open-shell DLPNO-CCSD energy and density      
  Barbara Sandhoefer     : DKH picture change effects                    
  Yorick L. A. Schmerwitz: GMF and freeze-and-release deltaSCF, NEB S-IDPP initial path                    
  Kantharuban Sivalingam : CASSCF convergence/infrastructure, NEVPT2, NEVPT3, NEVPT4(SD), FIC-MRCI and CEPA variants
  Bernardo de Souza      : ESD, SOC TD-DFT                               
  Georgi L. Stoychev     : AutoAux, RI-MP2 NMR, DLPNO-MP2 response, X2C  
  Van Anh Tran           : RI-MP2 g-tensors                              
  Willem Van den Heuvel  : Paramagnetic NMR                              
  Zikuan Wang            : NOTCH, Electric field optimization            
  Frank Wennmohs         : Technical directorship and infrastructure     
  Hang Xu                : AUTO-CI-Response properties                   
                                                                         
[FACCTs GmbH]                                                            
  Markus Bursch, Nicolas Foglia, Miquel Garcia-Rates, Ingolf Harden, Hagen Neugebauer, Anastasios Papadopoulos, 
  Christoph Riplinger, Bernardo de Souza, Georgi L. Stoychev                                                    
                                                                 
  APM, various basis sets, CI-OPT, improved COSX, DLPNO-Multilevel,           
  DOCKER, DRACO, updates on ESD, Fragmentator, GOAT, IRC, LR-CPCM, L-BFGS, MBIS, meta-GGA TD-DFT gradient, ML-optimized integration grids, 
  MM, NACMEs, nearIR, NEB, NEB-TS, NL-DFT gradient (VV10), 2- and 3-layer-ONIOM, interface openCOSMO-RS, QMMM,   
  Crystal-QMMM, RESP, rigid body optimization, SF, symmetry and pop. for TD-DFT, various functionals, SOLVATOR                                   
                                                                         
[Other institutions]                                                     
  V. Asgeirsson          : NEB                                           
  Christoph Bannwarth    : sTDA-DFT, sTD-DFT, PBEh-3c, B97-3c, D3        
  Giovanni Bistoni       : ETS/NOCV, ADLD/ADEX, COVALED                  
  Martin Brehm           : Molecular dynamics                            
  Ronald Cardenas        : ETS/NOCV                                      
  Martina Colucci        : COVALED                                       
  Sebastian Ehlert       : rSCAN, r2SCAN, r2SCAN-3c, D4, dhf basis sets  
  Marvin Friede          : D4 for Fr, Ra, Ac-Lr                          
  Lars Goerigk           : TD-DFT with DH, B97 family of functionals     
  Stefan Grimme          : VdW corrections, initial TS optimization, DFT functionals, gCP, sTDA/sTD-DF 
  Waldemar Hujo          : DFT-NL                                        
  H. Jonsson             : NEB                                           
  Holger Kruse           : gCP                                           
  Marcel Mueller         : wB97X-3c, vDZP basis set                      
  Hagen Neugebauer       : wr2SCAN, Native XTB                           
  Gianluca Regni         : ADLD/ADEX                                     
  Tobias Risthaus        : pre 6.0 range-separated hybrid DFT and stability analysis
  Lukas Wittmann         : regularized MP2, r2SCAN double-hybrids, wr2SCAN        
                                                                         
We gratefully acknowledge several colleagues who have allowed us to      
interface, adapt or use parts of their codes:                            
  Ed Valeev, F. Pavosevic, A. Kumar             : LibInt (2-el integral package), F12 methods 
  Garnet Chan, S. Sharma, J. Yang, R. Olivares  : DMRG                   
  Ulf Ekstrom                                   : XCFun DFT Library      
  Mihaly Kallay                                 : mrcc  (arbitrary order and MRCC methods)
  Frank Weinhold                                : gennbo (NPA and NBO analysis)           
  Simon Mueller                                 : openCOSMO-RS                            
  Christopher J. Cramer and Donald G. Truhlar   : smd solvation model                     
  S Lehtola, MJT Oliveira, MAL Marques          : LibXC Library                           
  Liviu Ungur et al                             : ANISO software                          


 Your calculation uses the libint2 library for the computation of 2-el integrals
 For citations please refer to: http://libint.valeyev.net

 Your ORCA version has been built with support for libXC version: 7.0.0
 For citations please refer to: https://libxc.gitlab.io

 This ORCA versions uses:
   CBLAS   interface :  Fast vector & matrix operations
   LAPACKE interface :  Fast linear algebra routines
   SCALAPACK package :  Parallel linear algebra routines
   Shared memory     :  Shared parallel matrices
   BLAS/LAPACK       :  OpenBLAS 0.3.29  USE64BITINT DYNAMIC_ARCH NO_AFFINITY Cooperlake SINGLE_THREADED
        Core in use  :  Cooperlake
   Copyright (c) 2011-2014, The OpenBLAS Project


  ***********************************
  * Starting time: Sat Feb 28 12:39:47 2026
  * Host name:     c01b01n02
  * Process ID:    631551
  * Working dir.:  /lustre1/jiangy/jiangy_liuxy/NMR/B9D7C2-SRSS
  ***********************************

NOTE: MaxCore=6000 MB was set to SCF,MP2,MDCI,CIPSI,MRCI,RASCI and CIS
      => If you want to overwrite this, your respective input block should be placed after the MaxCore statement


***************************************
The coordinates will be read from file: conf-0.xyz
***************************************


Your calculation utilizes the atom-pairwise dispersion correction
based on EEQ partial charges (D4)


Warning: RI is on but no J-basis has been assigned. Assigning Def2/J (nothing to worry about!)
================================================================================

----- Orbital basis set information -----
Your calculation utilizes the basis: def2-TZVP
   F. Weigend and R. Ahlrichs, Phys. Chem. Chem. Phys. 7, 3297 (2005).

----- AuxJ basis set information -----
Your calculation utilizes the auxiliary basis: def2/J
   H-Rn: F. Weigend, Phys. Chem. Chem. Phys. 8, 1057 (2006).
   Fr-Lr: K. Eichkorn, F. Weigend, O. Treutler, R. Ahlrichs; Theor. Chem. Acc. 97, 119 (1997).

================================================================================
                                        WARNINGS
                       Please study these warnings very carefully!
================================================================================


WARNING: Geometry Optimization
  ===> : Switching off AutoStart
         For restart on a previous wavefunction, please use MOREAD

================================================================================
                                       INPUT FILE
================================================================================
NAME = opt-conf-0.inp
|  1> ! B3LYP OPT FREQ DEF2-TZVP D4 CPCM(Methanol) 
|  2> ! TightOpt
|  3> %pal nprocs 64 end
|  4> %maxcore 6000
|  5> 
|  6> %cpcm
|  7> end
|  8> 
|  9> %freq
| 10>    Temp 298.15
| 11> end
| 12> 
| 13> * xyzfile 0 1 conf-0.xyz
| 14> 
| 15> 
| 16>                          ****END OF INPUT****
================================================================================

                       *****************************
                       * Geometry Optimization Run *
                       *****************************

Geometry optimization settings:
Update method            Update   .... BFGS
Choice of coordinates    CoordSys .... (2022) Redundant Internals
Initial Hessian          InHess   .... Almloef's Model
Max. no of cycles        MaxIter  .... 246

Convergence Tolerances:
Energy Change            TolE     ....  1.0000e-06 Eh
Max. Gradient            TolMAXG  ....  1.0000e-04 Eh/bohr
RMS Gradient             TolRMSG  ....  3.0000e-05 Eh/bohr
Max. Displacement        TolMAXD  ....  1.0000e-03 bohr
RMS Displacement         TolRMSD  ....  6.0000e-04 bohr
Strict Convergence                .... False

------------------------------------------------------------------------------
                        ORCA OPTIMIZATION COORDINATE SETUP
------------------------------------------------------------------------------

The optimization will be done in redundant internal coordinates (2022)
Making redundant internal coordinates   ...  (2022 redundants) done
Evaluating the initial hessian          ...  (Almloef) done
Evaluating the coordinates              ...  done
Calculating the B-matrix                .... done
Calculating the G-matrix                .... done
The number of degrees of freedom        ....  406

    -----------------------------------------------------------------
                    Redundant Internal Coordinates


    -----------------------------------------------------------------
         Definition                    Initial Value    Approx d2E/dq
    -----------------------------------------------------------------
      1. B(C   1,C   0)                  1.4018         0.598199   
      2. B(C   2,C   1)                  1.3997         0.602847   
      3. B(C   3,C   2)                  1.3882         0.628981   
      4. B(C   4,C   3)                  1.3863         0.633254   
      5. B(C   5,C   0)                  1.3865         0.632817   
      6. B(C   5,C   4)                  1.3860         0.634077   
      7. B(C   6,C   4)                  1.5019         0.414242   
      8. B(C   7,C   6)                  1.5356         0.365928   
      9. B(C   8,C   7)                  1.5407         0.359182   
     10. B(C   9,C   8)                  1.5374         0.363528   
     11. B(C  10,C   9)                  1.5046         0.410165   
     12. B(C  11,C  10)                  1.3934         0.617004   
     13. B(C  12,C  11)                  1.3814         0.644958   
     14. B(C  13,C  12)                  1.4053         0.590731   
     15. B(C  14,C  13)                  1.3822         0.642908   
     16. B(C  15,C  10)                  1.3854         0.635546   
     17. B(C  15,C  14)                  1.3863         0.633417   
     18. B(C  16,C   7)                  1.5362         0.365222   
     19. B(C  17,C   8)                  1.5358         0.365710   
     20. B(O  18,C   2)                  1.3667         0.609543   
     21. B(O  19,C   0)                  1.3679         0.606916   
     22. B(O  20,C   1)                  1.3774         0.586171   
     23. B(O  21,C  13)                  1.3613         0.621885   
     24. B(O  22,C  12)                  1.3789         0.582883   
     25. B(C  23,O  20)                  1.4237         0.494385   
     26. B(C  24,C  23)                  1.5501         0.346971   
     27. B(C  25,C  24)                  1.5171         0.391686   
     28. B(C  26,C  23)                  1.5330         0.369429   
     29. B(O  27,C  26)                  1.4018         0.535902   
     30. B(C  28,C  25)                  1.3928         0.618318   
     31. B(C  29,C  28)                  1.3811         0.645460   
     32. B(C  30,C  29)                  1.4034         0.594723   
     33. B(C  31,C  30)                  1.3810         0.645708   
     34. B(C  32,C  31)                  1.3848         0.636740   
     35. B(C  32,C  25)                  1.3832         0.640616   
     36. B(C  33,O  19)                  1.4073         0.525228   
     37. B(C  34,O  18)                  1.4080         0.523785   
     38. B(C  35,O  22)                  1.4080         0.523728   
     39. B(O  36,C  24)                  1.3998         0.539714   
     40. B(O  37,C  16)                  1.4076         0.524602   
     41. B(O  38,C  17)                  1.4059         0.527825   
     42. B(O  39,C  29)                  1.3747         0.591987   
     43. B(O  40,C  30)                  1.3693         0.603763   
     44. B(C  41,O  39)                  1.4086         0.522581   
     45. B(H  42,C   3)                  1.0777         0.376746   
     46. B(H  43,C   5)                  1.0777         0.376768   
     47. B(H  44,C   6)                  1.0912         0.358515   
     48. B(H  45,C   6)                  1.0900         0.360055   
     49. B(H  46,C   7)                  1.0970         0.350994   
     50. B(H  47,C   8)                  1.0968         0.351169   
     51. B(H  48,C   9)                  1.0945         0.354208   
     52. B(H  49,C   9)                  1.0917         0.357915   
     53. B(H  50,C  11)                  1.0773         0.377346   
     54. B(H  51,C  14)                  1.0785         0.375595   
     55. B(H  52,C  15)                  1.0803         0.373213   
     56. B(H  53,C  16)                  1.0978         0.349954   
     57. B(H  54,C  16)                  1.0915         0.358103   
     58. B(H  55,C  17)                  1.0916         0.358000   
     59. B(H  56,C  17)                  1.1020         0.344517   
     60. B(H  57,O  21)                  0.9672         0.506447   
     61. B(H  57,O  22)                  2.1122         0.010000   
     62. B(H  58,C  23)                  1.0941         0.354674   
     63. B(H  59,C  24)                  1.0977         0.349994   
     64. B(H  60,C  26)                  1.0917         0.357847   
     65. B(H  61,C  26)                  1.0986         0.348861   
     66. B(H  62,O  20)                  2.3039         0.010000   
     67. B(H  62,O  27)                  0.9657         0.509185   
     68. B(H  63,C  28)                  1.0781         0.376177   
     69. B(H  64,C  31)                  1.0781         0.376124   
     70. B(H  65,C  32)                  1.0783         0.375912   
     71. B(H  66,C  33)                  1.0888         0.361645   
     72. B(H  67,C  33)                  1.0939         0.354972   
     73. B(H  68,C  33)                  1.0945         0.354172   
     74. B(H  69,C  34)                  1.0942         0.354535   
     75. B(H  70,C  34)                  1.0895         0.360820   
     76. B(H  71,C  34)                  1.0947         0.354000   
     77. B(H  72,C  35)                  1.0940         0.354876   
     78. B(H  73,C  35)                  1.0888         0.361741   
     79. B(H  74,H  64)                  4.8761         0.010000   
     80. B(H  74,C  35)                  1.0939         0.355035   
     81. B(H  75,O  20)                  2.2559         0.010000   
     82. B(H  75,O  19)                  2.0767         0.010000   
     83. B(H  75,O  36)                  0.9734         0.495013   
     84. B(H  76,O  40)                  1.9693         0.012757   
     85. B(H  76,O  37)                  0.9698         0.501521   
     86. B(H  77,O  38)                  0.9645         0.511345   
     87. B(H  78,O  39)                  2.0999         0.010000   
     88. B(H  78,O  40)                  0.9685         0.503903   
     89. B(H  79,O  21)                  2.3694         0.010000   
     90. B(H  79,C  41)                  1.0886         0.361899   
     91. B(H  80,H  71)                  2.4795         0.010000   
     92. B(H  80,C  41)                  1.0930         0.356110   
     93. B(H  81,C  41)                  1.0943         0.354462   
     94. A(C   1,C   0,O  19)          114.6852         0.426830   
     95. A(C   5,C   0,O  19)          124.9315         0.431159   
     96. A(C   1,C   0,C   5)          120.3807         0.432870   
     97. A(C   0,C   1,O  20)          116.3667         0.424181   
     98. A(C   0,C   1,C   2)          119.4572         0.429115   
     99. A(C   2,C   1,O  20)          124.0154         0.424769   
    100. A(C   3,C   2,O  18)          123.8344         0.431023   
    101. A(C   1,C   2,C   3)          119.1894         0.433000   
    102. A(C   1,C   2,O  18)          116.9761         0.427754   
    103. A(C   4,C   3,H  42)          118.4798         0.356902   
    104. A(C   2,C   3,H  42)          120.2996         0.356491   
    105. A(C   2,C   3,C   4)          121.2142         0.436852   
    106. A(C   5,C   4,C   6)          121.2695         0.405569   
    107. A(C   3,C   4,C   6)          119.0604         0.405476   
    108. A(C   3,C   4,C   5)          119.6569         0.437488   
    109. A(C   4,C   5,H  43)          119.1606         0.356984   
    110. A(C   0,C   5,H  43)          120.7939         0.356863   
    111. A(C   0,C   5,C   4)          120.0454         0.437434   
    112. A(C   4,C   6,H  44)          108.6498         0.329647   
    113. A(C   7,C   6,H  45)          109.3949         0.323213   
    114. A(C   4,C   6,C   7)          110.7171         0.368532   
    115. A(H  44,C   6,H  45)          108.5988         0.290632   
    116. A(C   4,C   6,H  45)          110.4085         0.329881   
    117. A(C   7,C   6,H  44)          109.0274         0.322986   
    118. A(C   6,C   7,C  16)          110.0985         0.360676   
    119. A(C   8,C   7,C  16)          110.6642         0.359534   
    120. A(C  16,C   7,H  46)          106.8660         0.321764   
    121. A(C   8,C   7,H  46)          106.7951         0.320887   
    122. A(C   6,C   7,H  46)          107.9505         0.321866   
    123. A(C   6,C   7,C   8)          114.1216         0.359653   
    124. A(C   7,C   8,C  17)          114.4763         0.359616   
    125. A(C  17,C   8,H  47)          107.2457         0.321861   
    126. A(C   7,C   8,C   9)          111.4525         0.359250   
    127. A(C   9,C   8,H  47)          108.5943         0.321546   
    128. A(C   7,C   8,H  47)          105.9608         0.320913   
    129. A(C   9,C   8,C  17)          108.8518         0.360354   
    130. A(H  48,C   9,H  49)          107.1855         0.289810   
    131. A(C  10,C   9,H  48)          108.6337         0.328453   
    132. A(C  10,C   9,H  49)          109.1568         0.329018   
    133. A(C   8,C   9,C  10)          113.9233         0.367492   
    134. A(C   8,C   9,H  48)          108.4072         0.322000   
    135. A(C   8,C   9,H  49)          109.3169         0.322549   
    136. A(C   9,C  10,C  11)          120.2234         0.402916   
    137. A(C  11,C  10,C  15)          118.7823         0.435625   
    138. A(C   9,C  10,C  15)          120.9837         0.405027   
    139. A(C  10,C  11,C  12)          120.7193         0.436781   
    140. A(C  10,C  11,H  50)          119.2310         0.355426   
    141. A(C  12,C  11,H  50)          120.0494         0.358111   
    142. A(C  11,C  12,C  13)          119.9658         0.433372   
    143. A(C  13,C  12,O  22)          114.5390         0.422804   
    144. A(C  11,C  12,O  22)          125.4952         0.429506   
    145. A(C  12,C  13,O  21)          120.1943         0.427734   
    146. A(C  12,C  13,C  14)          119.2877         0.433124   
    147. A(C  14,C  13,O  21)          120.5177         0.434286   
    148. A(C  13,C  14,H  51)          118.6551         0.357634   
    149. A(C  13,C  14,C  15)          120.1542         0.438601   
    150. A(C  15,C  14,H  51)          121.1870         0.356732   
    151. A(C  14,C  15,H  52)          119.1525         0.356346   
    152. A(C  10,C  15,H  52)          119.7791         0.356550   
    153. A(C  10,C  15,C  14)          121.0563         0.437691   
    154. A(O  37,C  16,H  54)          106.3838         0.340707   
    155. A(C   7,C  16,H  54)          110.3514         0.322823   
    156. A(O  37,C  16,H  53)          110.7247         0.339399   
    157. A(C   7,C  16,H  53)          108.4683         0.321608   
    158. A(C   7,C  16,O  37)          112.3777         0.381328   
    159. A(H  53,C  16,H  54)          108.4669         0.289286   
    160. A(O  38,C  17,H  56)          109.7855         0.338859   
    161. A(C   8,C  17,O  38)          114.3366         0.381822   
    162. A(H  55,C  17,H  56)          107.7519         0.288564   
    163. A(C   8,C  17,H  56)          108.2914         0.320855   
    164. A(O  38,C  17,H  55)          105.4947         0.341040   
    165. A(C   8,C  17,H  55)          110.9883         0.322878   
    166. A(C   2,O  18,C  34)          118.2004         0.414444   
    167. A(C   0,O  19,C  33)          118.3725         0.414329   
    168. A(C   1,O  20,C  23)          118.9726         0.407387   
    169. A(C  13,O  21,H  57)          107.5580         0.368638   
    170. A(C  12,O  22,C  35)          118.0821         0.411159   
    171. A(C  26,C  23,H  58)          109.6199         0.322920   
    172. A(C  24,C  23,H  58)          110.9141         0.319623   
    173. A(O  20,C  23,H  58)          110.2021         0.336810   
    174. A(C  24,C  23,C  26)          111.0908         0.358122   
    175. A(O  20,C  23,C  26)          104.7841         0.378178   
    176. A(O  20,C  23,C  24)          110.0637         0.374101   
    177. A(C  23,C  24,O  36)          109.8329         0.379819   
    178. A(O  36,C  24,H  59)          106.1863         0.341020   
    179. A(C  25,C  24,H  59)          108.9064         0.325326   
    180. A(C  23,C  24,H  59)          108.1820         0.318930   
    181. A(C  25,C  24,O  36)          113.2512         0.387908   
    182. A(C  23,C  24,C  25)          110.2821         0.361709   
    183. A(C  28,C  25,C  32)          119.4415         0.436417   
    184. A(C  24,C  25,C  32)          121.3437         0.402310   
    185. A(C  24,C  25,C  28)          119.2143         0.399807   
    186. A(O  27,C  26,H  61)          110.9493         0.340432   
    187. A(H  60,C  26,H  61)          109.1013         0.289112   
    188. A(C  23,C  26,H  61)          108.4974         0.322047   
    189. A(O  27,C  26,H  60)          106.7847         0.341883   
    190. A(C  23,C  26,H  60)          110.0209         0.323392   
    191. A(C  23,C  26,O  27)          111.4601         0.383504   
    192. A(C  26,O  27,H  62)          106.8193         0.359707   
    193. A(C  29,C  28,H  63)          120.3308         0.357970   
    194. A(C  25,C  28,H  63)          119.2779         0.355367   
    195. A(C  25,C  28,C  29)          120.3910         0.437009   
    196. A(C  30,C  29,O  39)          114.7003         0.424488   
    197. A(C  28,C  29,O  39)          125.6602         0.430763   
    198. A(C  28,C  29,C  30)          119.6386         0.433958   
    199. A(C  31,C  30,O  40)          120.4845         0.432320   
    200. A(C  29,C  30,O  40)          119.7311         0.425987   
    201. A(C  29,C  30,C  31)          119.7764         0.433988   
    202. A(C  32,C  31,H  64)          120.8269         0.357134   
    203. A(C  30,C  31,H  64)          119.1031         0.357984   
    204. A(C  30,C  31,C  32)          120.0659         0.439360   
    205. A(C  31,C  32,H  65)          119.9351         0.357100   
    206. A(C  25,C  32,H  65)          119.4937         0.357469   
    207. A(C  25,C  32,C  31)          120.5619         0.438733   
    208. A(H  67,C  33,H  68)          109.4595         0.289431   
    209. A(H  66,C  33,H  68)          109.3914         0.290277   
    210. A(O  19,C  33,H  68)          111.4790         0.340147   
    211. A(H  66,C  33,H  67)          109.3315         0.290380   
    212. A(O  19,C  33,H  67)          111.5017         0.340275   
    213. A(O  19,C  33,H  66)          105.5825         0.341337   
    214. A(H  69,C  34,H  71)          109.3184         0.289353   
    215. A(O  18,C  34,H  71)          111.6978         0.339963   
    216. A(H  69,C  34,H  70)          109.0985         0.290220   
    217. A(O  18,C  34,H  70)          105.5243         0.341049   
    218. A(O  18,C  34,H  69)          111.3610         0.340049   
    219. A(H  70,C  34,H  71)          109.7514         0.290151   
    220. A(H  73,C  35,H  74)          109.4790         0.290401   
    221. A(H  72,C  35,H  74)          109.7073         0.289529   
    222. A(O  22,C  35,H  74)          111.3722         0.340123   
    223. A(H  72,C  35,H  73)          109.2940         0.290380   
    224. A(O  22,C  35,H  73)          105.5903         0.341189   
    225. A(O  22,C  35,H  72)          111.2969         0.340097   
    226. A(C  24,O  36,H  75)          107.3432         0.358415   
    227. A(C  16,O  37,H  76)          107.8222         0.357481   
    228. A(C  17,O  38,H  77)          108.3824         0.359037   
    229. A(C  29,O  39,C  41)          118.2073         0.412130   
    230. A(C  30,O  40,H  78)          107.2941         0.366456   
    231. A(H  80,C  41,H  81)          109.4041         0.289613   
    232. A(H  79,C  41,H  81)          109.9805         0.290347   
    233. A(O  39,C  41,H  81)          111.0844         0.339906   
    234. A(H  79,C  41,H  80)          109.3584         0.290558   
    235. A(O  39,C  41,H  80)          111.5481         0.340170   
    236. A(O  39,C  41,H  79)          105.3892         0.341088   
    237. D(O  20,C   1,C   0,O  19)     -7.2313         0.024661   
    238. D(C   2,C   1,C   0,O  19)    177.1907         0.024661   
    239. D(C   2,C   1,C   0,C   5)     -2.2506         0.024661   
    240. D(O  20,C   1,C   0,C   5)    173.3274         0.024661   
    241. D(O  18,C   2,C   1,C   0)   -179.4188         0.025067   
    242. D(C   3,C   2,C   1,C   0)      0.6452         0.025067   
    243. D(C   3,C   2,C   1,O  20)   -174.5741         0.025067   
    244. D(O  18,C   2,C   1,O  20)      5.3619         0.025067   
    245. D(C   4,C   3,C   2,C   1)      1.4908         0.027425   
    246. D(H  42,C   3,C   2,O  18)      0.6205         0.027425   
    247. D(C   4,C   3,C   2,O  18)   -178.4405         0.027425   
    248. D(H  42,C   3,C   2,C   1)   -179.4482         0.027425   
    249. D(C   6,C   4,C   3,H  42)      0.2021         0.027823   
    250. D(C   5,C   4,C   3,H  42)    178.8945         0.027823   
    251. D(C   5,C   4,C   3,C   2)     -2.0279         0.027823   
    252. D(C   6,C   4,C   3,C   2)    179.2798         0.027823   
    253. D(H  43,C   5,C   4,C   6)     -0.8367         0.027900   
    254. D(H  43,C   5,C   4,C   3)   -179.4994         0.027900   
    255. D(C   0,C   5,C   4,C   3)      0.3967         0.027900   
    256. D(C   4,C   5,C   0,O  19)   -177.6488         0.027782   
    257. D(H  43,C   5,C   0,C   1)   -178.3737         0.027782   
    258. D(H  43,C   5,C   0,O  19)      2.2455         0.027782   
    259. D(C   0,C   5,C   4,C   6)    179.0594         0.027900   
    260. D(C   4,C   5,C   0,C   1)      1.7320         0.027782   
    261. D(H  45,C   6,C   4,C   3)   -162.4621         0.012700   
    262. D(H  44,C   6,C   4,C   5)    137.8623         0.012700   
    263. D(H  44,C   6,C   4,C   3)    -43.4672         0.012700   
    264. D(C   7,C   6,C   4,C   5)   -102.4335         0.012700   
    265. D(C   7,C   6,C   4,C   3)     76.2370         0.012700   
    266. D(C   8,C   7,C   6,H  44)    -39.9853         0.010719   
    267. D(C   8,C   7,C   6,C   4)   -159.4627         0.010719   
    268. D(C  16,C   7,C   6,H  45)    -46.4998         0.010719   
    269. D(C  16,C   7,C   6,H  44)   -165.1251         0.010719   
    270. D(C   8,C   7,C   6,H  45)     78.6400         0.010719   
    271. D(C  16,C   7,C   6,C   4)     75.3975         0.010719   
    272. D(C  17,C   8,C   7,H  46)   -164.1090         0.010354   
    273. D(C  17,C   8,C   7,C  16)     79.9317         0.010354   
    274. D(C  17,C   8,C   7,C   6)    -44.9079         0.010354   
    275. D(C   9,C   8,C   7,C  16)   -155.9893         0.010354   
    276. D(C   9,C   8,C   7,H  46)    -40.0299         0.010354   
    277. D(C   9,C   8,C   7,C   6)     79.1712         0.010354   
    278. D(H  48,C   9,C   8,C  17)    -57.7333         0.010588   
    279. D(H  48,C   9,C   8,C   7)    175.0696         0.010588   
    280. D(C  10,C   9,C   8,H  47)    -62.3511         0.010588   
    281. D(C  10,C   9,C   8,C  17)   -178.7998         0.010588   
    282. D(H  48,C   9,C   8,H  47)     58.7154         0.010588   
    283. D(C  10,C   9,C   8,C   7)     54.0031         0.010588   
    284. D(C  15,C  10,C   9,H  48)    111.3526         0.012460   
    285. D(C  15,C  10,C   9,C   8)   -127.7072         0.012460   
    286. D(C  11,C  10,C   9,H  49)    175.9855         0.012460   
    287. D(C  11,C  10,C   9,H  48)    -67.4485         0.012460   
    288. D(C  11,C  10,C   9,C   8)     53.4917         0.012460   
    289. D(H  50,C  11,C  10,C  15)    179.8442         0.026328   
    290. D(H  50,C  11,C  10,C   9)     -1.3285         0.026328   
    291. D(C  12,C  11,C  10,C  15)      0.0579         0.026328   
    292. D(C  12,C  11,C  10,C   9)    178.8852         0.026328   
    293. D(O  22,C  12,C  11,H  50)     -1.4130         0.028931   
    294. D(C  13,C  12,C  11,H  50)    178.5665         0.028931   
    295. D(O  22,C  12,C  11,C  10)    178.3715         0.028931   
    296. D(C  13,C  12,C  11,C  10)     -1.6489         0.028931   
    297. D(O  21,C  13,C  12,C  11)   -177.8002         0.024018   
    298. D(C  14,C  13,C  12,O  22)   -178.0211         0.024018   
    299. D(C  14,C  13,C  12,C  11)      1.9972         0.024018   
    300. D(O  21,C  13,C  12,O  22)      2.1815         0.024018   
    301. D(H  51,C  14,C  13,O  21)     -0.2806         0.028735   
    302. D(H  51,C  14,C  13,C  12)    179.9227         0.028735   
    303. D(C  15,C  14,C  13,O  21)    179.0304         0.028735   
    304. D(C  15,C  14,C  13,C  12)     -0.7663         0.028735   
    305. D(H  52,C  15,C  14,H  51)     -0.2758         0.027838   
    306. D(H  52,C  15,C  14,C  13)   -179.5691         0.027838   
    307. D(C  10,C  15,C  14,H  51)    178.4569         0.027838   
    308. D(C  10,C  15,C  14,C  13)     -0.8364         0.027838   
    309. D(H  52,C  15,C  10,C  11)    179.9200         0.028038   
    310. D(H  52,C  15,C  10,C   9)      1.1019         0.028038   
    311. D(C  14,C  15,C  10,C  11)      1.1952         0.028038   
    312. D(C  14,C  15,C  10,C   9)   -177.6229         0.028038   
    313. D(H  53,C  16,C   7,H  46)     66.2233         0.010681   
    314. D(H  53,C  16,C   7,C   8)   -177.8614         0.010681   
    315. D(H  53,C  16,C   7,C   6)    -50.7688         0.010681   
    316. D(O  37,C  16,C   7,H  46)    -56.5271         0.010681   
    317. D(O  37,C  16,C   7,C   8)     59.3882         0.010681   
    318. D(O  37,C  16,C   7,C   6)   -173.5192         0.010681   
    319. D(H  55,C  17,C   8,H  47)    175.3951         0.010707   
    320. D(H  55,C  17,C   8,C   9)    -67.2957         0.010707   
    321. D(H  55,C  17,C   8,C   7)     58.1584         0.010707   
    322. D(O  38,C  17,C   8,H  47)     56.2155         0.010707   
    323. D(O  38,C  17,C   8,C   9)    173.5246         0.010707   
    324. D(O  38,C  17,C   8,C   7)    -61.0213         0.010707   
    325. D(C  34,O  18,C   2,C   3)      3.1938         0.027194   
    326. D(C  34,O  18,C   2,C   1)   -176.7389         0.027194   
    327. D(C  33,O  19,C   0,C   5)      0.4193         0.029730   
    328. D(C  33,O  19,C   0,C   1)   -178.9928         0.029730   
    329. D(C  23,O  20,C   1,C   2)    -59.4578         0.029994   
    330. D(C  23,O  20,C   1,C   0)    125.1878         0.029994   
    331. D(H  57,O  21,C  13,C  14)   -179.2120         0.031331   
    332. D(H  57,O  21,C  13,C  12)      0.5828         0.031331   
    333. D(C  35,O  22,C  12,C  13)    178.6828         0.027268   
    334. D(C  35,O  22,C  12,C  11)     -1.3367         0.027268   
    335. D(H  58,C  23,O  20,C   1)     55.2630         0.022483   
    336. D(C  26,C  23,O  20,C   1)    173.1126         0.022483   
    337. D(C  24,C  23,O  20,C   1)    -67.3755         0.022483   
    338. D(O  36,C  24,C  23,H  58)   -172.7771         0.010000   
    339. D(O  36,C  24,C  23,C  26)     65.0377         0.010000   
    340. D(O  36,C  24,C  23,O  20)    -50.5589         0.010000   
    341. D(C  25,C  24,C  23,H  58)    -47.2786         0.010000   
    342. D(C  25,C  24,C  23,C  26)   -169.4638         0.010000   
    343. D(C  25,C  24,C  23,O  20)     74.9396         0.010000   
    344. D(C  32,C  25,C  24,O  36)      2.1745         0.011409   
    345. D(C  32,C  25,C  24,C  23)   -121.3615         0.011409   
    346. D(C  28,C  25,C  24,H  59)    -59.6810         0.011409   
    347. D(C  28,C  25,C  24,O  36)   -177.5767         0.011409   
    348. D(C  28,C  25,C  24,C  23)     58.8873         0.011409   
    349. D(H  60,C  26,C  23,H  58)    -60.9771         0.010912   
    350. D(H  60,C  26,C  23,C  24)     61.9565         0.010912   
    351. D(H  60,C  26,C  23,O  20)   -179.2225         0.010912   
    352. D(O  27,C  26,C  23,H  58)     57.2837         0.010912   
    353. D(O  27,C  26,C  23,C  24)   -179.7827         0.010912   
    354. D(O  27,C  26,C  23,O  20)    -60.9617         0.010912   
    355. D(H  62,O  27,C  26,H  61)    -71.5970         0.022830   
    356. D(H  62,O  27,C  26,H  60)    169.6214         0.022830   
    357. D(H  62,O  27,C  26,C  23)     49.4356         0.022830   
    358. D(H  63,C  28,C  25,C  32)   -176.5075         0.026447   
    359. D(H  63,C  28,C  25,C  24)      3.2486         0.026447   
    360. D(C  29,C  28,C  25,C  32)      3.6662         0.026447   
    361. D(C  29,C  28,C  25,C  24)   -176.5778         0.026447   
    362. D(C  30,C  29,C  28,H  63)    178.3944         0.028980   
    363. D(C  30,C  29,C  28,C  25)     -1.7811         0.028980   
    364. D(O  39,C  29,C  28,H  63)     -1.2457         0.028980   
    365. D(O  39,C  29,C  28,C  25)    178.5789         0.028980   
    366. D(O  40,C  30,C  29,O  39)     -0.7978         0.024360   
    367. D(O  40,C  30,C  29,C  28)    179.5241         0.024360   
    368. D(C  31,C  30,C  29,O  39)    178.1846         0.024360   
    369. D(C  31,C  30,C  29,C  28)     -1.4935         0.024360   
    370. D(H  64,C  31,C  30,O  40)      2.5739         0.029003   
    371. D(H  64,C  31,C  30,C  29)   -176.4007         0.029003   
    372. D(C  32,C  31,C  30,O  40)   -178.1589         0.029003   
    373. D(C  32,C  31,C  30,C  29)      2.8665         0.029003   
    374. D(H  65,C  32,C  31,H  64)     -0.6000         0.028150   
    375. D(H  65,C  32,C  31,C  30)   -179.8545         0.028150   
    376. D(C  25,C  32,C  31,H  64)    178.2836         0.028150   
    377. D(C  25,C  32,C  31,C  30)     -0.9709         0.028150   
    378. D(H  65,C  32,C  25,C  28)    176.5962         0.028517   
    379. D(H  65,C  32,C  25,C  24)     -3.1545         0.028517   
    380. D(C  31,C  32,C  25,C  28)     -2.2923         0.028517   
    381. D(C  31,C  32,C  25,C  24)    177.9570         0.028517   
    382. D(H  68,C  33,O  19,C   0)     59.7472         0.023762   
    383. D(H  67,C  33,O  19,C   0)    -62.9225         0.023762   
    384. D(H  66,C  33,O  19,C   0)    178.4423         0.023762   
    385. D(H  71,C  34,O  18,C   2)    -61.8928         0.021764   
    386. D(H  70,C  34,O  18,C   2)    178.8972         0.021764   
    387. D(H  69,C  34,O  18,C   2)     60.6502         0.021764   
    388. D(H  74,C  35,O  22,C  12)    -59.5807         0.023620   
    389. D(H  73,C  35,O  22,C  12)   -178.3285         0.023620   
    390. D(H  72,C  35,O  22,C  12)     63.1853         0.023620   
    391. D(H  75,O  36,C  24,H  59)    163.3450         0.023172   
    392. D(H  75,O  36,C  24,C  25)    -77.1870         0.023172   
    393. D(H  75,O  36,C  24,C  23)     46.5954         0.023172   
    394. D(H  76,O  37,C  16,H  54)   -174.1816         0.021835   
    395. D(H  76,O  37,C  16,H  53)    -56.5201         0.021835   
    396. D(H  76,O  37,C  16,C   7)     64.9501         0.021835   
    397. D(H  77,O  38,C  17,H  56)     67.7958         0.022116   
    398. D(H  77,O  38,C  17,H  55)   -176.3570         0.022116   
    399. D(H  77,O  38,C  17,C   8)    -54.1268         0.022116   
    400. D(C  41,O  39,C  29,C  30)   -173.3566         0.028185   
    401. D(C  41,O  39,C  29,C  28)      6.2991         0.028185   
    402. D(H  78,O  40,C  30,C  31)   -177.0872         0.029400   
    403. D(H  78,O  40,C  30,C  29)      1.8878         0.029400   
    404. D(H  81,C  41,O  39,C  29)     62.4244         0.023512   
    405. D(H  80,C  41,O  39,C  29)    -59.9242         0.023512   
    406. D(H  79,C  41,O  39,C  29)   -178.5003         0.023512   
    -----------------------------------------------------------------

Number of atoms                         .... 82
Number of degrees of freedom            .... 406


         *************************************************************
         *                GEOMETRY OPTIMIZATION CYCLE   1            *
         *************************************************************
---------------------------------
CARTESIAN COORDINATES (ANGSTROEM)
---------------------------------
  C     10.595904   -7.899656   -2.035694
  C     11.236504   -9.068284   -2.470553
  C     10.578249  -10.298098   -2.354296
  C      9.296662  -10.332363   -1.821930
  C      8.648726   -9.169937   -1.433492
  C      9.303027   -7.952556   -1.537567
  C      7.256174   -9.261576   -0.878497
  C      7.280937   -9.773083    0.569228
  C      5.943129  -10.366993    1.050147
  C      5.745134  -11.800353    0.530589
  C      6.883433  -12.729392    0.854435
  C      7.322052  -12.869459    2.169579
  C      8.351021  -13.736611    2.481686
  C      8.943705  -14.514626    1.472636
  C      8.513848  -14.369981    0.166942
  C      7.497627  -13.477353   -0.136793
  C      7.750064   -8.657452    1.515305
  C      4.707711   -9.531338    0.683980
  O     11.254243  -11.406043   -2.782589
  O     11.349628   -6.762811   -2.138874
  O     12.460780   -8.904199   -3.079959
  O      9.927464  -15.403167    1.782108
  O      8.882748  -13.928377    3.739407
  C     13.584646   -9.615806   -2.572474
  C     13.954651   -9.089616   -1.162132
  C     12.959379   -9.594732   -0.134551
  C     14.709095   -9.339030   -3.577069
  O     14.380392   -9.807554   -4.856687
  C     12.792500  -10.967378    0.032753
  C     11.843455  -11.454039    0.910267
  C     11.070215  -10.557322    1.663666
  C     11.285434   -9.198356    1.544666
  C     12.219841   -8.720380    0.641218
  C     10.789604   -5.547369   -1.703629
  C     10.590574  -12.647180   -2.742646
  C      8.362869  -13.165068    4.802252
  O     14.061259   -7.694087   -1.188760
  O      7.930604   -9.114146    2.834438
  O      4.702448   -8.235445    1.229159
  O     11.568914  -12.781556    1.138475
  O     10.122015  -11.037503    2.527022
  C     12.395682  -13.746506    0.530558
  H      8.776791  -11.270420   -1.716021
  H      8.794766   -7.054883   -1.225710
  H      6.681181   -9.957243   -1.491807
  H      6.769648   -8.286643   -0.909669
  H      8.025018  -10.576733    0.631167
  H      6.002634  -10.396922    2.144959
  H      4.828112  -12.204039    0.971062
  H      5.599629  -11.775516   -0.551042
  H      6.851247  -12.289451    2.945745
  H      8.976640  -14.971283   -0.599537
  H      7.169521  -13.382356   -1.161630
  H      8.682765   -8.235055    1.119364
  H      7.003807   -7.862395    1.564167
  H      4.635140   -9.393479   -0.396438
  H      3.809819  -10.078516    1.013955
  H     10.069668  -15.359867    2.737782
  H     13.371836  -10.688708   -2.545627
  H     14.952903   -9.467952   -0.906387
  H     15.618256   -9.861818   -3.273841
  H     14.904236   -8.257982   -3.592709
  H     13.496077   -9.475389   -5.057252
  H     13.410436  -11.646391   -0.532418
  H     10.726272   -8.522043    2.171039
  H     12.387865   -7.659017    0.551709
  H     11.565539   -4.798061   -1.852034
  H      9.908510   -5.277956   -2.293304
  H     10.520647   -5.586939   -0.643408
  H      9.694544  -12.640417   -3.370696
  H     11.300543  -13.370473   -3.142277
  H     10.314392  -12.925724   -1.720688
  H      7.306560  -13.391548    4.974603
  H      8.940283  -13.453107    5.679196
  H      8.485482  -12.093382    4.620661
  H     13.283381   -7.352672   -1.663959
  H      8.656620   -9.757136    2.829197
  H      4.823294   -8.306430    2.183468
  H     10.164288  -12.004493    2.492288
  H     11.980610  -14.709040    0.824478
  H     12.377570  -13.661627   -0.559024
  H     13.427454  -13.660342    0.884827

----------------------------
CARTESIAN COORDINATES (A.U.)
----------------------------
  NO LB      ZA    FRAG     MASS         X           Y           Z
   0 C     6.0000    0    12.011   20.023357  -14.928187   -3.846905
   1 C     6.0000    0    12.011   21.233915  -17.136573   -4.668669
   2 C     6.0000    0    12.011   19.989994  -19.460585   -4.448974
   3 C     6.0000    0    12.011   17.568146  -19.525336   -3.442949
   4 C     6.0000    0    12.011   16.343724  -17.328670   -2.708908
   5 C     6.0000    0    12.011   17.580174  -15.028154   -2.905581
   6 C     6.0000    0    12.011   13.712181  -17.501843   -1.660118
   7 C     6.0000    0    12.011   13.758976  -18.468450    1.075685
   8 C     6.0000    0    12.011   11.230887  -19.590778    1.984490
   9 C     6.0000    0    12.011   10.856730  -22.299435    1.002667
  10 C     6.0000    0    12.011   13.007803  -24.055065    1.614648
  11 C     6.0000    0    12.011   13.836673  -24.319754    4.099909
  12 C     6.0000    0    12.011   15.781143  -25.958434    4.689706
  13 C     6.0000    0    12.011   16.901153  -27.428667    2.782880
  14 C     6.0000    0    12.011   16.088841  -27.155329    0.315475
  15 C     6.0000    0    12.011   14.168462  -25.468506   -0.258501
  16 C     6.0000    0    12.011   14.645498  -16.360213    2.863511
  17 C     6.0000    0    12.011    8.896284  -18.011618    1.292534
  18 O     8.0000    0    15.999   21.267436  -21.554298   -5.258331
  19 O     8.0000    0    15.999   21.447688  -12.779861   -4.041886
  20 O     8.0000    0    15.999   23.547462  -16.826497   -5.820279
  21 O     8.0000    0    15.999   18.760187  -29.107768    3.367696
  22 O     8.0000    0    15.999   16.785961  -26.320819    7.066455
  23 C     6.0000    0    12.011   25.671260  -18.171240   -4.861271
  24 C     6.0000    0    12.011   26.370468  -17.176886   -2.196112
  25 C     6.0000    0    12.011   24.489677  -18.131416   -0.254265
  26 C     6.0000    0    12.011   27.796162  -17.648210   -6.759682
  27 O     8.0000    0    15.999   27.175003  -18.533590   -9.177808
  28 C     6.0000    0    12.011   24.174322  -20.725340    0.061894
  29 C     6.0000    0    12.011   22.380887  -21.644996    1.720155
  30 C     6.0000    0    12.011   20.919675  -19.950447    3.143873
  31 C     6.0000    0    12.011   21.326380  -17.382375    2.918997
  32 C     6.0000    0    12.011   23.092154  -16.479130    1.211726
  33 C     6.0000    0    12.011   20.389397  -10.483009   -3.219391
  34 C     6.0000    0    12.011   20.013284  -23.899706   -5.182850
  35 C     6.0000    0    12.011   15.803533  -24.878373    9.074942
  36 O     8.0000    0    15.999   26.571928  -14.539718   -2.246430
  37 O     8.0000    0    15.999   14.986669  -17.223240    5.356312
  38 O     8.0000    0    15.999    8.886339  -15.562735    2.322774
  39 O     8.0000    0    15.999   21.862078  -24.153641    2.151405
  40 O     8.0000    0    15.999   19.127836  -20.857858    4.775380
  41 C     6.0000    0    12.011   23.424444  -25.977131    1.002610
  42 H     1.0000    0     1.008   16.585731  -21.298007   -3.242810
  43 H     1.0000    0     1.008   16.619699  -13.331797   -2.316257
  44 H     1.0000    0     1.008   12.625602  -18.816461   -2.819107
  45 H     1.0000    0     1.008   12.792780  -15.659486   -1.719025
  46 H     1.0000    0     1.008   15.165086  -19.987129    1.192733
  47 H     1.0000    0     1.008   11.343334  -19.647335    4.053386
  48 H     1.0000    0     1.008    9.123809  -23.062291    1.835041
  49 H     1.0000    0     1.008   10.581766  -22.252500   -1.041319
  50 H     1.0000    0     1.008   12.946980  -23.223696    5.566651
  51 H     1.0000    0     1.008   16.963392  -28.291625   -1.132960
  52 H     1.0000    0     1.008   13.548431  -25.288989   -2.195163
  53 H     1.0000    0     1.008   16.408048  -15.561998    2.115291
  54 H     1.0000    0     1.008   13.235276  -14.857772    2.955848
  55 H     1.0000    0     1.008    8.759145  -17.751103   -0.749159
  56 H     1.0000    0     1.008    7.199514  -19.045635    1.916096
  57 H     1.0000    0     1.008   19.028914  -29.025941    5.173658
  58 H     1.0000    0     1.008   25.269108  -20.198730   -4.810538
  59 H     1.0000    0     1.008   28.256893  -17.891837   -1.712824
  60 H     1.0000    0     1.008   29.514226  -18.636134   -6.186662
  61 H     1.0000    0     1.008   28.164925  -15.605323   -6.789235
  62 H     1.0000    0     1.008   25.503889  -17.905891   -9.556821
  63 H     1.0000    0     1.008   25.342051  -22.008489   -1.006125
  64 H     1.0000    0     1.008   20.269716  -16.104327    4.102669
  65 H     1.0000    0     1.008   23.409673  -14.473444    1.042578
  66 H     1.0000    0     1.008   21.855701   -9.067022   -3.499836
  67 H     1.0000    0     1.008   18.724371   -9.973892   -4.333716
  68 H     1.0000    0     1.008   19.881141  -10.557784   -1.215865
  69 H     1.0000    0     1.008   18.320034  -23.886927   -6.369692
  70 H     1.0000    0     1.008   21.354932  -25.266533   -5.938043
  71 H     1.0000    0     1.008   19.491376  -24.426078   -3.251630
  72 H     1.0000    0     1.008   13.807398  -25.306359    9.400637
  73 H     1.0000    0     1.008   16.894687  -25.422688   10.732125
  74 H     1.0000    0     1.008   16.035237  -22.853180    8.731784
  75 H     1.0000    0     1.008   25.101952  -13.894537   -3.144426
  76 H     1.0000    0     1.008   16.358642  -18.438315    5.346408
  77 H     1.0000    0     1.008    9.114705  -15.696877    4.126157
  78 H     1.0000    0     1.008   19.207721  -22.685205    4.709741
  79 H     1.0000    0     1.008   22.640072  -27.796057    1.558038
  80 H     1.0000    0     1.008   23.390217  -25.816733   -1.056402
  81 H     1.0000    0     1.008   25.374210  -25.814306    1.672080

--------------------------------
INTERNAL COORDINATES (ANGSTROEM)
--------------------------------
 C      0   0   0     0.000000000000     0.00000000     0.00000000
 C      1   0   0     1.401842022509     0.00000000     0.00000000
 C      2   1   0     1.399734769395   119.45721000     0.00000000
 C      3   2   1     1.388183133354   119.18943299     0.64520767
 C      4   3   2     1.386339838088   121.21419553     1.49081398
 C      5   4   3     1.385986297345   119.65689285   357.97213186
 C      5   4   3     1.501871930911   119.06037965   179.27978102
 C      7   5   4     1.535629920545   110.71714621    76.23702173
 C      8   7   5     1.540694710093   114.12163596   200.53729918
 C      9   8   7     1.537420886358   111.45245476    79.17117273
 C     10   9   8     1.504564425274   113.92330879    54.00310080
 C     11  10   9     1.393416194046   120.22336104    53.49174332
 C     12  11  10     1.381354692164   120.71928549   178.88520559
 C     13  12  11     1.405261719792   119.96579503   358.35105361
 C     14  13  12     1.382221505534   119.28770604     1.99715803
 C     11  10   9     1.385356329430   120.98373823   232.29284533
 C      8   7   5     1.536155361171   110.09847394    75.39749251
 C      9   8   7     1.535792215720   114.47629927   315.09212930
 O      3   2   1     1.366727896308   116.97610947   180.58119550
 O      1   2   3     1.367903749347   114.68518264   177.19070850
 O      2   1   3     1.377371035910   116.36670721   175.57797979
 O     14  13  12     1.361271300372   120.19431975   182.19977705
 O     13  12  11     1.378902194131   125.49515491   178.37147601
 C     21   2   1     1.423727499933   118.97264336   125.18784985
 C     24  21   2     1.550110379859   110.06372602   292.62447355
 C     25  24  21     1.517112796273   110.28214085    74.93959856
 C     24  21   2     1.533037478292   104.78409150   173.11260934
 O     27  24  21     1.401777402679   111.46014116   299.03829055
 C     26  25  24     1.392837039011   119.21432961    58.88728842
 C     29  26  25     1.381142956199   120.39100602   183.42221723
 C     30  29  26     1.403428242635   119.63861542   358.21889544
 C     31  30  29     1.381038528010   119.77642424   358.50650015
 C     26  25  24     1.383193717490   121.34369501   238.63852219
 C     20   1   2     1.407254049892   118.37250083   181.00717819
 C     19   3   2     1.408002863589   118.20041641   183.26109781
 C     23  13  12     1.408032268973   118.08211547   358.66331604
 O     25  24  21     1.399848203251   109.83286586   309.44106191
 O     17   8   7     1.407578739633   112.37770542   186.48081792
 O     18   9   8     1.405911389570   114.33661207   298.97870409
 O     30  29  26     1.374683420825   125.66016173   178.57885455
 O     31  30  29     1.369321748783   119.73112297   179.52410321
 C     40  30  29     1.408629034592   118.20729875     6.29906656
 H      4   3   2     1.077698859468   120.29956419   180.55182777
 H      6   5   4     1.077683316329   119.16061954   180.50062657
 H      7   5   4     1.091200498387   108.64976574   316.53276860
 H      7   5   4     1.090033820650   110.40845380   197.53785363
 H      8   7   5     1.096971981467   107.95049377   319.08286046
 H      9   8   7     1.096836495969   105.96082055   197.12261152
 H     10   9   8     1.094490660369   108.40723060   175.06960205
 H     10   9   8     1.091656549908   109.31686090   291.59712292
 H     12  11  10     1.077265738301   119.23101345   358.67146202
 H     15  14  13     1.078531854023   118.65509347   179.92270290
 H     16  11  10     1.080263907733   119.77906285     1.10191606
 H     17   8   7     1.097779659758   108.46825888   309.23120688
 H     17   8   7     1.091513933815   110.35138402    67.92146088
 H     18   9   8     1.091592111576   110.98834780    58.15838383
 H     18   9   8     1.102042212311   108.29142687   176.24138360
 H     22  14  13     0.967166072579   107.55803258     0.58283307
 H     24  21   2     1.094132556674   110.20207106    55.26298409
 H     25  24  21     1.097748729533   108.18196499   193.95014626
 H     27  24  21     1.091708451439   110.02087197   180.77747689
 H     27  24  21     1.098631433633   108.49739926    61.49189757
 H     28  27  24     0.965698246988   106.81932093    49.43555680
 H     29  26  25     1.078110390271   119.27794666     3.24857525
 H     32  31  30     1.078148970406   119.10309668   183.59927265
 H     33  26  25     1.078302301206   119.49366151   356.84551465
 H     34  20   1     1.088834768900   105.58250303   178.44226453
 H     34  20   1     1.093904194917   111.50173655   297.07753551
 H     34  20   1     1.094518639685   111.47900181    59.74718499
 H     35  19   3     1.094239889795   111.36101622    60.65015961
 H     35  19   3     1.089456446518   105.52427413   178.89723902
 H     35  19   3     1.094650757427   111.69777114   298.10715111
 H     36  23  13     1.093977604197   111.29694821    63.18530448
 H     36  23  13     1.088762407839   105.59028026   181.67153059
 H     36  23  13     1.093855589910   111.37217984   300.41928516
 H     37  25  24     0.973381776808   107.34322209    46.59538732
 H     38  17   8     0.969826760066   107.82224531    64.95013879
 H     39  18   9     0.964545669042   108.38237585   305.87316725
 H     41  31  30     0.968536685469   107.29405739     1.88784224
 H     42  40  30     1.088643593547   105.38918998   181.49972489
 H     42  40  30     1.093033262803   111.54808603   300.07576832
 H     42  40  30     1.094295811364   111.08438772    62.42441641

---------------------------
INTERNAL COORDINATES (A.U.)
---------------------------
 C      0   0   0     0.000000000000     0.00000000     0.00000000
 C      1   0   0     2.649097505564     0.00000000     0.00000000
 C      2   1   0     2.645115374283   119.45721000     0.00000000
 C      3   2   1     2.623285945767   119.18943299     0.64520767
 C      4   3   2     2.619802622531   121.21419553     1.49081398
 C      5   4   3     2.619134527350   119.65689285   357.97213186
 C      5   4   3     2.838126637645   119.06037965   179.27978102
 C      7   5   4     2.901919992886   110.71714621    76.23702173
 C      8   7   5     2.911491058057   114.12163596   200.53729918
 C      9   8   7     2.905304427787   111.45245476    79.17117273
 C     10   9   8     2.843214714609   113.92330879    54.00310080
 C     11  10   9     2.633174997317   120.22336104    53.49174332
 C     12  11  10     2.610382061997   120.71928549   178.88520559
 C     13  12  11     2.655559796891   119.96579503   358.35105361
 C     14  13  12     2.612020101876   119.28770604     1.99715803
 C     11  10   9     2.617944060517   120.98373823   232.29284533
 C      8   7   5     2.902912931769   110.09847394    75.39749251
 C      9   8   7     2.902226686319   114.47629927   315.09212930
 O      3   2   1     2.582741423612   116.97610947   180.58119550
 O      1   2   3     2.584963463830   114.68518264   177.19070850
 O      2   1   3     2.602854042666   116.36670721   175.57797979
 O     14  13  12     2.572429951670   120.19431975   182.19977705
 O     13  12  11     2.605747512370   125.49515491   178.37147601
 C     21   2   1     2.690455064206   118.97264336   125.18784985
 C     24  21   2     2.929284095282   110.06372602   292.62447355
 C     25  24  21     2.866927699224   110.28214085    74.93959856
 C     24  21   2     2.897020987010   104.78409150   173.11260934
 O     27  24  21     2.648975391784   111.46014116   299.03829055
 C     26  25  24     2.632080552912   119.21432961    58.88728842
 C     29  26  25     2.609981939010   120.39100602   183.42221723
 C     30  29  26     2.652095027191   119.63861542   358.21889544
 C     31  30  29     2.609784598333   119.77642424   358.50650015
 C     26  25  24     2.613857316216   121.34369501   238.63852219
 C     20   1   2     2.659324755148   118.37250083   181.00717819
 C     19   3   2     2.660739807960   118.20041641   183.26109781
 C     23  13  12     2.660795376083   118.08211547   358.66331604
 O     25  24  21     2.645329733207   109.83286586   309.44106191
 O     17   8   7     2.659938329837   112.37770542   186.48081792
 O     18   9   8     2.656787494848   114.33661207   298.97870409
 O     30  29  26     2.597775186202   125.66016173   178.57885455
 O     31  30  29     2.587643094421   119.73112297   179.52410321
 C     40  30  29     2.661923099668   118.20729875     6.29906656
 H      4   3   2     2.036555699233   120.29956419   180.55182777
 H      6   5   4     2.036526326957   119.16061954   180.50062657
 H      7   5   4     2.062070099149   108.64976574   316.53276860
 H      7   5   4     2.059865397741   110.40845380   197.53785363
 H      8   7   5     2.072976621558   107.95049377   319.08286046
 H      9   8   7     2.072720591071   105.96082055   197.12261152
 H     10   9   8     2.068287604231   108.40723060   175.06960205
 H     10   9   8     2.062931911628   109.31686090   291.59712292
 H     12  11  10     2.035737218845   119.23101345   358.67146202
 H     15  14  13     2.038129830813   118.65509347   179.92270290
 H     16  11  10     2.041402937975   119.77906285     1.10191606
 H     17   8   7     2.074502912331   108.46825888   309.23120688
 H     17   8   7     2.062662406269   110.35138402    67.92146088
 H     18   9   8     2.062810140828   110.98834780    58.15838383
 H     18   9   8     2.082557969288   108.29142687   176.24138360
 H     22  14  13     1.827679003195   107.55803258     0.58283307
 H     24  21   2     2.067610886321   110.20207106    55.26298409
 H     25  24  21     2.074444462677   108.18196499   193.95014626
 H     27  24  21     2.063029991307   110.02087197   180.77747689
 H     27  24  21     2.076112531683   108.49739926    61.49189757
 H     28  27  24     1.824905214815   106.81932093    49.43555680
 H     29  26  25     2.037333379747   119.27794666     3.24857525
 H     32  31  30     2.037406285636   119.10309668   183.59927265
 H     33  26  25     2.037696038855   119.49366151   356.84551465
 H     34  20   1     2.057599518312   105.58250303   178.44226453
 H     34  20   1     2.067179345141   111.50173655   297.07753551
 H     34  20   1     2.068340477476   111.47900181    59.74718499
 H     35  19   3     2.067813716524   111.36101622    60.65015961
 H     35  19   3     2.058774318754   105.52427413   178.89723902
 H     35  19   3     2.068590143827   111.69777114   298.10715111
 H     36  23  13     2.067318068576   111.29694821    63.18530448
 H     36  23  13     2.057462775725   105.59028026   181.67153059
 H     36  23  13     2.067087494990   111.37217984   300.41928516
 H     37  25  24     1.839424981917   107.34322209    46.59538732
 H     38  17   8     1.832706973873   107.82224531    64.95013879
 H     39  18   9     1.822727158149   108.38237585   305.87316725
 H     41  31  30     1.830269086192   107.29405739     1.88784224
 H     42  40  30     2.057238249252   105.38918998   181.49972489
 H     42  40  30     2.065533521963   111.54808603   300.07576832
 H     42  40  30     2.067919392976   111.08438772    62.42441641

---------------------
BASIS SET INFORMATION
---------------------
There are 3 groups of distinct atoms

 Group   1 Type C   : 11s6p2d1f contracted to 5s3p2d1f pattern {62111/411/11/1}
 Group   2 Type O   : 11s6p2d1f contracted to 5s3p2d1f pattern {62111/411/11/1}
 Group   3 Type H   : 5s1p contracted to 3s1p pattern {311/1}

Atom   0C    basis set group =>   1
Atom   1C    basis set group =>   1
Atom   2C    basis set group =>   1
Atom   3C    basis set group =>   1
Atom   4C    basis set group =>   1
Atom   5C    basis set group =>   1
Atom   6C    basis set group =>   1
Atom   7C    basis set group =>   1
Atom   8C    basis set group =>   1
Atom   9C    basis set group =>   1
Atom  10C    basis set group =>   1
Atom  11C    basis set group =>   1
Atom  12C    basis set group =>   1
Atom  13C    basis set group =>   1
Atom  14C    basis set group =>   1
Atom  15C    basis set group =>   1
Atom  16C    basis set group =>   1
Atom  17C    basis set group =>   1
Atom  18O    basis set group =>   2
Atom  19O    basis set group =>   2
Atom  20O    basis set group =>   2
Atom  21O    basis set group =>   2
Atom  22O    basis set group =>   2
Atom  23C    basis set group =>   1
Atom  24C    basis set group =>   1
Atom  25C    basis set group =>   1
Atom  26C    basis set group =>   1
Atom  27O    basis set group =>   2
Atom  28C    basis set group =>   1
Atom  29C    basis set group =>   1
Atom  30C    basis set group =>   1
Atom  31C    basis set group =>   1
Atom  32C    basis set group =>   1
Atom  33C    basis set group =>   1
Atom  34C    basis set group =>   1
Atom  35C    basis set group =>   1
Atom  36O    basis set group =>   2
Atom  37O    basis set group =>   2
Atom  38O    basis set group =>   2
Atom  39O    basis set group =>   2
Atom  40O    basis set group =>   2
Atom  41C    basis set group =>   1
Atom  42H    basis set group =>   3
Atom  43H    basis set group =>   3
Atom  44H    basis set group =>   3
Atom  45H    basis set group =>   3
Atom  46H    basis set group =>   3
Atom  47H    basis set group =>   3
Atom  48H    basis set group =>   3
Atom  49H    basis set group =>   3
Atom  50H    basis set group =>   3
Atom  51H    basis set group =>   3
Atom  52H    basis set group =>   3
Atom  53H    basis set group =>   3
Atom  54H    basis set group =>   3
Atom  55H    basis set group =>   3
Atom  56H    basis set group =>   3
Atom  57H    basis set group =>   3
Atom  58H    basis set group =>   3
Atom  59H    basis set group =>   3
Atom  60H    basis set group =>   3
Atom  61H    basis set group =>   3
Atom  62H    basis set group =>   3
Atom  63H    basis set group =>   3
Atom  64H    basis set group =>   3
Atom  65H    basis set group =>   3
Atom  66H    basis set group =>   3
Atom  67H    basis set group =>   3
Atom  68H    basis set group =>   3
Atom  69H    basis set group =>   3
Atom  70H    basis set group =>   3
Atom  71H    basis set group =>   3
Atom  72H    basis set group =>   3
Atom  73H    basis set group =>   3
Atom  74H    basis set group =>   3
Atom  75H    basis set group =>   3
Atom  76H    basis set group =>   3
Atom  77H    basis set group =>   3
Atom  78H    basis set group =>   3
Atom  79H    basis set group =>   3
Atom  80H    basis set group =>   3
Atom  81H    basis set group =>   3
---------------------------------
AUXILIARY/J BASIS SET INFORMATION
---------------------------------
There are 3 groups of distinct atoms

 Group   1 Type C   : 12s5p4d2f1g contracted to 6s4p3d1f1g pattern {711111/2111/211/2/1}
 Group   2 Type O   : 12s5p4d2f1g contracted to 6s4p3d1f1g pattern {711111/2111/211/2/1}
 Group   3 Type H   : 5s2p1d contracted to 3s1p1d pattern {311/2/1}

Atom   0C    basis set group =>   1
Atom   1C    basis set group =>   1
Atom   2C    basis set group =>   1
Atom   3C    basis set group =>   1
Atom   4C    basis set group =>   1
Atom   5C    basis set group =>   1
Atom   6C    basis set group =>   1
Atom   7C    basis set group =>   1
Atom   8C    basis set group =>   1
Atom   9C    basis set group =>   1
Atom  10C    basis set group =>   1
Atom  11C    basis set group =>   1
Atom  12C    basis set group =>   1
Atom  13C    basis set group =>   1
Atom  14C    basis set group =>   1
Atom  15C    basis set group =>   1
Atom  16C    basis set group =>   1
Atom  17C    basis set group =>   1
Atom  18O    basis set group =>   2
Atom  19O    basis set group =>   2
Atom  20O    basis set group =>   2
Atom  21O    basis set group =>   2
Atom  22O    basis set group =>   2
Atom  23C    basis set group =>   1
Atom  24C    basis set group =>   1
Atom  25C    basis set group =>   1
Atom  26C    basis set group =>   1
Atom  27O    basis set group =>   2
Atom  28C    basis set group =>   1
Atom  29C    basis set group =>   1
Atom  30C    basis set group =>   1
Atom  31C    basis set group =>   1
Atom  32C    basis set group =>   1
Atom  33C    basis set group =>   1
Atom  34C    basis set group =>   1
Atom  35C    basis set group =>   1
Atom  36O    basis set group =>   2
Atom  37O    basis set group =>   2
Atom  38O    basis set group =>   2
Atom  39O    basis set group =>   2
Atom  40O    basis set group =>   2
Atom  41C    basis set group =>   1
Atom  42H    basis set group =>   3
Atom  43H    basis set group =>   3
Atom  44H    basis set group =>   3
Atom  45H    basis set group =>   3
Atom  46H    basis set group =>   3
Atom  47H    basis set group =>   3
Atom  48H    basis set group =>   3
Atom  49H    basis set group =>   3
Atom  50H    basis set group =>   3
Atom  51H    basis set group =>   3
Atom  52H    basis set group =>   3
Atom  53H    basis set group =>   3
Atom  54H    basis set group =>   3
Atom  55H    basis set group =>   3
Atom  56H    basis set group =>   3
Atom  57H    basis set group =>   3
Atom  58H    basis set group =>   3
Atom  59H    basis set group =>   3
Atom  60H    basis set group =>   3
Atom  61H    basis set group =>   3
Atom  62H    basis set group =>   3
Atom  63H    basis set group =>   3
Atom  64H    basis set group =>   3
Atom  65H    basis set group =>   3
Atom  66H    basis set group =>   3
Atom  67H    basis set group =>   3
Atom  68H    basis set group =>   3
Atom  69H    basis set group =>   3
Atom  70H    basis set group =>   3
Atom  71H    basis set group =>   3
Atom  72H    basis set group =>   3
Atom  73H    basis set group =>   3
Atom  74H    basis set group =>   3
Atom  75H    basis set group =>   3
Atom  76H    basis set group =>   3
Atom  77H    basis set group =>   3
Atom  78H    basis set group =>   3
Atom  79H    basis set group =>   3
Atom  80H    basis set group =>   3
Atom  81H    basis set group =>   3
--------------------------------------------------------------------------
WARNING: There is at least one non-excluded one OpenFabrics device found,
but there are no active ports detected (or Open MPI was unable to use
them).  This is most certainly not what you wanted.  Check your
cables, subnet manager configuration, etc.  The openib BTL will be
ignored for this job.

  Local host: c01b01n02
--------------------------------------------------------------------------
--------------------------------------------------------------------------
WARNING: There was an error initializing an OpenFabrics device.

  Local host:   c01b01n02
  Local device: mlx5_0
--------------------------------------------------------------------------
[c01b01n02:632125] 4 more processes have sent help message help-mpi-btl-openib.txt / no active ports found
[c01b01n02:632125] Set MCA parameter "orte_base_help_aggregate" to 0 to see all help / error messages
[c01b01n02:632125] 58 more processes have sent help message help-mpi-btl-openib.txt / error in device init


           ************************************************************
           *        Program running with 64 parallel MPI-processes    *
           *              working on a common directory               *
           ************************************************************
------------------------------------------------------------------------------
                             ORCA STARTUP CALCULATIONS
                           -- RI-GTO INTEGRALS CHOSEN --
------------------------------------------------------------------------------
------------------------------------------------------------------------------
                   ___                                                        
                  /   \      - P O W E R E D   B Y -                         
                 /     \                                                     
                 |  |  |   _    _      __       _____    __    __             
                 |  |  |  | |  | |    /  \     |  _  \  |  |  /  |          
                  \  \/   | |  | |   /    \    | | | |  |  | /  /          
                 / \  \   | |__| |  /  /\  \   | |_| |  |  |/  /          
                |  |  |   |  __  | /  /__\  \  |    /   |      \           
                |  |  |   | |  | | |   __   |  |    \   |  |\   \          
                \     /   | |  | | |  |  |  |  | |\  \  |  | \   \       
                 \___/    |_|  |_| |__|  |__|  |_| \__\ |__|  \__/        
                                                                              
                      - O R C A' S   B I G   F R I E N D -                    
                                      &                                       
                       - I N T E G R A L  F E E D E R -                       
                                                                              
 v1 FN, 2020, v2 2021, v3 2022-2024                                           
------------------------------------------------------------------------------


----------------------
SHARK INTEGRAL PACKAGE
----------------------

Number of atoms                             ...     82
Number of basis functions                   ...   1542
Number of shells                            ...    622
Maximum angular momentum                    ...      3
Integral batch strategy                     ... SHARK/LIBINT Hybrid
RI-J (if used) integral strategy            ... SPLIT-RIJ (Revised 2003 algorithm where possible)
Printlevel                                  ...      1
Contraction scheme used                     ... SEGMENTED contraction
Prescreening option                         ... SCHWARTZ
   Thresh                                   ... 2.500e-11
   Tcut                                     ... 2.500e-12
   Tpresel                                  ... 2.500e-12 
Coulomb Range Separation                    ... NOT USED
Exchange Range Separation                   ... NOT USED
Multipole approximations                    ... NOT USED
Finite Nucleus Model                        ... NOT USED
CABS basis                                  ... NOT available
Auxiliary Coulomb fitting basis             ... AVAILABLE
   # of basis functions in Aux-J            ...   2498
   # of shells in Aux-J                     ...    830
   Maximum angular momentum in Aux-J        ...      4
Auxiliary J/K fitting basis                 ... NOT available
Auxiliary Correlation fitting basis         ... NOT available
Auxiliary 'external' fitting basis          ... NOT available

Checking pre-screening integrals            ... done (  0.4 sec) Dimension = 622
   => SHARK Basis and OBASIS are compatible. Storing Pre-screening
Shell pair information
Shell pair cut-off parameter TPreSel        ...   2.5e-12
Total number of shell pairs                 ...    193753
Shell pairs after pre-screening             ...    117033
Total number of primitive shell pairs       ...    584784
Primitive shell pairs kept                  ...    220831
          la=0 lb=0:  32557 shell pairs
          la=1 lb=0:  34904 shell pairs
          la=1 lb=1:   9456 shell pairs
          la=2 lb=0:  15873 shell pairs
          la=2 lb=1:   8734 shell pairs
          la=2 lb=2:   2005 shell pairs
          la=3 lb=0:   7236 shell pairs
          la=3 lb=1:   4058 shell pairs
          la=3 lb=2:   1783 shell pairs
          la=3 lb=3:    427 shell pairs

Checking whether 4 symmetric matrices of dimension 1542 fit in memory
:Max Core in MB      =   6000.00
 MB in use           =    140.28
 MB left             =   5859.72
 MB needed           =     36.31
 Data fit in memory  = YES
Calculating RI/J V-Matrix + Cholesky decomp.... done (  6.1 sec)
Calculating Nuclear repulsion               ... done (  0.2 sec) ENN=   5786.753010011514 Eh

Diagonalization of the overlap matrix:
Smallest eigenvalue                        ... 3.185e-06
Time for diagonalization                   ...   24.041 sec
Threshold for overlap eigenvalues          ... 1.000e-07
Number of eigenvalues below threshold      ... 0
Time for construction of square roots      ...    2.458 sec
Total time needed                          ...   26.985 sec

-------------------
DFT GRID GENERATION
-------------------

General Integration Accuracy     IntAcc      ... 4.388
Radial Grid Type                 RadialGrid  ... OptM3 with GC (2021)
Angular Grid (max. ang.)         AngularGrid ... 4 (Lebedev-302)
Angular grid pruning method      GridPruning ... 4 (adaptive)
Weight generation scheme         WeightScheme... mBecke (2022)
Basis function cutoff            BFCut       ... 1.0000e-11
Integration weight cutoff        WCut        ... 1.0000e-14
Partially contracted basis set               ... off
Rotationally invariant grid construction     ... off
Angular grids for H and He will be reduced by one unit

Total number of grid points                  ...   373391
Total number of batches                      ...     5880
Average number of points per batch           ...       63
Average number of grid points per atom       ...     4554

--------------------
COSX GRID GENERATION
--------------------

GRIDX 1
-------
General Integration Accuracy     IntAcc      ... 3.816
Radial Grid Type                 RadialGrid  ... OptM3 with GC (2021)
Angular Grid (max. ang.)         AngularGrid ... 1 (Lebedev-50)
Angular grid pruning method      GridPruning ... 4 (adaptive)
Weight generation scheme         WeightScheme... mBecke (2022)
Basis function cutoff            BFCut       ... 1.0000e-11
Integration weight cutoff        WCut        ... 1.0000e-14
Partially contracted basis set               ... on
Rotationally invariant grid construction     ... off
Angular grids for H and He will be reduced by one unit

Total number of grid points                  ...    47208
Total number of batches                      ...      412
Average number of points per batch           ...      114
Average number of grid points per atom       ...      576
UseSFitting                                  ... on

GRIDX 2
-------
General Integration Accuracy     IntAcc      ... 4.020
Radial Grid Type                 RadialGrid  ... OptM3 with GC (2021)
Angular Grid (max. ang.)         AngularGrid ... 2 (Lebedev-110)
Angular grid pruning method      GridPruning ... 4 (adaptive)
Weight generation scheme         WeightScheme... mBecke (2022)
Basis function cutoff            BFCut       ... 1.0000e-11
Integration weight cutoff        WCut        ... 1.0000e-14
[...]
freq.     633.41  E(vib)   ...       0.09 
freq.     643.58  E(vib)   ...       0.09 
freq.     658.40  E(vib)   ...       0.08 
freq.     684.36  E(vib)   ...       0.07 
freq.     729.45  E(vib)   ...       0.06 
freq.     732.31  E(vib)   ...       0.06 
freq.     744.77  E(vib)   ...       0.06 
freq.     747.03  E(vib)   ...       0.06 
freq.     761.98  E(vib)   ...       0.06 
freq.     778.49  E(vib)   ...       0.05 
freq.     784.64  E(vib)   ...       0.05 
freq.     800.67  E(vib)   ...       0.05 
freq.     810.01  E(vib)   ...       0.05 
freq.     812.57  E(vib)   ...       0.05 
freq.     832.34  E(vib)   ...       0.04 
freq.     849.49  E(vib)   ...       0.04 
freq.     853.30  E(vib)   ...       0.04 
freq.     857.21  E(vib)   ...       0.04 
freq.     871.95  E(vib)   ...       0.04 
freq.     874.93  E(vib)   ...       0.04 
freq.     882.10  E(vib)   ...       0.04 
freq.     896.95  E(vib)   ...       0.03 
freq.     914.32  E(vib)   ...       0.03 
freq.     917.13  E(vib)   ...       0.03 
freq.     928.21  E(vib)   ...       0.03 
freq.     943.28  E(vib)   ...       0.03 
freq.     951.29  E(vib)   ...       0.03 
freq.     960.56  E(vib)   ...       0.03 
freq.     967.62  E(vib)   ...       0.03 
freq.     969.59  E(vib)   ...       0.03 
freq.     983.30  E(vib)   ...       0.02 
freq.    1001.04  E(vib)   ...       0.02 
freq.    1027.32  E(vib)   ...       0.02 
freq.    1028.09  E(vib)   ...       0.02 
freq.    1036.14  E(vib)   ...       0.02 
freq.    1046.62  E(vib)   ...       0.02 
freq.    1047.89  E(vib)   ...       0.02 
freq.    1056.41  E(vib)   ...       0.02 
freq.    1058.64  E(vib)   ...       0.02 
freq.    1064.69  E(vib)   ...       0.02 
freq.    1086.87  E(vib)   ...       0.02 
freq.    1093.36  E(vib)   ...       0.02 
freq.    1102.24  E(vib)   ...       0.02 
freq.    1113.62  E(vib)   ...       0.01 
freq.    1136.44  E(vib)   ...       0.01 
freq.    1141.15  E(vib)   ...       0.01 
freq.    1142.62  E(vib)   ...       0.01 
freq.    1145.70  E(vib)   ...       0.01 
freq.    1170.32  E(vib)   ...       0.01 
freq.    1171.34  E(vib)   ...       0.01 
freq.    1171.67  E(vib)   ...       0.01 
freq.    1173.02  E(vib)   ...       0.01 
freq.    1173.16  E(vib)   ...       0.01 
freq.    1173.46  E(vib)   ...       0.01 
freq.    1178.56  E(vib)   ...       0.01 
freq.    1179.79  E(vib)   ...       0.01 
freq.    1196.20  E(vib)   ...       0.01 
freq.    1202.78  E(vib)   ...       0.01 
freq.    1204.66  E(vib)   ...       0.01 
freq.    1208.16  E(vib)   ...       0.01 
freq.    1213.28  E(vib)   ...       0.01 
freq.    1221.55  E(vib)   ...       0.01 
freq.    1224.98  E(vib)   ...       0.01 
freq.    1227.98  E(vib)   ...       0.01 
freq.    1230.04  E(vib)   ...       0.01 
freq.    1243.54  E(vib)   ...       0.01 
freq.    1247.45  E(vib)   ...       0.01 
freq.    1251.64  E(vib)   ...       0.01 
freq.    1262.16  E(vib)   ...       0.01 
freq.    1274.29  E(vib)   ...       0.01 
freq.    1276.97  E(vib)   ...       0.01 
freq.    1287.35  E(vib)   ...       0.01 
freq.    1288.39  E(vib)   ...       0.01 
freq.    1295.02  E(vib)   ...       0.01 
freq.    1309.03  E(vib)   ...       0.01 
freq.    1311.05  E(vib)   ...       0.01 
freq.    1320.60  E(vib)   ...       0.01 
freq.    1329.89  E(vib)   ...       0.01 
freq.    1343.61  E(vib)   ...       0.01 
freq.    1346.42  E(vib)   ...       0.01 
freq.    1347.88  E(vib)   ...       0.01 
freq.    1357.51  E(vib)   ...       0.01 
freq.    1366.52  E(vib)   ...       0.01 
freq.    1371.03  E(vib)   ...       0.01 
freq.    1378.37  E(vib)   ...       0.01 
freq.    1385.29  E(vib)   ...       0.00 
freq.    1392.32  E(vib)   ...       0.00 
freq.    1397.70  E(vib)   ...       0.00 
freq.    1401.74  E(vib)   ...       0.00 
freq.    1403.47  E(vib)   ...       0.00 
freq.    1407.98  E(vib)   ...       0.00 
freq.    1424.99  E(vib)   ...       0.00 
freq.    1426.42  E(vib)   ...       0.00 
freq.    1429.50  E(vib)   ...       0.00 
freq.    1440.44  E(vib)   ...       0.00 
freq.    1453.54  E(vib)   ...       0.00 
freq.    1455.26  E(vib)   ...       0.00 
freq.    1459.59  E(vib)   ...       0.00 
freq.    1477.66  E(vib)   ...       0.00 
freq.    1477.92  E(vib)   ...       0.00 
freq.    1479.45  E(vib)   ...       0.00 
freq.    1480.51  E(vib)   ...       0.00 
freq.    1481.22  E(vib)   ...       0.00 
freq.    1482.04  E(vib)   ...       0.00 
freq.    1483.62  E(vib)   ...       0.00 
freq.    1485.66  E(vib)   ...       0.00 
freq.    1487.86  E(vib)   ...       0.00 
freq.    1489.64  E(vib)   ...       0.00 
freq.    1490.04  E(vib)   ...       0.00 
freq.    1491.50  E(vib)   ...       0.00 
freq.    1491.58  E(vib)   ...       0.00 
freq.    1491.90  E(vib)   ...       0.00 
freq.    1499.12  E(vib)   ...       0.00 
freq.    1502.62  E(vib)   ...       0.00 
freq.    1507.05  E(vib)   ...       0.00 
freq.    1536.30  E(vib)   ...       0.00 
freq.    1542.24  E(vib)   ...       0.00 
freq.    1546.14  E(vib)   ...       0.00 
freq.    1628.24  E(vib)   ...       0.00 
freq.    1637.45  E(vib)   ...       0.00 
freq.    1642.93  E(vib)   ...       0.00 
freq.    1647.45  E(vib)   ...       0.00 
freq.    1648.92  E(vib)   ...       0.00 
freq.    1652.77  E(vib)   ...       0.00 
freq.    2994.26  E(vib)   ...       0.00 
freq.    3010.59  E(vib)   ...       0.00 
freq.    3020.03  E(vib)   ...       0.00 
freq.    3022.31  E(vib)   ...       0.00 
freq.    3022.80  E(vib)   ...       0.00 
freq.    3022.89  E(vib)   ...       0.00 
freq.    3023.65  E(vib)   ...       0.00 
freq.    3025.87  E(vib)   ...       0.00 
freq.    3026.31  E(vib)   ...       0.00 
freq.    3026.45  E(vib)   ...       0.00 
freq.    3027.74  E(vib)   ...       0.00 
freq.    3038.04  E(vib)   ...       0.00 
freq.    3053.73  E(vib)   ...       0.00 
freq.    3075.21  E(vib)   ...       0.00 
freq.    3077.02  E(vib)   ...       0.00 
freq.    3085.49  E(vib)   ...       0.00 
freq.    3088.15  E(vib)   ...       0.00 
freq.    3089.26  E(vib)   ...       0.00 
freq.    3090.89  E(vib)   ...       0.00 
freq.    3093.48  E(vib)   ...       0.00 
freq.    3102.38  E(vib)   ...       0.00 
freq.    3103.07  E(vib)   ...       0.00 
freq.    3140.16  E(vib)   ...       0.00 
freq.    3142.73  E(vib)   ...       0.00 
freq.    3143.13  E(vib)   ...       0.00 
freq.    3163.01  E(vib)   ...       0.00 
freq.    3171.08  E(vib)   ...       0.00 
freq.    3188.00  E(vib)   ...       0.00 
freq.    3188.36  E(vib)   ...       0.00 
freq.    3205.98  E(vib)   ...       0.00 
freq.    3208.32  E(vib)   ...       0.00 
freq.    3211.09  E(vib)   ...       0.00 
freq.    3213.36  E(vib)   ...       0.00 
freq.    3214.95  E(vib)   ...       0.00 
freq.    3597.66  E(vib)   ...       0.00 
freq.    3637.63  E(vib)   ...       0.00 
freq.    3708.99  E(vib)   ...       0.00 
freq.    3724.53  E(vib)   ...       0.00 
freq.    3761.79  E(vib)   ...       0.00 
freq.    3775.29  E(vib)   ...       0.00 

------------
INNER ENERGY
------------

The inner energy is: U= E(el) + E(ZPE) + E(vib) + E(rot) + E(trans)
    E(el)   - is the total energy from the electronic structure calculation
              = E(kin-el) + E(nuc-el) + E(el-el) + E(nuc-nuc)
    E(ZPE)  - the the zero temperature vibrational energy from the frequency calculation
    E(vib)  - the the finite temperature correction to E(ZPE) due to population
              of excited vibrational states
    E(rot)  - is the rotational thermal energy
    E(trans)- is the translational thermal energy

Summary of contributions to the inner energy U:
Electronic energy                ...  -2032.63908321 Eh
Zero point energy                ...      0.67965731 Eh     426.49 kcal/mol
Thermal vibrational correction   ...      0.04006492 Eh      25.14 kcal/mol
Thermal rotational correction    ...      0.00141627 Eh       0.89 kcal/mol
Thermal translational correction ...      0.00141627 Eh       0.89 kcal/mol
-----------------------------------------------------------------------
Total thermal energy                  -2031.91652844 Eh


Summary of corrections to the electronic energy:
(perhaps to be used in another calculation)
Total thermal correction                  0.04289746 Eh      26.92 kcal/mol
Non-thermal (ZPE) correction              0.67965731 Eh     426.49 kcal/mol
-----------------------------------------------------------------------
Total correction                          0.72255477 Eh     453.41 kcal/mol


--------
ENTHALPY
--------

The enthalpy is H = U + kB*T
                kB is Boltzmann's constant
Total thermal energy              ...  -2031.91652844 Eh 
Thermal Enthalpy correction       ...      0.00094421 Eh       0.59 kcal/mol
-----------------------------------------------------------------------
Total Enthalpy                    ...  -2031.91558423 Eh


Note: Only C1 symmetry has been detected, increase convergence thresholds 
      if your molecule has a higher symmetry. Symmetry factor of 1.0 is   
      used for the rotational entropy correction. 
 

Note: Rotational entropy computed according to Herzberg 
Infrared and Raman Spectra, Chapter V,1, Van Nostrand Reinhold, 1945 
Point Group:  C1, Symmetry Number:   1  
Rotational constants in cm-1:     0.003995     0.002244     0.001870 

Vibrational entropy computed according to the QRRHO of S. Grimme
Chem.Eur.J. 2012 18 9955 using a reference frequency of 100.0 cm-1


-------
ENTROPY
-------

The entropy contributions are T*S = T*(S(el)+S(vib)+S(rot)+S(trans))
     S(el)   - electronic entropy
     S(vib)  - vibrational entropy
     S(rot)  - rotational entropy
     S(trans)- translational entropy
The entropies will be listed as multiplied by the temperature to get
units of energy

Electronic entropy                ...      0.00000000 Eh      0.00 kcal/mol
Vibrational entropy               ...      0.07141348 Eh     44.81 kcal/mol
Rotational entropy                ...      0.01796317 Eh     11.27 kcal/mol
Translational entropy             ...      0.02138181 Eh     13.42 kcal/mol
-----------------------------------------------------------------------
Final entropy term                ...      0.11075847 Eh     69.50 kcal/mol

In case the symmetry of your molecule has not been determined correctly
or in case you have a reason to use a different symmetry number we print 
out the resulting rotational entropy values for sn=1,12:

 non-linear molecules -----------------------------------
|  sn= 1 | S(rot)=       0.01796317 Eh     11.27 kcal/mol|
|  sn= 2 | S(rot)=       0.01730871 Eh     10.86 kcal/mol|
|  sn= 3 | S(rot)=       0.01692588 Eh     10.62 kcal/mol|
|  sn= 4 | S(rot)=       0.01665426 Eh     10.45 kcal/mol|
|  sn= 5 | S(rot)=       0.01644357 Eh     10.32 kcal/mol|
|  sn= 6 | S(rot)=       0.01627142 Eh     10.21 kcal/mol|
|  sn= 7 | S(rot)=       0.01612588 Eh     10.12 kcal/mol|
|  sn= 8 | S(rot)=       0.01599980 Eh     10.04 kcal/mol|
|  sn= 9 | S(rot)=       0.01588859 Eh      9.97 kcal/mol|
|  sn=10 | S(rot)=       0.01578911 Eh      9.91 kcal/mol|
|  sn=11 | S(rot)=       0.01569912 Eh      9.85 kcal/mol|
|  sn=12 | S(rot)=       0.01561697 Eh      9.80 kcal/mol|
 linear molecules ---------------------------------------
|  Dinfh | S(rot)=       0.01125698 Eh      7.06 kcal/mol|
|  Cinfv | S(rot)=       0.01191144 Eh      7.47 kcal/mol|
 --------------------------------------------------------


-------------------
GIBBS FREE ENERGY
-------------------

The Gibbs free energy is G = H - T*S

Total enthalpy                    ...  -2031.91558423 Eh 
Total entropy correction          ...     -0.11075847 Eh    -69.50 kcal/mol
-----------------------------------------------------------------------
Final Gibbs free energy         ...  -2032.02634269 Eh

For completeness - the Gibbs free energy minus the electronic energy
G-E(el)                           ...      0.61274051 Eh    384.50 kcal/mol


Maximum memory used throughout the entire PROP-calculation: 1823.3 MB
--------------------------------------------------------------------------
WARNING: There was an error initializing an OpenFabrics device.

  Local host:   c01b01n02
  Local device: mlx5_0
--------------------------------------------------------------------------
--------------------------------------------------------------------------
WARNING: There is at least one non-excluded one OpenFabrics device found,
but there are no active ports detected (or Open MPI was unable to use
them).  This is most certainly not what you wanted.  Check your
cables, subnet manager configuration, etc.  The openib BTL will be
ignored for this job.

  Local host: c01b01n02
--------------------------------------------------------------------------
[c01b01n02:822371] 59 more processes have sent help message help-mpi-btl-openib.txt / error in device init
[c01b01n02:822371] Set MCA parameter "orte_base_help_aggregate" to 0 to see all help / error messages
[c01b01n02:822371] 3 more processes have sent help message help-mpi-btl-openib.txt / no active ports found

--------------------------------
SUGGESTED CITATIONS FOR THIS RUN
--------------------------------

Below you find a list of papers that are relevant to this ORCA run
We neither can nor want to force you to cite these papers, but we appreciate if you do
You receive ORCA, which is the product of decades of hard work by many enthusiastic individuals, for free
The only thing we kindly ask in return is that you cite our papers,
We deeply appreciate it, if you show your appreciation for ORCA by not just citing the generic ORCA reference.

Please note that relegating all ORCA citations to the supporting information does *not* help us.
SI sections are not indexed - citations you put there will not count into any citation statistics
But we need these citations in order to attract the funding resources that allow us to do what we are doing

Therefore, if you are a happy ORCA user, please consider citing a few of the papers listed below in the main body of your paper

In addition to the list printed below, the program has created the file opt-conf-0.bibtex that contains the list in bibtex format
You can import this file easily into all common literature databanks and citation aid programs


List of essential papers. We consider these as the minimum necessary citations

  1. Neese, F.
     Software update: the ORCA program system, version 6.0
     WIRES Comput. Molec. Sci. 2025 15(1), e70019
     doi.org/10.1002/wcms.7019

List of papers to cite with high priority. The work reported in these papers was absolutely
necessary for this run to complete.
Our perspective: the developers of density functionals and basis sets usually get cited in chemistry papers
Good! But without the algorithms to do something with them, the functionals or basis sets would not do anything.
Hence, in our opinion, the algorithm design and method developments papers are equally worthy of getting cited

  1. Neese, F.
     An improvement of the resolution of the identity approximation for the formation of the Coulomb matrix
     J. Comp. Chem. 2003 24(14), 1740-1747
     doi.org/10.1002/jcc.10318
  2. Neese, F.; Wennmohs, F.; Hansen, A.; Becker, U.
     Efficient, approximate and parallel Hartree-Fock and hybrid DFT calculations. A 'chain-of-spheres' algorithm for the Hartree-Fock exchange
     Chem. Phys. 2009 356(1-3), 98-109
     doi.org/10.1016/j.chemphys.2008.10.036
  3. Bykov, D.; Petrenko, T.; Izsak, R.; Kossmann, S.; Becker, U.; Valeev, E.; Neese, F.
     Efficient implementation of the analytic second derivatives of Hartree-Fock and hybrid DFT energies: a detailed analysis of different approximations
     Molec. Phys. 2015 113 , 1961-1977
     doi.org/10.1080/00268976.2015.1025114
  4. Caldeweyher, E.; Bannwarth, C.; Grimme, S.
     Extension of the D3 dispersion coefficient model
     J. Chem. Phys. 2017 147 , 034112
     doi.org/10.1063/1.4993215
  5. Caldeweyher, E.; Ehlert, S.; Hansen, A.; Neugebauer, H.; Spicher, S.; Bannwarth, C.; Grimme, S.
     A generally applicable atomic-charge dependent London dispersion correction
     J. Chem. Phys. 2019 150 , 154122
     doi.org/10.1063/1.5090222
  6. Garcia-Rates, M.; Neese, F.
     Efficient implementation of the analytical second derivatives of hartree-fock and hybrid DFT energies within the framework of the conductor-like polarizable continuum model
     J. Comput. Chem. 2019 40 , 1816-1828
     doi.org/10.1002/jcc.25833
  7. Caldeweyher, E.; Mewes, J.; Ehlert, S.; Grimme, S.
     Extension and evaluation of the D4 London-dispersion model for periodic systems
     Phys. Chem. Chem. Phys. 2020 22(16), 8499-8512
     doi.org/10.1039/D0CP00502A
  8. Garcia-Rates, M.; Neese, F.
     Effect of the Solute Cavity on the Solvation Energy and its Derivatives within the Framework of the Gaussian Charge Scheme
     J. Comput. Chem. 2020 41 , 922-939
     doi.org/10.1002/jcc.26139
  9. Helmich-Paris, B.; de Souza, B.; Neese, F.; Izsák, R.
     An improved chain of spheres for exchange algorithm
     J. Chem. Phys. 2021 155(10), 104109
     doi.org/10.1063/5.0058766
 10. Neese, F.
     The SHARK Integral Generation and Digestion System
     J. Comp. Chem. 2022 44(3), 381
     doi.org/10.1002/jcc.26942
 11. Wittmann, L.; Gordiy, I.; Friede, M.; Helmich-Paris, B.; Grimme, S.; Hansen, A.; Bursch, M.
     Extension of the D3 and D4 London Dispersion Corrections to the full Actinides Series
     Phys. Chem. Chem. Phys. 2024 26(32), 21379-21394
     doi.org/10.1039/D4CP01514B

List of suggested additional citations. These are papers that are important in the 'surrounding' of 
of this run, or papers that preceded the highly important papers. If you like your results we are grateful for a citation.

  1. Izsak, R.; Neese, F.
     An overlap fitted chain of spheres exchange method
     J. Chem. Phys. 2011 135 , 144105
     doi.org/10.1063/1.3646921
  2. Izsak, R.; Hansen, A.; Neese, F.
     The resolution of identity and chain of spheres approximations for the LPNO-CCSD singles Fock term
     Molec. Phys. 2012 110 , 2413-2417
     doi.org/10.1080/00268976.2012.687466
  3. Neese, F.
     The ORCA program system
     WIRES Comput. Molec. Sci. 2012 2(1), 73-78
     doi.org/10.1002/wcms.81
  4. Izsak, R.; Neese, F.; Klopper, W.
     Robust fitting techniques in the chain of spheres approximation to the Fock exchange: The role of the complementary space
     J. Chem. Phys. 2013 139 , 
     doi.org/10.1063/1.4819264
  5. Neese, F.
     Software update: the ORCA program system, version 4.0
     WIRES Comput. Molec. Sci. 2018 8(1), 1-6
     doi.org/10.1002/wcms.1327
  6. Neese, F.; Wennmohs, F.; Becker, U.; Riplinger, C.
     The ORCA quantum chemistry program package
     J. Chem. Phys. 2020 152(22), 224108
     doi.org/10.1063/5.0004608
  7. Neese, F.
     Software update: The ORCA program system—Version 5.0
     WIRES Comput. Molec. Sci. 2022 12(1), e1606
     doi.org/10.1002/wcms.1606

List of optional additional citations

  1. Neese, F.
     Approximate second-order SCF convergence for spin unrestricted wavefunctions
     Chem. Phys. Lett. 2000 325(1-3), 93-98
     doi.org/10.1016/s0009-2614(00)00662-x

Timings for individual modules:

Sum of individual times          ...    17915.614 sec (= 298.594 min)
Startup calculation              ...     1505.585 sec (=  25.093 min)   8.4 %
SCF iterations                   ...     9283.811 sec (= 154.730 min)  51.8 %
Property integrals               ...     1702.798 sec (=  28.380 min)   9.5 %
SCF Response                     ...     3697.131 sec (=  61.619 min)  20.6 %
Property calculations            ...      815.875 sec (=  13.598 min)   4.6 %
SCF Gradient evaluation          ...      904.292 sec (=  15.072 min)   5.0 %
Geometry relaxation              ...        6.122 sec (=   0.102 min)   0.0 %
                             ****ORCA TERMINATED NORMALLY****
TOTAL RUN TIME: 0 days 5 hours 4 minutes 10 seconds 848 msec
