
                                 *****************
                                 * O   R   C   A *
                                 *****************

                                            #,                                       
                                            ###                                      
                                            ####                                     
                                            #####                                    
                                            ######                                   
                                           ########,                                 
                                     ,,################,,,,,                         
                               ,,#################################,,                 
                          ,,##########################################,,             
                       ,#########################################, ''#####,          
                    ,#############################################,,   '####,        
                  ,##################################################,,,,####,       
                ,###########''''           ''''###############################       
              ,#####''   ,,,,##########,,,,          '''####'''          '####       
            ,##' ,,,,###########################,,,                        '##       
           ' ,,###''''                  '''############,,,                           
         ,,##''                                '''############,,,,        ,,,,,,###''
      ,#''                                            '''#######################'''  
     '                                                          ''''####''''         
             ,#######,   #######,   ,#######,      ##                                
            ,#'     '#,  ##    ##  ,#'     '#,    #''#        ,####,    ,#,          
            ##       ##  ##   ,#'  ##            #'  '#       #'       ,# #          
            ##       ##  #######   ##           ,######,      #####,      #          
            '#,     ,#'  ##    ##  '#,     ,#' ,#      #,     #,   #      #          
             '#######'   ##     ##  '#######'  #'      '#     '####' #    #          



                #########################################################
                #                        -***-                          #
                #          Department of theory and spectroscopy        #
                #                                                       #
                #                      Frank Neese                      #
                #                                                       #
                #     Directorship, Architecture, Infrastructure        #
                #                    SHARK, DRIVERS                     #
                #        Core code/Algorithms in most modules           #
                #                                                       #
                #        Max Planck Institute fuer Kohlenforschung      #
                #                Kaiser Wilhelm Platz 1                 #
                #                 D-45470 Muelheim/Ruhr                 #
                #                      Germany                          #
                #                                                       #
                #                  All rights reserved                  #
                #                        -***-                          #
                #########################################################


                         Program Version 6.1.0-f.0  -   RELEASE   -


 With contributions from (in alphabetic order):
[Max-Planck-Institut fuer Kohlenforschung]                               
  Daniel Aravena         : Magnetic Suceptibility                        
  Michael Atanasov       : Ab Initio Ligand Field Theory (pilot matlab implementation)
  Alexander A. Auer      : GIAO ZORA, VPT2 properties, NMR spectrum      
  Ute Becker             : All parallelization in ORCA, NUMFREQ, NUMCALC 
  Giovanni Bistoni       : ED, misc. LED, open-shell LED, HFLD           
  Dmytro Bykov           : pre 5.0 version of the SCF Hessian            
  Marcos Casanova-Páez   : Triplet and SCS-CIS(D). UHF-(DLPNO)-IP/EA/STEOM-CCSD. UHF-CVS-IP/STEOM-CCSD   
  Vijay G. Chilkuri      : MRCI spin determinant printing, contributions to CSF-ICE 
  Pauline Colinet        : FMM embedding                                 
  Dipayan Datta          : RHF DLPNO-CCSD density                        
  Achintya Kumar Dutta   : EOM-CC, STEOM-CC                              
  Nicolas Foglia         : Exact transition moments, OPA infrastructure, MCD improvements    
  Dmitry Ganyushin       : Spin-Orbit,Spin-Spin,Magnetic field MRCI      
  Miquel Garcia-Rates    : C-PCM and meta-GGA Hessian, CCSD/C-PCM, Gaussian charge scheme 
  Tiago L. C. Gouveia    : GS-ROHF, GS-ROCIS                             
  Yang Guo               : DLPNO-NEVPT2, F12-NEVPT2, CIM, IAO-localization        
  Andreas Hansen         : Spin unrestricted coupled pair/coupled cluster methods 
  Ingolf Harden          : AUTO-CI MPn and infrastructure                
  Benjamin Helmich-Paris : MC-RPA, TRAH-(SCF,CASSCF), AVAS, COSX integrals, SCF dyn. polar., MC-PDFT, srDFT 
  Lee Huntington         : MR-EOM, pCC                                   
  Robert Izsak           : Overlap fitted RIJCOSX, COSX-SCS-MP3, EOM     
  Riya Kayal             : Wick's Theorem for AUTO-CI, AUTO-CI UHF-CCSDT 
  Emily Kempfer          : AUTO-CI RHF CISDT and CCSDT, approximate NEVPT4
  Christian Kollmar      : KDIIS, OOCD, Brueckner-CCSD(T), CCSD density, CASPT2, CASPT2-K, improved NEVPT2 
  Axel Koslowski         : Symmetry handling                             
  Simone Kossmann        : meta-GGA functionals, TD-DFT gradient, OOMP2, (MP2 Hessian; deprecated post 5.0) 
  Lucas Lang             : DCDCAS, Hyperfine gauge corrections, ICE-SOC+SSC
  Marvin Lechner         : AUTO-CI (C++ implementation), FIC-MRCC        
  Spencer Leger          : CASSCF response                               
  Dagmar Lenk            : GEPOL surface, SMD, ORCA-2-JSON               
  Dimitrios Liakos       : Extrapolation schemes; Compound Job, Property file
  Dimitrios Manganas     : Further ROCIS development; embedding schemes. LFT, Crystal Embedding 
  Dimitrios Pantazis     : SARC Basis sets                               
  Anastasios Papadopoulos: AUTO-CI, single reference methods and gradients 
  Taras Petrenko         : pre 6.0 DFT Hessian and TD-DFT gradient,  ECA, NRVS 
  Petra Pikulova         : Analytic Raman intensities                    
  Peter Pinski           : DLPNO-MP2, DLPNO-MP2 Gradient                 
  Shashank Vittal Rao    : ES-AILFT, MagRelax                            
  Christoph Reimann      : Effective Core Potentials                     
  Marius Retegan         : Local ZFS, SOC                                
  Christoph Riplinger    : Optimizer, TS searches, QM/MM, DLPNO-CCSD(T), (RO)-DLPNO pert. Triples 
  Michael Roemelt        : Original ROCIS implementation, recursive CI coupling coefficients
  Masaaki Saitow         : Open-shell DLPNO-CCSD energy and density      
  Barbara Sandhoefer     : DKH picture change effects                    
  Yorick L. A. Schmerwitz: GMF and freeze-and-release deltaSCF, NEB S-IDPP initial path                    
  Kantharuban Sivalingam : CASSCF convergence/infrastructure, NEVPT2, NEVPT3, NEVPT4(SD), FIC-MRCI and CEPA variants
  Bernardo de Souza      : ESD, SOC TD-DFT                               
  Georgi L. Stoychev     : AutoAux, RI-MP2 NMR, DLPNO-MP2 response, X2C  
  Van Anh Tran           : RI-MP2 g-tensors                              
  Willem Van den Heuvel  : Paramagnetic NMR                              
  Zikuan Wang            : NOTCH, Electric field optimization            
  Frank Wennmohs         : Technical directorship and infrastructure     
  Hang Xu                : AUTO-CI-Response properties                   
                                                                         
[FACCTs GmbH]                                                            
  Markus Bursch, Nicolas Foglia, Miquel Garcia-Rates, Ingolf Harden, Hagen Neugebauer, Anastasios Papadopoulos, 
  Christoph Riplinger, Bernardo de Souza, Georgi L. Stoychev                                                    
                                                                 
  APM, various basis sets, CI-OPT, improved COSX, DLPNO-Multilevel,           
  DOCKER, DRACO, updates on ESD, Fragmentator, GOAT, IRC, LR-CPCM, L-BFGS, MBIS, meta-GGA TD-DFT gradient, ML-optimized integration grids, 
  MM, NACMEs, nearIR, NEB, NEB-TS, NL-DFT gradient (VV10), 2- and 3-layer-ONIOM, interface openCOSMO-RS, QMMM,   
  Crystal-QMMM, RESP, rigid body optimization, SF, symmetry and pop. for TD-DFT, various functionals, SOLVATOR                                   
                                                                         
[Other institutions]                                                     
  V. Asgeirsson          : NEB                                           
  Christoph Bannwarth    : sTDA-DFT, sTD-DFT, PBEh-3c, B97-3c, D3        
  Giovanni Bistoni       : ETS/NOCV, ADLD/ADEX, COVALED                  
  Martin Brehm           : Molecular dynamics                            
  Ronald Cardenas        : ETS/NOCV                                      
  Martina Colucci        : COVALED                                       
  Sebastian Ehlert       : rSCAN, r2SCAN, r2SCAN-3c, D4, dhf basis sets  
  Marvin Friede          : D4 for Fr, Ra, Ac-Lr                          
  Lars Goerigk           : TD-DFT with DH, B97 family of functionals     
  Stefan Grimme          : VdW corrections, initial TS optimization, DFT functionals, gCP, sTDA/sTD-DF 
  Waldemar Hujo          : DFT-NL                                        
  H. Jonsson             : NEB                                           
  Holger Kruse           : gCP                                           
  Marcel Mueller         : wB97X-3c, vDZP basis set                      
  Hagen Neugebauer       : wr2SCAN, Native XTB                           
  Gianluca Regni         : ADLD/ADEX                                     
  Tobias Risthaus        : pre 6.0 range-separated hybrid DFT and stability analysis
  Lukas Wittmann         : regularized MP2, r2SCAN double-hybrids, wr2SCAN        
                                                                         
We gratefully acknowledge several colleagues who have allowed us to      
interface, adapt or use parts of their codes:                            
  Ed Valeev, F. Pavosevic, A. Kumar             : LibInt (2-el integral package), F12 methods 
  Garnet Chan, S. Sharma, J. Yang, R. Olivares  : DMRG                   
  Ulf Ekstrom                                   : XCFun DFT Library      
  Mihaly Kallay                                 : mrcc  (arbitrary order and MRCC methods)
  Frank Weinhold                                : gennbo (NPA and NBO analysis)           
  Simon Mueller                                 : openCOSMO-RS                            
  Christopher J. Cramer and Donald G. Truhlar   : smd solvation model                     
  S Lehtola, MJT Oliveira, MAL Marques          : LibXC Library                           
  Liviu Ungur et al                             : ANISO software                          


 Your calculation uses the libint2 library for the computation of 2-el integrals
 For citations please refer to: http://libint.valeyev.net

 Your ORCA version has been built with support for libXC version: 7.0.0
 For citations please refer to: https://libxc.gitlab.io

 This ORCA versions uses:
   CBLAS   interface :  Fast vector & matrix operations
   LAPACKE interface :  Fast linear algebra routines
   SCALAPACK package :  Parallel linear algebra routines
   Shared memory     :  Shared parallel matrices
   BLAS/LAPACK       :  OpenBLAS 0.3.29  USE64BITINT DYNAMIC_ARCH NO_AFFINITY Cooperlake SINGLE_THREADED
        Core in use  :  Cooperlake
   Copyright (c) 2011-2014, The OpenBLAS Project


  ***********************************
  * Starting time: Sat Feb 28 17:36:39 2026
  * Host name:     c01b01n01
  * Process ID:    150390
  * Working dir.:  /lustre1/jiangy/jiangy_liuxy/NMR/B9D7C2-SRSS
  ***********************************

NOTE: MaxCore=6000 MB was set to SCF,MP2,MDCI,CIPSI,MRCI,RASCI and CIS
      => If you want to overwrite this, your respective input block should be placed after the MaxCore statement


***************************************
The coordinates will be read from file: conf-14.xyz
***************************************


Your calculation utilizes the atom-pairwise dispersion correction
based on EEQ partial charges (D4)


Warning: RI is on but no J-basis has been assigned. Assigning Def2/J (nothing to worry about!)
================================================================================

----- Orbital basis set information -----
Your calculation utilizes the basis: def2-TZVP
   F. Weigend and R. Ahlrichs, Phys. Chem. Chem. Phys. 7, 3297 (2005).

----- AuxJ basis set information -----
Your calculation utilizes the auxiliary basis: def2/J
   H-Rn: F. Weigend, Phys. Chem. Chem. Phys. 8, 1057 (2006).
   Fr-Lr: K. Eichkorn, F. Weigend, O. Treutler, R. Ahlrichs; Theor. Chem. Acc. 97, 119 (1997).

================================================================================
                                        WARNINGS
                       Please study these warnings very carefully!
================================================================================


WARNING: Geometry Optimization
  ===> : Switching off AutoStart
         For restart on a previous wavefunction, please use MOREAD

================================================================================
                                       INPUT FILE
================================================================================
NAME = opt-conf-14.inp
|  1> ! B3LYP OPT FREQ DEF2-TZVP D4 CPCM(Methanol) 
|  2> ! TightOpt
|  3> %pal nprocs 64 end
|  4> %maxcore 6000
|  5> 
|  6> %cpcm
|  7> end
|  8> 
|  9> %freq
| 10>    Temp 298.15
| 11> end
| 12> 
| 13> * xyzfile 0 1 conf-14.xyz
| 14> 
| 15> 
| 16>                          ****END OF INPUT****
================================================================================

                       *****************************
                       * Geometry Optimization Run *
                       *****************************

Geometry optimization settings:
Update method            Update   .... BFGS
Choice of coordinates    CoordSys .... (2022) Redundant Internals
Initial Hessian          InHess   .... Almloef's Model
Max. no of cycles        MaxIter  .... 246

Convergence Tolerances:
Energy Change            TolE     ....  1.0000e-06 Eh
Max. Gradient            TolMAXG  ....  1.0000e-04 Eh/bohr
RMS Gradient             TolRMSG  ....  3.0000e-05 Eh/bohr
Max. Displacement        TolMAXD  ....  1.0000e-03 bohr
RMS Displacement         TolRMSD  ....  6.0000e-04 bohr
Strict Convergence                .... False

------------------------------------------------------------------------------
                        ORCA OPTIMIZATION COORDINATE SETUP
------------------------------------------------------------------------------

The optimization will be done in redundant internal coordinates (2022)
Making redundant internal coordinates   ...  (2022 redundants) done
Evaluating the initial hessian          ...  (Almloef) done
Evaluating the coordinates              ...  done
Calculating the B-matrix                .... done
Calculating the G-matrix                .... done
The number of degrees of freedom        ....  405

    -----------------------------------------------------------------
                    Redundant Internal Coordinates


    -----------------------------------------------------------------
         Definition                    Initial Value    Approx d2E/dq
    -----------------------------------------------------------------
      1. B(C   1,C   0)                  1.4028         0.596194   
      2. B(C   2,C   1)                  1.4003         0.601600   
      3. B(C   3,C   2)                  1.3881         0.629078   
      4. B(C   4,C   3)                  1.3862         0.633655   
      5. B(C   5,C   4)                  1.3857         0.634796   
      6. B(C   5,C   0)                  1.3869         0.632008   
      7. B(C   6,C   4)                  1.5028         0.412841   
      8. B(C   7,C   6)                  1.5364         0.364850   
      9. B(C   8,C   7)                  1.5378         0.363006   
     10. B(C   9,C   8)                  1.5362         0.365155   
     11. B(C  10,C   9)                  1.5031         0.412406   
     12. B(C  11,C  10)                  1.3934         0.617086   
     13. B(C  12,C  11)                  1.3816         0.644397   
     14. B(C  13,C  12)                  1.4049         0.591445   
     15. B(C  14,C  13)                  1.3822         0.643000   
     16. B(C  15,C  14)                  1.3861         0.633745   
     17. B(C  15,C  10)                  1.3858         0.634406   
     18. B(C  16,C   7)                  1.5359         0.365557   
     19. B(C  17,C   8)                  1.5347         0.367238   
     20. B(O  18,C   2)                  1.3684         0.605766   
     21. B(O  19,C   0)                  1.3665         0.609965   
     22. B(O  20,C   1)                  1.3773         0.586324   
     23. B(O  21,C  13)                  1.3621         0.620000   
     24. B(O  22,C  12)                  1.3793         0.582026   
     25. B(C  23,O  20)                  1.4171         0.506572   
     26. B(C  24,C  23)                  1.5524         0.344093   
     27. B(C  25,C  24)                  1.5157         0.393764   
     28. B(C  26,C  23)                  1.5359         0.365557   
     29. B(O  27,C  26)                  1.4041         0.531400   
     30. B(C  28,C  25)                  1.3929         0.618132   
     31. B(C  29,C  28)                  1.3813         0.645198   
     32. B(C  30,C  29)                  1.4031         0.595370   
     33. B(C  31,C  30)                  1.3810         0.645778   
     34. B(C  32,C  31)                  1.3845         0.637659   
     35. B(C  32,C  25)                  1.3834         0.640179   
     36. B(C  33,O  19)                  1.4069         0.525919   
     37. B(C  34,O  18)                  1.4088         0.522325   
     38. B(C  35,O  22)                  1.4078         0.524174   
     39. B(O  36,C  24)                  1.4002         0.539066   
     40. B(O  37,C  16)                  1.4046         0.530378   
     41. B(O  38,C  17)                  1.4086         0.522590   
     42. B(O  39,C  29)                  1.3751         0.591003   
     43. B(O  40,C  30)                  1.3697         0.602859   
     44. B(C  41,O  39)                  1.4080         0.523838   
     45. B(H  42,C   3)                  1.0775         0.376998   
     46. B(H  43,C   5)                  1.0778         0.376547   
     47. B(H  44,C   6)                  1.0906         0.359300   
     48. B(H  45,C   6)                  1.0904         0.359540   
     49. B(H  46,C   7)                  1.0965         0.351597   
     50. B(H  47,C   8)                  1.0968         0.351208   
     51. B(H  48,C   9)                  1.0940         0.354864   
     52. B(H  49,C   9)                  1.0917         0.357818   
     53. B(H  50,C  11)                  1.0772         0.377446   
     54. B(H  51,C  14)                  1.0786         0.375514   
     55. B(H  52,C  15)                  1.0804         0.373070   
     56. B(H  53,C  16)                  1.0983         0.349308   
     57. B(H  54,C  16)                  1.0934         0.355645   
     58. B(H  55,C  17)                  1.0985         0.349026   
     59. B(H  56,C  17)                  1.0919         0.357603   
     60. B(H  57,O  21)                  0.9671         0.506560   
     61. B(H  57,O  22)                  2.1119         0.010000   
     62. B(H  58,C  23)                  1.0966         0.351469   
     63. B(H  59,C  24)                  1.0976         0.350123   
     64. B(H  60,C  26)                  1.0918         0.357790   
     65. B(H  61,C  26)                  1.0975         0.350304   
     66. B(H  62,O  27)                  0.9641         0.512259   
     67. B(H  63,C  28)                  1.0784         0.375837   
     68. B(H  64,C  31)                  1.0781         0.376245   
     69. B(H  65,C  32)                  1.0782         0.376017   
     70. B(H  66,C  33)                  1.0940         0.354799   
     71. B(H  67,C  33)                  1.0947         0.353901   
     72. B(H  68,C  33)                  1.0888         0.361725   
     73. B(H  69,C  34)                  1.0941         0.354748   
     74. B(H  70,C  34)                  1.0897         0.360538   
     75. B(H  71,C  34)                  1.0944         0.354351   
     76. B(H  72,C  35)                  1.0940         0.354819   
     77. B(H  73,C  35)                  1.0888         0.361700   
     78. B(H  74,H  64)                  4.9106         0.010000   
     79. B(H  74,C  35)                  1.0939         0.354917   
     80. B(H  75,O  20)                  2.2400         0.010000   
     81. B(H  75,O  19)                  2.1013         0.010000   
     82. B(H  75,O  36)                  0.9726         0.496380   
     83. B(H  76,O  40)                  1.9507         0.013658   
     84. B(H  76,O  37)                  0.9706         0.500163   
     85. B(H  77,O  38)                  0.9640         0.512353   
     86. B(H  78,O  39)                  2.1001         0.010000   
     87. B(H  78,O  40)                  0.9686         0.503828   
     88. B(H  79,H  71)                  2.5087         0.010000   
     89. B(H  79,C  41)                  1.0933         0.355702   
     90. B(H  80,C  41)                  1.0943         0.354459   
     91. B(H  81,O  21)                  2.3768         0.010000   
     92. B(H  81,C  41)                  1.0887         0.361834   
     93. A(C   1,C   0,O  19)          114.6280         0.426957   
     94. A(C   5,C   0,O  19)          124.8931         0.431449   
     95. A(C   1,C   0,C   5)          120.4742         0.432510   
     96. A(C   0,C   1,O  20)          116.2628         0.423947   
     97. A(C   0,C   1,C   2)          119.2915         0.428697   
     98. A(C   2,C   1,O  20)          124.2956         0.424632   
     99. A(C   3,C   2,O  18)          123.5532         0.430554   
    100. A(C   1,C   2,C   3)          119.2542         0.432850   
    101. A(C   1,C   2,O  18)          117.1926         0.427119   
    102. A(C   4,C   3,H  42)          118.3778         0.356981   
    103. A(C   2,C   3,H  42)          120.3474         0.356541   
    104. A(C   2,C   3,C   4)          121.2674         0.436914   
    105. A(C   5,C   4,C   6)          121.4663         0.405408   
    106. A(C   3,C   4,C   6)          118.9129         0.405279   
    107. A(C   3,C   4,C   5)          119.6110         0.437628   
    108. A(C   4,C   5,H  43)          119.2335         0.357017   
    109. A(C   0,C   5,H  43)          120.7199         0.356750   
    110. A(C   0,C   5,C   4)          120.0465         0.437422   
    111. A(C   4,C   6,H  44)          108.6057         0.329582   
    112. A(C   7,C   6,H  45)          109.8010         0.322981   
    113. A(C   4,C   6,C   7)          110.8928         0.368131   
    114. A(H  44,C   6,H  45)          108.2201         0.290667   
    115. A(C   4,C   6,H  45)          110.3214         0.329618   
    116. A(C   7,C   6,H  44)          108.9373         0.322946   
    117. A(C   6,C   7,C  16)          110.6605         0.360551   
    118. A(C   8,C   7,C  16)          110.3355         0.360240   
    119. A(C  16,C   7,H  46)          106.6949         0.321903   
    120. A(C   8,C   7,H  46)          106.7993         0.321534   
    121. A(C   6,C   7,H  46)          107.8326         0.321801   
    122. A(C   6,C   7,C   8)          114.1415         0.360121   
    123. A(C   7,C   8,C  17)          113.6035         0.360522   
    124. A(C  17,C   8,H  47)          107.0326         0.322087   
    125. A(C   7,C   8,C   9)          112.0009         0.360172   
    126. A(C   9,C   8,H  47)          108.5786         0.321787   
    127. A(C   7,C   8,H  47)          105.9461         0.321476   
    128. A(C   9,C   8,C  17)          109.3941         0.360885   
    129. A(H  48,C   9,H  49)          107.0854         0.289882   
    130. A(C  10,C   9,H  48)          109.3446         0.328849   
    131. A(C  10,C   9,H  49)          109.0991         0.329299   
    132. A(C   8,C   9,C  10)          114.0841         0.368117   
    133. A(C   8,C   9,H  48)          107.7548         0.322333   
    134. A(C   8,C   9,H  49)          109.2391         0.322771   
    135. A(C   9,C  10,C  11)          120.5518         0.403313   
    136. A(C  11,C  10,C  15)          118.6689         0.435495   
    137. A(C   9,C  10,C  15)          120.7736         0.405288   
    138. A(C  10,C  11,C  12)          120.7663         0.436723   
    139. A(C  10,C  11,H  50)          119.3146         0.355450   
    140. A(C  12,C  11,H  50)          119.9189         0.358074   
    141. A(C  11,C  12,C  13)          119.9895         0.433398   
    142. A(C  13,C  12,O  22)          114.5338         0.422785   
    143. A(C  11,C  12,O  22)          125.4767         0.429326   
    144. A(C  12,C  13,O  21)          120.2103         0.427594   
    145. A(C  12,C  13,C  14)          119.2626         0.433229   
    146. A(C  14,C  13,O  21)          120.5270         0.434060   
    147. A(C  13,C  14,H  51)          118.6622         0.357630   
    148. A(C  13,C  14,C  15)          120.1416         0.438654   
    149. A(C  15,C  14,H  51)          121.1931         0.356750   
    150. A(C  14,C  15,H  52)          119.0971         0.356355   
    151. A(C  10,C  15,H  52)          119.7511         0.356418   
    152. A(C  10,C  15,C  14)          121.1383         0.437590   
    153. A(O  37,C  16,H  54)          105.8079         0.340939   
    154. A(C   7,C  16,H  54)          110.7165         0.322507   
    155. A(O  37,C  16,H  53)          110.9049         0.339916   
    156. A(C   7,C  16,H  53)          108.6958         0.321559   
    157. A(C   7,C  16,O  37)          112.3586         0.382114   
    158. A(H  53,C  16,H  54)          108.2718         0.288890   
    159. A(O  38,C  17,H  56)          105.1020         0.340409   
    160. A(C   8,C  17,O  38)          112.2115         0.381438   
    161. A(H  55,C  17,H  56)          108.4028         0.289102   
    162. A(C   8,C  17,H  56)          110.8750         0.323041   
    163. A(O  38,C  17,H  55)          110.0752         0.339031   
    164. A(C   8,C  17,H  55)          110.0146         0.321758   
    165. A(C   2,O  18,C  34)          118.0830         0.413782   
    166. A(C   0,O  19,C  33)          118.4659         0.414795   
    167. A(C   1,O  20,C  23)          118.5452         0.409166   
    168. A(C  13,O  21,H  57)          107.4926         0.368460   
    169. A(C  12,O  22,C  35)          118.0618         0.411114   
    170. A(C  26,C  23,H  58)          109.3039         0.321884   
    171. A(C  24,C  23,H  58)          110.0708         0.318716   
    172. A(O  20,C  23,H  58)          110.4800         0.337668   
    173. A(C  24,C  23,C  26)          110.3200         0.356975   
    174. A(O  20,C  23,C  26)          106.3628         0.379083   
    175. A(O  20,C  23,C  24)          110.2374         0.375137   
    176. A(C  23,C  24,O  36)          109.6046         0.379192   
    177. A(O  36,C  24,H  59)          106.4761         0.340973   
    178. A(C  25,C  24,H  59)          109.4021         0.325629   
    179. A(C  23,C  24,H  59)          107.5693         0.318517   
    180. A(C  25,C  24,O  36)          113.2252         0.388185   
    181. A(C  23,C  24,C  25)          110.3432         0.361521   
    182. A(C  28,C  25,C  32)          119.4014         0.436339   
    183. A(C  24,C  25,C  32)          121.2610         0.402637   
    184. A(C  24,C  25,C  28)          119.3366         0.400159   
    185. A(O  27,C  26,H  61)          111.5629         0.340187   
    186. A(H  60,C  26,H  61)          108.8732         0.289291   
    187. A(C  23,C  26,H  61)          108.4363         0.321709   
    188. A(O  27,C  26,H  60)          106.3000         0.341392   
    189. A(C  23,C  26,H  60)          109.4240         0.322825   
    190. A(C  23,C  26,O  27)          112.1744         0.382242   
    191. A(C  26,O  27,H  62)          108.8380         0.359559   
    192. A(C  29,C  28,H  63)          120.3315         0.357890   
    193. A(C  25,C  28,H  63)          119.2649         0.355294   
    194. A(C  25,C  28,C  29)          120.4037         0.436954   
    195. A(C  30,C  29,O  39)          114.6319         0.424445   
    196. A(C  28,C  29,O  39)          125.7356         0.430603   
    197. A(C  28,C  29,C  30)          119.6322         0.434012   
    198. A(C  31,C  30,O  40)          120.4539         0.432212   
    199. A(C  29,C  30,O  40)          119.7499         0.425956   
    200. A(C  29,C  30,C  31)          119.7890         0.434082   
    201. A(C  32,C  31,H  64)          120.8326         0.357241   
    202. A(C  30,C  31,H  64)          119.1093         0.358011   
    203. A(C  30,C  31,C  32)          120.0542         0.439483   
    204. A(C  31,C  32,H  65)          119.9552         0.357205   
    205. A(C  25,C  32,H  65)          119.4425         0.357444   
    206. A(C  25,C  32,C  31)          120.5942         0.438793   
    207. A(H  67,C  33,H  68)          109.3534         0.290253   
    208. A(H  66,C  33,H  68)          109.3160         0.290368   
    209. A(O  19,C  33,H  68)          105.5660         0.341424   
    210. A(H  66,C  33,H  67)          109.4713         0.289374   
    211. A(O  19,C  33,H  67)          111.5073         0.340178   
    212. A(O  19,C  33,H  66)          111.5285         0.340322   
    213. A(H  69,C  34,H  71)          109.3621         0.289425   
    214. A(O  18,C  34,H  71)          111.7056         0.339861   
    215. A(H  69,C  34,H  70)          109.0268         0.290212   
    216. A(O  18,C  34,H  70)          105.6044         0.340846   
    217. A(O  18,C  34,H  69)          111.3746         0.339924   
    218. A(H  70,C  34,H  71)          109.6733         0.290161   
    219. A(H  73,C  35,H  74)          109.4823         0.290380   
    220. A(H  72,C  35,H  74)          109.7004         0.289507   
    221. A(O  22,C  35,H  74)          111.3728         0.340152   
    222. A(H  72,C  35,H  73)          109.2851         0.290368   
    223. A(O  22,C  35,H  73)          105.5979         0.341231   
    224. A(O  22,C  35,H  72)          111.3015         0.340136   
    225. A(C  24,O  36,H  75)          107.4297         0.358510   
    226. A(C  16,O  37,H  76)          108.0197         0.357982   
    227. A(C  17,O  38,H  77)          108.4146         0.358548   
    228. A(C  29,O  39,C  41)          118.2683         0.412184   
    229. A(C  30,O  40,H  78)          107.3716         0.366353   
    230. A(H  80,C  41,H  81)          109.9932         0.290338   
    231. A(H  79,C  41,H  81)          109.3361         0.290498   
    232. A(O  39,C  41,H  81)          105.3671         0.341215   
    233. A(H  79,C  41,H  80)          109.4226         0.289561   
    234. A(O  39,C  41,H  80)          111.1306         0.340042   
    235. A(O  39,C  41,H  79)          111.5130         0.340241   
    236. D(O  20,C   1,C   0,O  19)     -7.2399         0.024487   
    237. D(C   2,C   1,C   0,O  19)    177.0213         0.024487   
    238. D(C   2,C   1,C   0,C   5)     -2.2246         0.024487   
    239. D(O  20,C   1,C   0,C   5)    173.5142         0.024487   
    240. D(O  18,C   2,C   1,C   0)   -179.3939         0.024957   
    241. D(C   3,C   2,C   1,C   0)      0.6800         0.024957   
    242. D(C   3,C   2,C   1,O  20)   -174.6937         0.024957   
    243. D(O  18,C   2,C   1,O  20)      5.2324         0.024957   
    244. D(C   4,C   3,C   2,C   1)      1.4600         0.027434   
    245. D(H  42,C   3,C   2,O  18)      0.5354         0.027434   
    246. D(C   4,C   3,C   2,O  18)   -178.4611         0.027434   
    247. D(H  42,C   3,C   2,C   1)   -179.5434         0.027434   
    248. D(C   6,C   4,C   3,H  42)      0.0476         0.027860   
    249. D(C   5,C   4,C   3,H  42)    178.9209         0.027860   
    250. D(C   5,C   4,C   3,C   2)     -2.0634         0.027860   
    251. D(C   6,C   4,C   3,C   2)    179.0633         0.027860   
    252. D(H  43,C   5,C   4,C   6)     -0.5843         0.027967   
    253. D(H  43,C   5,C   4,C   3)   -179.4280         0.027967   
    254. D(C   0,C   5,C   4,C   3)      0.4937         0.027967   
    255. D(C   4,C   5,C   0,O  19)   -177.5227         0.027706   
    256. D(H  43,C   5,C   0,C   1)   -178.4380         0.027706   
    257. D(H  43,C   5,C   0,O  19)      2.3978         0.027706   
    258. D(C   0,C   5,C   4,C   6)    179.3374         0.027967   
    259. D(C   4,C   5,C   0,C   1)      1.6415         0.027706   
    260. D(H  45,C   6,C   4,C   3)   -163.1726         0.012617   
    261. D(H  44,C   6,C   4,C   5)    136.4316         0.012617   
    262. D(H  44,C   6,C   4,C   3)    -44.7168         0.012617   
    263. D(C   7,C   6,C   4,C   5)   -103.8964         0.012617   
    264. D(C   7,C   6,C   4,C   3)     74.9552         0.012617   
    265. D(C   8,C   7,C   6,H  44)    -37.5555         0.010660   
    266. D(C   8,C   7,C   6,C   4)   -157.0289         0.010660   
    267. D(C  16,C   7,C   6,H  45)    -44.3750         0.010660   
    268. D(C  16,C   7,C   6,H  44)   -162.7255         0.010660   
    269. D(C   8,C   7,C   6,H  45)     80.7951         0.010660   
    270. D(C  16,C   7,C   6,C   4)     77.8011         0.010660   
    271. D(C  17,C   8,C   7,H  46)   -165.2240         0.010560   
    272. D(C  17,C   8,C   7,C  16)     79.1867         0.010560   
    273. D(C  17,C   8,C   7,C   6)    -46.1552         0.010560   
    274. D(C   9,C   8,C   7,C  16)   -156.2446         0.010560   
    275. D(C   9,C   8,C   7,H  46)    -40.6552         0.010560   
    276. D(C   9,C   8,C   7,C   6)     78.4135         0.010560   
    277. D(H  48,C   9,C   8,C  17)    -55.2306         0.010677   
    278. D(H  48,C   9,C   8,C   7)    177.8944         0.010677   
    279. D(C  10,C   9,C   8,H  47)    -60.3552         0.010677   
    280. D(C  10,C   9,C   8,C  17)   -176.8385         0.010677   
    281. D(H  48,C   9,C   8,H  47)     61.2527         0.010677   
    282. D(C  10,C   9,C   8,C   7)     56.2864         0.010677   
    283. D(C  15,C  10,C   9,H  48)    110.1749         0.012591   
    284. D(C  15,C  10,C   9,C   8)   -129.0992         0.012591   
    285. D(C  11,C  10,C   9,H  49)    174.2394         0.012591   
    286. D(C  11,C  10,C   9,H  48)    -68.9479         0.012591   
    287. D(C  11,C  10,C   9,C   8)     51.7780         0.012591   
    288. D(H  50,C  11,C  10,C  15)    179.9833         0.026335   
    289. D(H  50,C  11,C  10,C   9)     -0.8756         0.026335   
    290. D(C  12,C  11,C  10,C  15)      0.1175         0.026335   
    291. D(C  12,C  11,C  10,C   9)    179.2586         0.026335   
    292. D(O  22,C  12,C  11,H  50)     -1.5496         0.028878   
    293. D(C  13,C  12,C  11,H  50)    178.4870         0.028878   
    294. D(O  22,C  12,C  11,C  10)    178.3154         0.028878   
    295. D(C  13,C  12,C  11,C  10)     -1.6480         0.028878   
    296. D(O  21,C  13,C  12,C  11)   -177.9665         0.024079   
    297. D(C  14,C  13,C  12,O  22)   -178.0773         0.024079   
    298. D(C  14,C  13,C  12,C  11)      1.8899         0.024079   
    299. D(O  21,C  13,C  12,O  22)      2.0662         0.024079   
    300. D(H  51,C  14,C  13,O  21)     -0.1320         0.028744   
    301. D(H  51,C  14,C  13,C  12)   -179.9881         0.028744   
    302. D(C  15,C  14,C  13,O  21)    179.2411         0.028744   
    303. D(C  15,C  14,C  13,C  12)     -0.6149         0.028744   
    304. D(H  52,C  15,C  14,H  51)     -0.2287         0.027869   
    305. D(H  52,C  15,C  14,C  13)   -179.5858         0.027869   
    306. D(C  10,C  15,C  14,H  51)    178.4280         0.027869   
    307. D(C  10,C  15,C  14,C  13)     -0.9291         0.027869   
    308. D(H  52,C  15,C  10,C  11)    179.8287         0.027931   
    309. D(H  52,C  15,C  10,C   9)      0.6897         0.027931   
    310. D(C  14,C  15,C  10,C  11)      1.1807         0.027931   
    311. D(C  14,C  15,C  10,C   9)   -177.9584         0.027931   
    312. D(H  53,C  16,C   7,H  46)     69.0743         0.010699   
    313. D(H  53,C  16,C   7,C   8)   -175.2708         0.010699   
    314. D(H  53,C  16,C   7,C   6)    -47.9765         0.010699   
    315. D(O  37,C  16,C   7,H  46)    -54.0536         0.010699   
    316. D(O  37,C  16,C   7,C   8)     61.6013         0.010699   
    317. D(O  37,C  16,C   7,C   6)   -171.1044         0.010699   
    318. D(H  55,C  17,C   8,H  47)     70.9342         0.010791   
    319. D(H  55,C  17,C   8,C   9)   -171.6067         0.010791   
    320. D(H  55,C  17,C   8,C   7)    -45.6449         0.010791   
    321. D(O  38,C  17,C   8,H  47)    -51.9766         0.010791   
    322. D(O  38,C  17,C   8,C   9)     65.4825         0.010791   
    323. D(O  38,C  17,C   8,C   7)   -168.5558         0.010791   
    324. D(C  34,O  18,C   2,C   3)      2.1539         0.026835   
    325. D(C  34,O  18,C   2,C   1)   -177.7688         0.026835   
    326. D(C  33,O  19,C   0,C   5)     -0.2404         0.030052   
    327. D(C  33,O  19,C   0,C   1)   -179.4481         0.030052   
    328. D(C  23,O  20,C   1,C   2)    -58.1160         0.027612   
    329. D(C  23,O  20,C   1,C   0)    126.3829         0.027612   
    330. D(H  57,O  21,C  13,C  14)   -179.0394         0.031127   
    331. D(H  57,O  21,C  13,C  12)      0.8153         0.031127   
    332. D(C  35,O  22,C  12,C  13)    178.4323         0.027182   
    333. D(C  35,O  22,C  12,C  11)     -1.5329         0.027182   
    334. D(H  58,C  23,O  20,C   1)     54.2637         0.022032   
    335. D(C  26,C  23,O  20,C   1)    172.7820         0.022032   
    336. D(C  24,C  23,O  20,C   1)    -67.6156         0.022032   
    337. D(O  36,C  24,C  23,H  58)   -172.1107         0.010000   
    338. D(O  36,C  24,C  23,C  26)     67.1849         0.010000   
    339. D(O  36,C  24,C  23,O  20)    -49.9895         0.010000   
    340. D(C  25,C  24,C  23,H  58)    -46.7644         0.010000   
    341. D(C  25,C  24,C  23,C  26)   -167.4688         0.010000   
    342. D(C  25,C  24,C  23,O  20)     75.3568         0.010000   
    343. D(C  32,C  25,C  24,O  36)      4.0185         0.011524   
    344. D(C  32,C  25,C  24,C  23)   -119.2462         0.011524   
    345. D(C  28,C  25,C  24,H  59)    -57.7682         0.011524   
    346. D(C  28,C  25,C  24,O  36)   -176.3454         0.011524   
    347. D(C  28,C  25,C  24,C  23)     60.3900         0.011524   
    348. D(H  60,C  26,C  23,H  58)   -161.0030         0.010699   
    349. D(H  60,C  26,C  23,C  24)    -39.8407         0.010699   
    350. D(H  60,C  26,C  23,O  20)     79.7079         0.010699   
    351. D(O  27,C  26,C  23,H  58)    -43.2866         0.010699   
    352. D(O  27,C  26,C  23,C  24)     77.8756         0.010699   
    353. D(O  27,C  26,C  23,O  20)   -162.5757         0.010699   
    354. D(H  62,O  27,C  26,H  61)    -57.6823         0.022430   
    355. D(H  62,O  27,C  26,H  60)   -176.2334         0.022430   
    356. D(H  62,O  27,C  26,C  23)     64.2064         0.022430   
    357. D(H  63,C  28,C  25,C  32)   -176.3616         0.026430   
    358. D(H  63,C  28,C  25,C  24)      3.9954         0.026430   
    359. D(C  29,C  28,C  25,C  32)      3.6560         0.026430   
    360. D(C  29,C  28,C  25,C  24)   -175.9870         0.026430   
    361. D(C  30,C  29,C  28,H  63)    178.3568         0.028954   
    362. D(C  30,C  29,C  28,C  25)     -1.6610         0.028954   
    363. D(O  39,C  29,C  28,H  63)     -1.4292         0.028954   
    364. D(O  39,C  29,C  28,C  25)    178.5530         0.028954   
    365. D(O  40,C  30,C  29,O  39)     -0.8267         0.024416   
    366. D(O  40,C  30,C  29,C  28)    179.3644         0.024416   
    367. D(C  31,C  30,C  29,O  39)    178.1999         0.024416   
    368. D(C  31,C  30,C  29,C  28)     -1.6091         0.024416   
    369. D(H  64,C  31,C  30,O  40)      2.5889         0.029010   
    370. D(H  64,C  31,C  30,C  29)   -176.4307         0.029010   
    371. D(C  32,C  31,C  30,O  40)   -178.1154         0.029010   
    372. D(C  32,C  31,C  30,C  29)      2.8650         0.029010   
    373. D(H  65,C  32,C  31,H  64)     -0.5329         0.028237   
    374. D(H  65,C  32,C  31,C  30)   -179.8162         0.028237   
    375. D(C  25,C  32,C  31,H  64)    178.4277         0.028237   
    376. D(C  25,C  32,C  31,C  30)     -0.8556         0.028237   
    377. D(H  65,C  32,C  25,C  28)    176.5649         0.028475   
    378. D(H  65,C  32,C  25,C  24)     -3.7991         0.028475   
    379. D(C  31,C  32,C  25,C  28)     -2.4010         0.028475   
    380. D(C  31,C  32,C  25,C  24)    177.2350         0.028475   
    381. D(H  68,C  33,O  19,C   0)    178.8553         0.023828   
    382. D(H  67,C  33,O  19,C   0)     60.2008         0.023828   
    383. D(H  66,C  33,O  19,C   0)    -62.5238         0.023828   
    384. D(H  71,C  34,O  18,C   2)    -61.3832         0.021638   
    385. D(H  70,C  34,O  18,C   2)    179.4477         0.021638   
    386. D(H  69,C  34,O  18,C   2)     61.2317         0.021638   
    387. D(H  74,C  35,O  22,C  12)    -59.3433         0.023662   
    388. D(H  73,C  35,O  22,C  12)   -178.1000         0.023662   
    389. D(H  72,C  35,O  22,C  12)     63.4174         0.023662   
    390. D(H  75,O  36,C  24,H  59)    161.0383         0.023114   
    391. D(H  75,O  36,C  24,C  25)    -78.7043         0.023114   
    392. D(H  75,O  36,C  24,C  23)     44.9664         0.023114   
    393. D(H  76,O  37,C  16,H  54)   -176.4846         0.022340   
    394. D(H  76,O  37,C  16,H  53)    -59.2941         0.022340   
    395. D(H  76,O  37,C  16,C   7)     62.5855         0.022340   
    396. D(H  77,O  38,C  17,H  56)   -179.3627         0.021661   
    397. D(H  77,O  38,C  17,H  55)    -62.8266         0.021661   
    398. D(H  77,O  38,C  17,C   8)     60.0501         0.021661   
    399. D(C  41,O  39,C  29,C  30)   -173.3922         0.028085   
    400. D(C  41,O  39,C  29,C  28)      6.4033         0.028085   
    401. D(H  78,O  40,C  30,C  31)   -177.1424         0.029305   
    402. D(H  78,O  40,C  30,C  29)      1.8776         0.029305   
    403. D(H  81,C  41,O  39,C  29)   -178.9547         0.023630   
    404. D(H  80,C  41,O  39,C  29)     61.9435         0.023630   
    405. D(H  79,C  41,O  39,C  29)    -60.4371         0.023630   
    -----------------------------------------------------------------

Number of atoms                         .... 82
Number of degrees of freedom            .... 405


         *************************************************************
         *                GEOMETRY OPTIMIZATION CYCLE   1            *
         *************************************************************
---------------------------------
CARTESIAN COORDINATES (ANGSTROEM)
---------------------------------
  C     10.571016   -7.815493   -2.064727
  C     11.183938   -8.993022   -2.518022
  C     10.510698  -10.212997   -2.379297
  C      9.245206  -10.228423   -1.809009
  C      8.624851   -9.057310   -1.402666
  C      9.293100   -7.849794   -1.526973
  C      7.245466   -9.133246   -0.811125
  C      7.294234   -9.678074    0.624637
  C      5.975005  -10.306235    1.104132
  C      5.775963  -11.723413    0.545638
  C      6.898266  -12.671299    0.863759
  C      7.341917  -12.829020    2.175173
  C      8.362906  -13.710307    2.474691
  C      8.942811  -14.485431    1.456492
  C      8.507217  -14.325639    0.154511
  C      7.500180  -13.418587   -0.136154
  C      7.752338   -8.586494    1.603208
  C      4.738081   -9.455057    0.786823
  O     11.153460  -11.336091   -2.824371
  O     11.337136   -6.690691   -2.188459
  O     12.392764   -8.842422   -3.160684
  O      9.921132  -15.385520    1.753203
  O      8.898696  -13.918405    3.728525
  C     13.504313   -9.588529   -2.695977
  C     13.929669   -9.096752   -1.286331
  C     12.957141   -9.598385   -0.237609
  C     14.636411   -9.353441   -3.706964
  O     15.652433  -10.316405   -3.598232
  C     12.786366  -10.970075   -0.065785
  C     11.846590  -11.451378    0.824736
  C     11.085422  -10.550231    1.584563
  C     11.304656   -9.192368    1.460746
  C     12.230869   -8.720093    0.546528
  C     10.805249   -5.465192   -1.747317
  C     10.474098  -12.567191   -2.737934
  C      8.395137  -13.155132    4.798920
  O     14.061751   -7.702849   -1.295106
  O      8.001976   -9.092557    2.889473
  O      3.587432   -9.918207    1.454448
  O     11.567676  -12.777311    1.059488
  O     10.143707  -11.024540    2.458841
  C     12.381293  -13.748702    0.445630
  H      8.714335  -11.158122   -1.687037
  H      8.808611   -6.944014   -1.200510
  H      6.640634   -9.803022   -1.423495
  H      6.776204   -8.148979   -0.816974
  H      8.052547  -10.469386    0.657936
  H      6.050484  -10.368551    2.196562
  H      4.841915  -12.116328    0.957925
  H      5.650606  -11.668904   -0.537501
  H      6.881561  -12.253149    2.960533
  H      8.958956  -14.925813   -0.619491
  H      7.168026  -13.312163   -1.158672
  H      8.647197   -8.099223    1.193303
  H      6.975191   -7.827472    1.727408
  H      4.927712   -8.404724    1.046727
  H      4.491337   -9.508152   -0.275500
  H     10.066010  -15.352933    2.708839
  H     13.262633  -10.657705   -2.664491
  H     14.928598   -9.502827   -1.081204
  H     15.106362   -8.388334   -3.507876
  H     14.203292   -9.336146   -4.715246
  H     15.288800  -11.179686   -3.826108
  H     13.395965  -11.652719   -0.636084
  H     10.754737   -8.512675    2.091478
  H     12.402910   -7.659774    0.453271
  H      9.911687   -5.187973   -2.314426
  H     10.565747   -5.492778   -0.679467
  H     11.586512   -4.727480   -1.922928
  H      9.555908  -12.558565   -3.332792
  H     11.157666  -13.308782   -3.150432
  H     10.232836  -12.824468   -1.701946
  H      7.337627  -13.370805    4.977921
  H      8.975599  -13.454092    5.670217
  H      8.528198  -12.083829    4.621937
  H     13.289632   -7.339977   -1.762191
  H      8.729293   -9.731931    2.824623
  H      3.750746   -9.881615    2.403818
  H     10.179965  -11.991886    2.426163
  H     12.343882  -13.672349   -0.644404
  H     13.419395  -13.662934    0.781004
  H     11.968451  -14.707658    0.754198

----------------------------
CARTESIAN COORDINATES (A.U.)
----------------------------
  NO LB      ZA    FRAG     MASS         X           Y           Z
   0 C     6.0000    0    12.011   19.976325  -14.769142   -3.901769
   1 C     6.0000    0    12.011   21.134580  -16.994349   -4.758373
   2 C     6.0000    0    12.011   19.862341  -19.299768   -4.496219
   3 C     6.0000    0    12.011   17.470908  -19.328917   -3.418531
   4 C     6.0000    0    12.011   16.298606  -17.115835   -2.650655
   5 C     6.0000    0    12.011   17.561414  -14.833961   -2.885561
   6 C     6.0000    0    12.011   13.691947  -17.259335   -1.532804
   7 C     6.0000    0    12.011   13.784104  -18.288908    1.180393
   8 C     6.0000    0    12.011   11.291124  -19.475961    2.086507
   9 C     6.0000    0    12.011   10.914988  -22.154040    1.031106
  10 C     6.0000    0    12.011   13.035834  -23.945284    1.632268
  11 C     6.0000    0    12.011   13.874212  -24.243335    4.110481
  12 C     6.0000    0    12.011   15.803601  -25.908725    4.676488
  13 C     6.0000    0    12.011   16.899463  -27.373497    2.752371
  14 C     6.0000    0    12.011   16.076311  -27.071535    0.291984
  15 C     6.0000    0    12.011   14.173287  -25.357455   -0.257293
  16 C     6.0000    0    12.011   14.649796  -16.226122    3.029623
  17 C     6.0000    0    12.011    8.953675  -17.867468    1.486880
  18 O     8.0000    0    15.999   21.076985  -21.422107   -5.337288
  19 O     8.0000    0    15.999   21.424082  -12.643573   -4.135589
  20 O     8.0000    0    15.999   23.418930  -16.709755   -5.972826
  21 O     8.0000    0    15.999   18.748222  -29.074419    3.313074
  22 O     8.0000    0    15.999   16.816098  -26.301973    7.045891
  23 C     6.0000    0    12.011   25.519453  -18.119693   -5.094658
  24 C     6.0000    0    12.011   26.323260  -17.190370   -2.430813
  25 C     6.0000    0    12.011   24.485448  -18.138318   -0.449017
  26 C     6.0000    0    12.011   27.658808  -17.675442   -7.005147
  27 O     8.0000    0    15.999   29.578812  -19.495180   -6.799674
  28 C     6.0000    0    12.011   24.162731  -20.730438   -0.124316
  29 C     6.0000    0    12.011   22.386810  -21.639969    1.558526
  30 C     6.0000    0    12.011   20.948411  -19.937047    2.994389
  31 C     6.0000    0    12.011   21.362703  -17.371058    2.760411
  32 C     6.0000    0    12.011   23.112992  -16.478588    1.032788
  33 C     6.0000    0    12.011   20.418962  -10.327716   -3.301951
  34 C     6.0000    0    12.011   19.793176  -23.748549   -5.173945
  35 C     6.0000    0    12.011   15.864510  -24.859597    9.068645
  36 O     8.0000    0    15.999   26.572859  -14.556275   -2.447396
  37 O     8.0000    0    15.999   15.121543  -17.182442    5.460312
  38 O     8.0000    0    15.999    6.779264  -18.742695    2.748508
  39 O     8.0000    0    15.999   21.859739  -24.145619    2.002142
  40 O     8.0000    0    15.999   19.168828  -20.833360    4.646536
  41 C     6.0000    0    12.011   23.397253  -25.981281    0.842119
  42 H     1.0000    0     1.008   16.467706  -21.085795   -3.188037
  43 H     1.0000    0     1.008   16.645862  -13.122285   -2.268636
  44 H     1.0000    0     1.008   12.548979  -18.525028   -2.690016
  45 H     1.0000    0     1.008   12.805170  -15.399339   -1.543857
  46 H     1.0000    0     1.008   15.217108  -19.784272    1.243318
  47 H     1.0000    0     1.008   11.433758  -19.593722    4.150900
  48 H     1.0000    0     1.008    9.149894  -22.896541    1.810216
  49 H     1.0000    0     1.008   10.678098  -22.051033   -1.015730
  50 H     1.0000    0     1.008   13.004266  -23.155096    5.594597
  51 H     1.0000    0     1.008   16.929974  -28.205699   -1.170669
  52 H     1.0000    0     1.008   13.545606  -25.156342   -2.189572
  53 H     1.0000    0     1.008   16.340834  -15.305314    2.255017
  54 H     1.0000    0     1.008   13.181201  -14.791778    3.264328
  55 H     1.0000    0     1.008    9.312025  -15.882627    1.978027
  56 H     1.0000    0     1.008    8.487396  -17.967803   -0.520620
  57 H     1.0000    0     1.008   19.022001  -29.012839    5.118964
  58 H     1.0000    0     1.008   25.062744  -20.140144   -5.035158
  59 H     1.0000    0     1.008   28.210961  -17.957740   -2.043180
  60 H     1.0000    0     1.008   28.546887  -15.851655   -6.628924
  61 H     1.0000    0     1.008   26.840331  -17.642758   -8.910523
  62 H     1.0000    0     1.008   28.891645  -21.126545   -7.230296
  63 H     1.0000    0     1.008   25.314705  -22.020447   -1.202024
  64 H     1.0000    0     1.008   20.323507  -16.086624    3.952321
  65 H     1.0000    0     1.008   23.438103  -14.474876    0.856558
  66 H     1.0000    0     1.008   18.730375   -9.803848   -4.373632
  67 H     1.0000    0     1.008   19.966367  -10.379846   -1.284006
  68 H     1.0000    0     1.008   21.895335   -8.933642   -3.633806
  69 H     1.0000    0     1.008   18.058049  -23.732249   -6.298063
  70 H     1.0000    0     1.008   21.084932  -25.149953   -5.953455
  71 H     1.0000    0     1.008   19.337258  -24.234733   -3.216211
  72 H     1.0000    0     1.008   13.866105  -25.267159    9.406908
  73 H     1.0000    0     1.008   16.961424  -25.424550   10.715157
  74 H     1.0000    0     1.008   16.115958  -22.835127    8.734196
  75 H     1.0000    0     1.008   25.113765  -13.870547   -3.330058
  76 H     1.0000    0     1.008   16.495973  -18.390685    5.337763
  77 H     1.0000    0     1.008    7.087884  -18.673547    4.542557
  78 H     1.0000    0     1.008   19.237346  -22.661380    4.584784
  79 H     1.0000    0     1.008   23.326556  -25.836994   -1.217747
  80 H     1.0000    0     1.008   25.358982  -25.819203    1.475884
  81 H     1.0000    0     1.008   22.617095  -27.793446    1.425229

--------------------------------
INTERNAL COORDINATES (ANGSTROEM)
--------------------------------
 C      0   0   0     0.000000000000     0.00000000     0.00000000
 C      1   0   0     1.402755913984     0.00000000     0.00000000
 C      2   1   0     1.400298581300   119.29149633     0.00000000
 C      3   2   1     1.388141020053   119.25418165     0.67997189
 C      4   3   2     1.386167508058   121.26744465     1.46004085
 C      5   4   3     1.385677757134   119.61095415   357.93663926
 C      5   4   3     1.502793809647   118.91286861   179.06332046
 C      7   5   4     1.536433107337   110.89278444    74.95518598
 C      8   7   5     1.537811893925   114.14154133   202.97109429
 C      9   8   7     1.536205527022   112.00091335    78.41354483
 C     10   9   8     1.503081018970   114.08413286    56.28644065
 C     11  10   9     1.393380142631   120.55180718    51.77797263
 C     12  11  10     1.381591734361   120.76629578   179.25858740
 C     13  12  11     1.404932662864   119.98953208   358.35196258
 C     14  13  12     1.382182432137   119.26262489     1.88994619
 C     11  10   9     1.385845108836   120.77361995   230.90082292
 C      8   7   5     1.535905705872   110.66048599    77.80107162
 C      9   8   7     1.534656773895   113.60350124   313.84477581
 O      3   2   1     1.368419960382   117.19261950   180.60609230
 O      1   2   3     1.366539771749   114.62796156   177.02130522
 O      2   1   3     1.377299761082   116.26278166   175.73878952
 O     14  13  12     1.362097607088   120.21025807   182.03346536
 O     13  12  11     1.379302712546   125.47669053   178.31540522
 C     21   2   1     1.417098725928   118.54518990   126.38294296
 C     24  21   2     1.552376974654   110.23735999   292.38442541
 C     25  24  21     1.515672261328   110.34315490    75.35684330
 C     24  21   2     1.535905484774   106.36281083   172.78201234
 O     27  24  21     1.404073663233   112.17436135   197.42428253
 C     26  25  24     1.392919022059   119.33656591    60.38995627
 C     29  26  25     1.381253480736   120.40366162   184.01301278
 C     30  29  26     1.403132003471   119.63215055   358.33904567
 C     31  30  29     1.381008864666   119.78898283   358.39092231
 C     26  25  24     1.383379260905   121.26103001   240.75378785
 C     20   1   2     1.406896223652   118.46594720   180.55193268
 C     19   3   2     1.408762491521   118.08295739   182.23122357
 C     23  13  12     1.407800657489   118.06180471   358.46711099
 O     25  24  21     1.400174910466   109.60457651   310.01052204
 O     17   8   7     1.404598014600   112.35861921   188.89559787
 O     18   9   8     1.408624801268   112.21145270   191.44424806
 O     30  29  26     1.375136096065   125.73561409   178.55297220
 O     31  30  29     1.369729297787   119.74989581   179.36437590
 C     40  30  29     1.407975430026   118.26828495     6.40326801
 H      4   3   2     1.077517046998   120.34742722   180.45656878
 H      6   5   4     1.077843058192   119.23354564   180.57199800
 H      7   5   4     1.090605154056   108.60573957   315.28315931
 H      7   5   4     1.090423547872   110.32141568   196.82738149
 H      8   7   5     1.096505044253   107.83257154   321.45324140
 H      9   8   7     1.096806103065   105.94605006   196.63157023
 H     10   9   8     1.093987080380   107.75478929   177.89436522
 H     10   9   8     1.091730608067   109.23906452   293.90166158
 H     12  11  10     1.077193494429   119.31464670   359.12436006
 H     15  14  13     1.078590453085   118.66223180   180.01194122
 H     16  11  10     1.080368193551   119.75106151     0.68966380
 H     17   8   7     1.098283007630   108.69584544   312.02349169
 H     17   8   7     1.093388678134   110.71649099    70.83004248
 H     18   9   8     1.098502932317   110.01464174   314.35511883
 H     18   9   8     1.091893961161   110.87495652    74.25624727
 H     22  14  13     0.967104915923   107.49257706     0.81529681
 H     24  21   2     1.096603658843   110.48000840    54.26370360
 H     25  24  21     1.097648478250   107.56933554   194.63338925
 H     27  24  21     1.091751477701   109.42401008    79.70790672
 H     27  24  21     1.097507663669   108.43628778   321.08090597
 H     28  27  24     0.964059573533   108.83799425    64.20642658
 H     29  26  25     1.078356368799   119.26488455     3.99540890
 H     32  31  30     1.078061209581   119.10934396   183.56934157
 H     33  26  25     1.078226206518   119.44249786   356.20085433
 H     34  20   1     1.094036811171   111.52850214   297.47621243
 H     34  20   1     1.094726966767   111.50729707    60.20076275
 H     34  20   1     1.088774498073   105.56595428   178.85527305
 H     35  19   3     1.094075910951   111.37462277    61.23171947
 H     35  19   3     1.089668778529   105.60435215   179.44770702
 H     35  19   3     1.094381060156   111.70557143   298.61678795
 H     36  23  13     1.094021835422   111.30147720    63.41741377
 H     36  23  13     1.088793330994   105.59790860   181.89995849
 H     36  23  13     1.093946687923   111.37279749   300.65665705
 H     37  25  24     0.972631412985   107.42970289    44.96641570
 H     38  17   8     0.970564519099   108.01974641    62.58546280
 H     39  18   9     0.964009600154   108.41463043    60.05012202
 H     41  31  30     0.968577108509   107.37159555     1.87757451
 H     42  40  30     1.093345233294   111.51300675   299.56289335
 H     42  40  30     1.094298064552   111.13062158    61.94345171
 H     42  40  30     1.088691991500   105.36708598   181.04526301

---------------------------
INTERNAL COORDINATES (A.U.)
---------------------------
 C      0   0   0     0.000000000000     0.00000000     0.00000000
 C      1   0   0     2.650824510168     0.00000000     0.00000000
 C      2   1   0     2.646180824376   119.29149633     0.00000000
 C      3   2   1     2.623206363163   119.25418165     0.67997189
 C      4   3   2     2.619476965970   121.26744465     1.46004085
 C      5   4   3     2.618551470849   119.61095415   357.93663926
 C      5   4   3     2.839868735984   118.91286861   179.06332046
 C      7   5   4     2.903437795956   110.89278444    74.95518598
 C      8   7   5     2.906043325004   114.14154133   202.97109429
 C      9   8   7     2.903007731488   112.00091335    78.41354483
 C     10   9   8     2.840411482948   114.08413286    56.28644065
 C     11  10   9     2.633106870017   120.55180718    51.77797263
 C     12  11  10     2.610830006832   120.76629578   179.25858740
 C     13  12  11     2.654937969413   119.98953208   358.35196258
 C     14  13  12     2.611946263856   119.26262489     1.88994619
 C     11  10   9     2.618867719734   120.77361995   230.90082292
 C      8   7   5     2.902441151626   110.66048599    77.80107162
 C      9   8   7     2.900081012229   113.60350124   313.84477581
 O      3   2   1     2.585938961314   117.19261950   180.60609230
 O      1   2   3     2.582385919717   114.62796156   177.02130522
 O      2   1   3     2.602719352760   116.26278166   175.73878952
 O     14  13  12     2.573991445066   120.21025807   182.03346536
 O     13  12  11     2.606504382486   125.47669053   178.31540522
 C     21   2   1     2.677928496733   118.54518990   126.38294296
 C     24  21   2     2.933567338701   110.23735999   292.38442541
 C     25  24  21     2.864205482692   110.34315490    75.35684330
 C     24  21   2     2.902440733810   106.36281083   172.78201234
 O     27  24  21     2.653314695362   112.17436135   197.42428253
 C     26  25  24     2.632235478420   119.33656591    60.38995627
 C     29  26  25     2.610190800116   120.40366162   184.01301278
 C     30  29  26     2.651535216300   119.63215055   358.33904567
 C     31  30  29     2.609728542736   119.78898283   358.39092231
 C     26  25  24     2.614207942457   121.26103001   240.75378785
 C     20   1   2     2.658648561549   118.46594720   180.55193268
 C     19   3   2     2.662175296715   118.08295739   182.23122357
 C     23  13  12     2.660357693809   118.06180471   358.46711099
 O     25  24  21     2.645947120368   109.60457651   310.01052204
 O     17   8   7     2.654305575843   112.35861921   188.89559787
 O     18   9   8     2.661915099847   112.21145270   191.44424806
 O     30  29  26     2.598630618433   125.73561409   178.55297220
 O     31  30  29     2.588413250425   119.74989581   179.36437590
 C     40  30  29     2.660687966039   118.26828495     6.40326801
 H      4   3   2     2.036212123457   120.34742722   180.45656878
 H      6   5   4     2.036828195331   119.23354564   180.57199800
 H      7   5   4     2.060945061408   108.60573957   315.28315931
 H      7   5   4     2.060601875456   110.32141568   196.82738149
 H      8   7   5     2.072094238101   107.83257154   321.45324140
 H      9   8   7     2.072663156807   105.94605006   196.63157023
 H     10   9   8     2.067335975966   107.75478929   177.89436522
 H     10   9   8     2.063071861266   109.23906452   293.90166158
 H     12  11  10     2.035600697712   119.31464670   359.12436006
 H     15  14  13     2.038240566992   118.66223180   180.01194122
 H     16  11  10     2.041600009611   119.75106151     0.68966380
 H     17   8   7     2.075454101959   108.69584544   312.02349169
 H     17   8   7     2.066205159603   110.71649099    70.83004248
 H     18   9   8     2.075869699388   110.01464174   314.35511883
 H     18   9   8     2.063380553877   110.87495652    74.25624727
 H     22  14  13     1.827563433863   107.49257706     0.81529681
 H     24  21   2     2.072280592669   110.48000840    54.26370360
 H     25  24  21     2.074255015207   107.56933554   194.63338925
 H     27  24  21     2.063111299158   109.42401008    79.70790672
 H     27  24  21     2.073988914215   108.43628778   321.08090597
 H     28  27  24     1.821808570763   108.83799425    64.20642658
 H     29  26  25     2.037798211799   119.26488455     3.99540890
 H     32  31  30     2.037240441713   119.10934396   183.56934157
 H     33  26  25     2.037552240735   119.44249786   356.20085433
 H     34  20   1     2.067429953541   111.52850214   297.47621243
 H     34  20   1     2.068734158608   111.50729707    60.20076275
 H     34  20   1     2.057485622956   105.56595428   178.85527305
 H     35  19   3     2.067503841419   111.37462277    61.23171947
 H     35  19   3     2.059175568105   105.60435215   179.44770702
 H     35  19   3     2.068080489845   111.70557143   298.61678795
 H     36  23  13     2.067401653477   111.30147720    63.41741377
 H     36  23  13     2.057521212019   105.59790860   181.89995849
 H     36  23  13     2.067259645285   111.37279749   300.65665705
 H     37  25  24     1.838006999791   107.42970289    44.96641570
 H     38  17   8     1.834101136399   108.01974641    62.58546280
 H     39  18   9     1.821714134762   108.41463043    60.05012202
 H     41  31  30     1.830345474668   107.37159555     1.87757451
 H     42  40  30     2.066123060755   111.51300675   299.56289335
 H     42  40  30     2.067923650884   111.13062158    61.94345171
 H     42  40  30     2.057329708129   105.36708598   181.04526301

---------------------
BASIS SET INFORMATION
---------------------
There are 3 groups of distinct atoms

 Group   1 Type C   : 11s6p2d1f contracted to 5s3p2d1f pattern {62111/411/11/1}
 Group   2 Type O   : 11s6p2d1f contracted to 5s3p2d1f pattern {62111/411/11/1}
 Group   3 Type H   : 5s1p contracted to 3s1p pattern {311/1}

Atom   0C    basis set group =>   1
Atom   1C    basis set group =>   1
Atom   2C    basis set group =>   1
Atom   3C    basis set group =>   1
Atom   4C    basis set group =>   1
Atom   5C    basis set group =>   1
Atom   6C    basis set group =>   1
Atom   7C    basis set group =>   1
Atom   8C    basis set group =>   1
Atom   9C    basis set group =>   1
Atom  10C    basis set group =>   1
Atom  11C    basis set group =>   1
Atom  12C    basis set group =>   1
Atom  13C    basis set group =>   1
Atom  14C    basis set group =>   1
Atom  15C    basis set group =>   1
Atom  16C    basis set group =>   1
Atom  17C    basis set group =>   1
Atom  18O    basis set group =>   2
Atom  19O    basis set group =>   2
Atom  20O    basis set group =>   2
Atom  21O    basis set group =>   2
Atom  22O    basis set group =>   2
Atom  23C    basis set group =>   1
Atom  24C    basis set group =>   1
Atom  25C    basis set group =>   1
Atom  26C    basis set group =>   1
Atom  27O    basis set group =>   2
Atom  28C    basis set group =>   1
Atom  29C    basis set group =>   1
Atom  30C    basis set group =>   1
Atom  31C    basis set group =>   1
Atom  32C    basis set group =>   1
Atom  33C    basis set group =>   1
Atom  34C    basis set group =>   1
Atom  35C    basis set group =>   1
Atom  36O    basis set group =>   2
Atom  37O    basis set group =>   2
Atom  38O    basis set group =>   2
Atom  39O    basis set group =>   2
Atom  40O    basis set group =>   2
Atom  41C    basis set group =>   1
Atom  42H    basis set group =>   3
Atom  43H    basis set group =>   3
Atom  44H    basis set group =>   3
Atom  45H    basis set group =>   3
Atom  46H    basis set group =>   3
Atom  47H    basis set group =>   3
Atom  48H    basis set group =>   3
Atom  49H    basis set group =>   3
Atom  50H    basis set group =>   3
Atom  51H    basis set group =>   3
Atom  52H    basis set group =>   3
Atom  53H    basis set group =>   3
Atom  54H    basis set group =>   3
Atom  55H    basis set group =>   3
Atom  56H    basis set group =>   3
Atom  57H    basis set group =>   3
Atom  58H    basis set group =>   3
Atom  59H    basis set group =>   3
Atom  60H    basis set group =>   3
Atom  61H    basis set group =>   3
Atom  62H    basis set group =>   3
Atom  63H    basis set group =>   3
Atom  64H    basis set group =>   3
Atom  65H    basis set group =>   3
Atom  66H    basis set group =>   3
Atom  67H    basis set group =>   3
Atom  68H    basis set group =>   3
Atom  69H    basis set group =>   3
Atom  70H    basis set group =>   3
Atom  71H    basis set group =>   3
Atom  72H    basis set group =>   3
Atom  73H    basis set group =>   3
Atom  74H    basis set group =>   3
Atom  75H    basis set group =>   3
Atom  76H    basis set group =>   3
Atom  77H    basis set group =>   3
Atom  78H    basis set group =>   3
Atom  79H    basis set group =>   3
Atom  80H    basis set group =>   3
Atom  81H    basis set group =>   3
---------------------------------
AUXILIARY/J BASIS SET INFORMATION
---------------------------------
There are 3 groups of distinct atoms

 Group   1 Type C   : 12s5p4d2f1g contracted to 6s4p3d1f1g pattern {711111/2111/211/2/1}
 Group   2 Type O   : 12s5p4d2f1g contracted to 6s4p3d1f1g pattern {711111/2111/211/2/1}
 Group   3 Type H   : 5s2p1d contracted to 3s1p1d pattern {311/2/1}

Atom   0C    basis set group =>   1
Atom   1C    basis set group =>   1
Atom   2C    basis set group =>   1
Atom   3C    basis set group =>   1
Atom   4C    basis set group =>   1
Atom   5C    basis set group =>   1
Atom   6C    basis set group =>   1
Atom   7C    basis set group =>   1
Atom   8C    basis set group =>   1
Atom   9C    basis set group =>   1
Atom  10C    basis set group =>   1
Atom  11C    basis set group =>   1
Atom  12C    basis set group =>   1
Atom  13C    basis set group =>   1
Atom  14C    basis set group =>   1
Atom  15C    basis set group =>   1
Atom  16C    basis set group =>   1
Atom  17C    basis set group =>   1
Atom  18O    basis set group =>   2
Atom  19O    basis set group =>   2
Atom  20O    basis set group =>   2
Atom  21O    basis set group =>   2
Atom  22O    basis set group =>   2
Atom  23C    basis set group =>   1
Atom  24C    basis set group =>   1
Atom  25C    basis set group =>   1
Atom  26C    basis set group =>   1
Atom  27O    basis set group =>   2
Atom  28C    basis set group =>   1
Atom  29C    basis set group =>   1
Atom  30C    basis set group =>   1
Atom  31C    basis set group =>   1
Atom  32C    basis set group =>   1
Atom  33C    basis set group =>   1
Atom  34C    basis set group =>   1
Atom  35C    basis set group =>   1
Atom  36O    basis set group =>   2
Atom  37O    basis set group =>   2
Atom  38O    basis set group =>   2
Atom  39O    basis set group =>   2
Atom  40O    basis set group =>   2
Atom  41C    basis set group =>   1
Atom  42H    basis set group =>   3
Atom  43H    basis set group =>   3
Atom  44H    basis set group =>   3
Atom  45H    basis set group =>   3
Atom  46H    basis set group =>   3
Atom  47H    basis set group =>   3
Atom  48H    basis set group =>   3
Atom  49H    basis set group =>   3
Atom  50H    basis set group =>   3
Atom  51H    basis set group =>   3
Atom  52H    basis set group =>   3
Atom  53H    basis set group =>   3
Atom  54H    basis set group =>   3
Atom  55H    basis set group =>   3
Atom  56H    basis set group =>   3
Atom  57H    basis set group =>   3
Atom  58H    basis set group =>   3
Atom  59H    basis set group =>   3
Atom  60H    basis set group =>   3
Atom  61H    basis set group =>   3
Atom  62H    basis set group =>   3
Atom  63H    basis set group =>   3
Atom  64H    basis set group =>   3
Atom  65H    basis set group =>   3
Atom  66H    basis set group =>   3
Atom  67H    basis set group =>   3
Atom  68H    basis set group =>   3
Atom  69H    basis set group =>   3
Atom  70H    basis set group =>   3
Atom  71H    basis set group =>   3
Atom  72H    basis set group =>   3
Atom  73H    basis set group =>   3
Atom  74H    basis set group =>   3
Atom  75H    basis set group =>   3
Atom  76H    basis set group =>   3
Atom  77H    basis set group =>   3
Atom  78H    basis set group =>   3
Atom  79H    basis set group =>   3
Atom  80H    basis set group =>   3
Atom  81H    basis set group =>   3
--------------------------------------------------------------------------
WARNING: There was an error initializing an OpenFabrics device.

  Local host:   c01b01n01
  Local device: mlx5_0
--------------------------------------------------------------------------
--------------------------------------------------------------------------
WARNING: There is at least one non-excluded one OpenFabrics device found,
but there are no active ports detected (or Open MPI was unable to use
them).  This is most certainly not what you wanted.  Check your
cables, subnet manager configuration, etc.  The openib BTL will be
ignored for this job.

  Local host: c01b01n01
--------------------------------------------------------------------------
[c01b01n01:150417] 57 more processes have sent help message help-mpi-btl-openib.txt / error in device init
[c01b01n01:150417] Set MCA parameter "orte_base_help_aggregate" to 0 to see all help / error messages
[c01b01n01:150417] 5 more processes have sent help message help-mpi-btl-openib.txt / no active ports found


           ************************************************************
           *        Program running with 64 parallel MPI-processes    *
           *              working on a common directory               *
           ************************************************************
------------------------------------------------------------------------------
                             ORCA STARTUP CALCULATIONS
                           -- RI-GTO INTEGRALS CHOSEN --
------------------------------------------------------------------------------
------------------------------------------------------------------------------
                   ___                                                        
                  /   \      - P O W E R E D   B Y -                         
                 /     \                                                     
                 |  |  |   _    _      __       _____    __    __             
                 |  |  |  | |  | |    /  \     |  _  \  |  |  /  |          
                  \  \/   | |  | |   /    \    | | | |  |  | /  /          
                 / \  \   | |__| |  /  /\  \   | |_| |  |  |/  /          
                |  |  |   |  __  | /  /__\  \  |    /   |      \           
                |  |  |   | |  | | |   __   |  |    \   |  |\   \          
                \     /   | |  | | |  |  |  |  | |\  \  |  | \   \       
                 \___/    |_|  |_| |__|  |__|  |_| \__\ |__|  \__/        
                                                                              
                      - O R C A' S   B I G   F R I E N D -                    
                                      &                                       
                       - I N T E G R A L  F E E D E R -                       
                                                                              
 v1 FN, 2020, v2 2021, v3 2022-2024                                           
------------------------------------------------------------------------------


----------------------
SHARK INTEGRAL PACKAGE
----------------------

Number of atoms                             ...     82
Number of basis functions                   ...   1542
Number of shells                            ...    622
Maximum angular momentum                    ...      3
Integral batch strategy                     ... SHARK/LIBINT Hybrid
RI-J (if used) integral strategy            ... SPLIT-RIJ (Revised 2003 algorithm where possible)
Printlevel                                  ...      1
Contraction scheme used                     ... SEGMENTED contraction
Prescreening option                         ... SCHWARTZ
   Thresh                                   ... 2.500e-11
   Tcut                                     ... 2.500e-12
   Tpresel                                  ... 2.500e-12 
Coulomb Range Separation                    ... NOT USED
Exchange Range Separation                   ... NOT USED
Multipole approximations                    ... NOT USED
Finite Nucleus Model                        ... NOT USED
CABS basis                                  ... NOT available
Auxiliary Coulomb fitting basis             ... AVAILABLE
   # of basis functions in Aux-J            ...   2498
   # of shells in Aux-J                     ...    830
   Maximum angular momentum in Aux-J        ...      4
Auxiliary J/K fitting basis                 ... NOT available
Auxiliary Correlation fitting basis         ... NOT available
Auxiliary 'external' fitting basis          ... NOT available

Checking pre-screening integrals            ... done (  0.6 sec) Dimension = 622
   => SHARK Basis and OBASIS are compatible. Storing Pre-screening
Shell pair information
Shell pair cut-off parameter TPreSel        ...   2.5e-12
Total number of shell pairs                 ...    193753
Shell pairs after pre-screening             ...    116560
Total number of primitive shell pairs       ...    584784
Primitive shell pairs kept                  ...    219880
          la=0 lb=0:  32442 shell pairs
          la=1 lb=0:  34768 shell pairs
          la=1 lb=1:   9407 shell pairs
          la=2 lb=0:  15811 shell pairs
          la=2 lb=1:   8697 shell pairs
          la=2 lb=2:   1995 shell pairs
          la=3 lb=0:   7211 shell pairs
          la=3 lb=1:   4028 shell pairs
          la=3 lb=2:   1773 shell pairs
          la=3 lb=3:    428 shell pairs

Checking whether 4 symmetric matrices of dimension 1542 fit in memory
:Max Core in MB      =   6000.00
 MB in use           =    139.69
 MB left             =   5860.31
 MB needed           =     36.31
 Data fit in memory  = YES
Calculating RI/J V-Matrix + Cholesky decomp.... done ( 10.5 sec)
Calculating Nuclear repulsion               ... done (  0.1 sec) ENN=   5766.787537200530 Eh

Diagonalization of the overlap matrix:
Smallest eigenvalue                        ... 3.260e-06
Time for diagonalization                   ...   87.972 sec
Threshold for overlap eigenvalues          ... 1.000e-07
Number of eigenvalues below threshold      ... 0
Time for construction of square roots      ...    4.563 sec
Total time needed                          ...   93.406 sec

-------------------
DFT GRID GENERATION
-------------------

General Integration Accuracy     IntAcc      ... 4.388
Radial Grid Type                 RadialGrid  ... OptM3 with GC (2021)
Angular Grid (max. ang.)         AngularGrid ... 4 (Lebedev-302)
Angular grid pruning method      GridPruning ... 4 (adaptive)
Weight generation scheme         WeightScheme... mBecke (2022)
Basis function cutoff            BFCut       ... 1.0000e-11
Integration weight cutoff        WCut        ... 1.0000e-14
Partially contracted basis set               ... off
Rotationally invariant grid construction     ... off
Angular grids for H and He will be reduced by one unit

Total number of grid points                  ...   373471
Total number of batches                      ...     5875
Average number of points per batch           ...       63
Average number of grid points per atom       ...     4555

--------------------
COSX GRID GENERATION
--------------------

GRIDX 1
-------
General Integration Accuracy     IntAcc      ... 3.816
Radial Grid Type                 RadialGrid  ... OptM3 with GC (2021)
Angular Grid (max. ang.)         AngularGrid ... 1 (Lebedev-50)
Angular grid pruning method      GridPruning ... 4 (adaptive)
Weight generation scheme         WeightScheme... mBecke (2022)
Basis function cutoff            BFCut       ... 1.0000e-11
Integration weight cutoff        WCut        ... 1.0000e-14
Partially contracted basis set               ... on
Rotationally invariant grid construction     ... off
Angular grids for H and He will be reduced by one unit

Total number of grid points                  ...    47224
Total number of batches                      ...      414
Average number of points per batch           ...      114
Average number of grid points per atom       ...      576
UseSFitting                                  ... on

GRIDX 2
-------
General Integration Accuracy     IntAcc      ... 4.020
Radial Grid Type                 RadialGrid  ... OptM3 with GC (2021)
Angular Grid (max. ang.)         AngularGrid ... 2 (Lebedev-110)
Angular grid pruning method      GridPruning ... 4 (adaptive)
Weight generation scheme         WeightScheme... mBecke (2022)
Basis function cutoff            BFCut       ... 1.0000e-11
Integration weight cutoff        WCut        ... 1.0000e-14
Partially contracted basis set               ... on
Rotationally invariant grid construction     ... off
[...]
freq.     630.51  E(vib)   ...       0.09 
freq.     635.67  E(vib)   ...       0.09 
freq.     658.71  E(vib)   ...       0.08 
freq.     697.11  E(vib)   ...       0.07 
freq.     698.76  E(vib)   ...       0.07 
freq.     730.87  E(vib)   ...       0.06 
freq.     736.13  E(vib)   ...       0.06 
freq.     747.71  E(vib)   ...       0.06 
freq.     757.17  E(vib)   ...       0.06 
freq.     786.19  E(vib)   ...       0.05 
freq.     793.04  E(vib)   ...       0.05 
freq.     804.47  E(vib)   ...       0.05 
freq.     813.89  E(vib)   ...       0.05 
freq.     824.30  E(vib)   ...       0.04 
freq.     835.12  E(vib)   ...       0.04 
freq.     844.72  E(vib)   ...       0.04 
freq.     851.32  E(vib)   ...       0.04 
freq.     855.95  E(vib)   ...       0.04 
freq.     860.31  E(vib)   ...       0.04 
freq.     873.06  E(vib)   ...       0.04 
freq.     879.01  E(vib)   ...       0.04 
freq.     887.66  E(vib)   ...       0.04 
freq.     900.75  E(vib)   ...       0.03 
freq.     927.95  E(vib)   ...       0.03 
freq.     941.82  E(vib)   ...       0.03 
freq.     946.68  E(vib)   ...       0.03 
freq.     951.03  E(vib)   ...       0.03 
freq.     959.81  E(vib)   ...       0.03 
freq.     965.78  E(vib)   ...       0.03 
freq.     970.42  E(vib)   ...       0.03 
freq.     992.44  E(vib)   ...       0.02 
freq.     997.15  E(vib)   ...       0.02 
freq.    1024.88  E(vib)   ...       0.02 
freq.    1029.43  E(vib)   ...       0.02 
freq.    1038.78  E(vib)   ...       0.02 
freq.    1045.45  E(vib)   ...       0.02 
freq.    1048.36  E(vib)   ...       0.02 
freq.    1052.38  E(vib)   ...       0.02 
freq.    1057.42  E(vib)   ...       0.02 
freq.    1069.26  E(vib)   ...       0.02 
freq.    1077.94  E(vib)   ...       0.02 
freq.    1094.24  E(vib)   ...       0.02 
freq.    1103.45  E(vib)   ...       0.02 
freq.    1121.52  E(vib)   ...       0.01 
freq.    1127.53  E(vib)   ...       0.01 
freq.    1140.91  E(vib)   ...       0.01 
freq.    1142.10  E(vib)   ...       0.01 
freq.    1144.66  E(vib)   ...       0.01 
freq.    1169.84  E(vib)   ...       0.01 
freq.    1170.74  E(vib)   ...       0.01 
freq.    1171.11  E(vib)   ...       0.01 
freq.    1171.50  E(vib)   ...       0.01 
freq.    1172.50  E(vib)   ...       0.01 
freq.    1173.17  E(vib)   ...       0.01 
freq.    1176.86  E(vib)   ...       0.01 
freq.    1179.04  E(vib)   ...       0.01 
freq.    1199.12  E(vib)   ...       0.01 
freq.    1200.62  E(vib)   ...       0.01 
freq.    1203.99  E(vib)   ...       0.01 
freq.    1207.94  E(vib)   ...       0.01 
freq.    1210.25  E(vib)   ...       0.01 
freq.    1213.25  E(vib)   ...       0.01 
freq.    1222.75  E(vib)   ...       0.01 
freq.    1224.89  E(vib)   ...       0.01 
freq.    1227.51  E(vib)   ...       0.01 
freq.    1243.30  E(vib)   ...       0.01 
freq.    1247.11  E(vib)   ...       0.01 
freq.    1250.68  E(vib)   ...       0.01 
freq.    1262.09  E(vib)   ...       0.01 
freq.    1273.14  E(vib)   ...       0.01 
freq.    1277.58  E(vib)   ...       0.01 
freq.    1285.36  E(vib)   ...       0.01 
freq.    1287.62  E(vib)   ...       0.01 
freq.    1295.16  E(vib)   ...       0.01 
freq.    1307.34  E(vib)   ...       0.01 
freq.    1312.66  E(vib)   ...       0.01 
freq.    1331.72  E(vib)   ...       0.01 
freq.    1335.68  E(vib)   ...       0.01 
freq.    1341.53  E(vib)   ...       0.01 
freq.    1344.75  E(vib)   ...       0.01 
freq.    1348.85  E(vib)   ...       0.01 
freq.    1354.60  E(vib)   ...       0.01 
freq.    1366.01  E(vib)   ...       0.01 
freq.    1372.61  E(vib)   ...       0.01 
freq.    1381.94  E(vib)   ...       0.01 
freq.    1387.77  E(vib)   ...       0.00 
freq.    1390.61  E(vib)   ...       0.00 
freq.    1398.37  E(vib)   ...       0.00 
freq.    1401.47  E(vib)   ...       0.00 
freq.    1406.07  E(vib)   ...       0.00 
freq.    1410.56  E(vib)   ...       0.00 
freq.    1410.74  E(vib)   ...       0.00 
freq.    1418.74  E(vib)   ...       0.00 
freq.    1428.46  E(vib)   ...       0.00 
freq.    1440.44  E(vib)   ...       0.00 
freq.    1453.54  E(vib)   ...       0.00 
freq.    1455.67  E(vib)   ...       0.00 
freq.    1460.01  E(vib)   ...       0.00 
freq.    1477.71  E(vib)   ...       0.00 
freq.    1478.66  E(vib)   ...       0.00 
freq.    1479.47  E(vib)   ...       0.00 
freq.    1480.10  E(vib)   ...       0.00 
freq.    1481.02  E(vib)   ...       0.00 
freq.    1481.66  E(vib)   ...       0.00 
freq.    1483.25  E(vib)   ...       0.00 
freq.    1484.41  E(vib)   ...       0.00 
freq.    1488.27  E(vib)   ...       0.00 
freq.    1490.23  E(vib)   ...       0.00 
freq.    1491.47  E(vib)   ...       0.00 
freq.    1491.62  E(vib)   ...       0.00 
freq.    1492.54  E(vib)   ...       0.00 
freq.    1495.39  E(vib)   ...       0.00 
freq.    1497.68  E(vib)   ...       0.00 
freq.    1498.60  E(vib)   ...       0.00 
freq.    1506.13  E(vib)   ...       0.00 
freq.    1535.89  E(vib)   ...       0.00 
freq.    1542.17  E(vib)   ...       0.00 
freq.    1545.73  E(vib)   ...       0.00 
freq.    1627.99  E(vib)   ...       0.00 
freq.    1637.50  E(vib)   ...       0.00 
freq.    1642.93  E(vib)   ...       0.00 
freq.    1647.38  E(vib)   ...       0.00 
freq.    1648.87  E(vib)   ...       0.00 
freq.    1652.35  E(vib)   ...       0.00 
freq.    3013.16  E(vib)   ...       0.00 
freq.    3020.29  E(vib)   ...       0.00 
freq.    3021.53  E(vib)   ...       0.00 
freq.    3021.66  E(vib)   ...       0.00 
freq.    3023.74  E(vib)   ...       0.00 
freq.    3025.53  E(vib)   ...       0.00 
freq.    3025.87  E(vib)   ...       0.00 
freq.    3026.70  E(vib)   ...       0.00 
freq.    3027.25  E(vib)   ...       0.00 
freq.    3028.12  E(vib)   ...       0.00 
freq.    3038.33  E(vib)   ...       0.00 
freq.    3042.44  E(vib)   ...       0.00 
freq.    3058.98  E(vib)   ...       0.00 
freq.    3067.02  E(vib)   ...       0.00 
freq.    3074.78  E(vib)   ...       0.00 
freq.    3078.13  E(vib)   ...       0.00 
freq.    3079.18  E(vib)   ...       0.00 
freq.    3084.36  E(vib)   ...       0.00 
freq.    3088.29  E(vib)   ...       0.00 
freq.    3089.00  E(vib)   ...       0.00 
freq.    3092.94  E(vib)   ...       0.00 
freq.    3102.24  E(vib)   ...       0.00 
freq.    3140.05  E(vib)   ...       0.00 
freq.    3142.58  E(vib)   ...       0.00 
freq.    3142.65  E(vib)   ...       0.00 
freq.    3162.28  E(vib)   ...       0.00 
freq.    3170.10  E(vib)   ...       0.00 
freq.    3187.01  E(vib)   ...       0.00 
freq.    3187.51  E(vib)   ...       0.00 
freq.    3205.40  E(vib)   ...       0.00 
freq.    3208.18  E(vib)   ...       0.00 
freq.    3211.06  E(vib)   ...       0.00 
freq.    3213.26  E(vib)   ...       0.00 
freq.    3214.39  E(vib)   ...       0.00 
freq.    3601.36  E(vib)   ...       0.00 
freq.    3628.83  E(vib)   ...       0.00 
freq.    3718.80  E(vib)   ...       0.00 
freq.    3722.61  E(vib)   ...       0.00 
freq.    3769.20  E(vib)   ...       0.00 
freq.    3769.81  E(vib)   ...       0.00 

------------
INNER ENERGY
------------

The inner energy is: U= E(el) + E(ZPE) + E(vib) + E(rot) + E(trans)
    E(el)   - is the total energy from the electronic structure calculation
              = E(kin-el) + E(nuc-el) + E(el-el) + E(nuc-nuc)
    E(ZPE)  - the the zero temperature vibrational energy from the frequency calculation
    E(vib)  - the the finite temperature correction to E(ZPE) due to population
              of excited vibrational states
    E(rot)  - is the rotational thermal energy
    E(trans)- is the translational thermal energy

Summary of contributions to the inner energy U:
Electronic energy                ...  -2032.63848767 Eh
Zero point energy                ...      0.67933021 Eh     426.29 kcal/mol
Thermal vibrational correction   ...      0.04022984 Eh      25.24 kcal/mol
Thermal rotational correction    ...      0.00141627 Eh       0.89 kcal/mol
Thermal translational correction ...      0.00141627 Eh       0.89 kcal/mol
-----------------------------------------------------------------------
Total thermal energy                  -2031.91609508 Eh


Summary of corrections to the electronic energy:
(perhaps to be used in another calculation)
Total thermal correction                  0.04306238 Eh      27.02 kcal/mol
Non-thermal (ZPE) correction              0.67933021 Eh     426.29 kcal/mol
-----------------------------------------------------------------------
Total correction                          0.72239259 Eh     453.31 kcal/mol


--------
ENTHALPY
--------

The enthalpy is H = U + kB*T
                kB is Boltzmann's constant
Total thermal energy              ...  -2031.91609508 Eh 
Thermal Enthalpy correction       ...      0.00094421 Eh       0.59 kcal/mol
-----------------------------------------------------------------------
Total Enthalpy                    ...  -2031.91515087 Eh


Note: Only C1 symmetry has been detected, increase convergence thresholds 
      if your molecule has a higher symmetry. Symmetry factor of 1.0 is   
      used for the rotational entropy correction. 
 

Note: Rotational entropy computed according to Herzberg 
Infrared and Raman Spectra, Chapter V,1, Van Nostrand Reinhold, 1945 
Point Group:  C1, Symmetry Number:   1  
Rotational constants in cm-1:     0.004056     0.002191     0.001823 

Vibrational entropy computed according to the QRRHO of S. Grimme
Chem.Eur.J. 2012 18 9955 using a reference frequency of 100.0 cm-1


-------
ENTROPY
-------

The entropy contributions are T*S = T*(S(el)+S(vib)+S(rot)+S(trans))
     S(el)   - electronic entropy
     S(vib)  - vibrational entropy
     S(rot)  - rotational entropy
     S(trans)- translational entropy
The entropies will be listed as multiplied by the temperature to get
units of energy

Electronic entropy                ...      0.00000000 Eh      0.00 kcal/mol
Vibrational entropy               ...      0.07198672 Eh     45.17 kcal/mol
Rotational entropy                ...      0.01797939 Eh     11.28 kcal/mol
Translational entropy             ...      0.02138181 Eh     13.42 kcal/mol
-----------------------------------------------------------------------
Final entropy term                ...      0.11134792 Eh     69.87 kcal/mol

In case the symmetry of your molecule has not been determined correctly
or in case you have a reason to use a different symmetry number we print 
out the resulting rotational entropy values for sn=1,12:

 non-linear molecules -----------------------------------
|  sn= 1 | S(rot)=       0.01797939 Eh     11.28 kcal/mol|
|  sn= 2 | S(rot)=       0.01732494 Eh     10.87 kcal/mol|
|  sn= 3 | S(rot)=       0.01694210 Eh     10.63 kcal/mol|
|  sn= 4 | S(rot)=       0.01667048 Eh     10.46 kcal/mol|
|  sn= 5 | S(rot)=       0.01645979 Eh     10.33 kcal/mol|
|  sn= 6 | S(rot)=       0.01628765 Eh     10.22 kcal/mol|
|  sn= 7 | S(rot)=       0.01614210 Eh     10.13 kcal/mol|
|  sn= 8 | S(rot)=       0.01601602 Eh     10.05 kcal/mol|
|  sn= 9 | S(rot)=       0.01590482 Eh      9.98 kcal/mol|
|  sn=10 | S(rot)=       0.01580534 Eh      9.92 kcal/mol|
|  sn=11 | S(rot)=       0.01571535 Eh      9.86 kcal/mol|
|  sn=12 | S(rot)=       0.01563319 Eh      9.81 kcal/mol|
 linear molecules ---------------------------------------
|  Dinfh | S(rot)=       0.01128116 Eh      7.08 kcal/mol|
|  Cinfv | S(rot)=       0.01193562 Eh      7.49 kcal/mol|
 --------------------------------------------------------


-------------------
GIBBS FREE ENERGY
-------------------

The Gibbs free energy is G = H - T*S

Total enthalpy                    ...  -2031.91515087 Eh 
Total entropy correction          ...     -0.11134792 Eh    -69.87 kcal/mol
-----------------------------------------------------------------------
Final Gibbs free energy         ...  -2032.02649879 Eh

For completeness - the Gibbs free energy minus the electronic energy
G-E(el)                           ...      0.61198888 Eh    384.03 kcal/mol


Maximum memory used throughout the entire PROP-calculation: 1822.4 MB
--------------------------------------------------------------------------
WARNING: There was an error initializing an OpenFabrics device.

  Local host:   c01b01n01
  Local device: mlx5_0
--------------------------------------------------------------------------
--------------------------------------------------------------------------
WARNING: There is at least one non-excluded one OpenFabrics device found,
but there are no active ports detected (or Open MPI was unable to use
them).  This is most certainly not what you wanted.  Check your
cables, subnet manager configuration, etc.  The openib BTL will be
ignored for this job.

  Local host: c01b01n01
--------------------------------------------------------------------------
[c01b01n01:240802] 60 more processes have sent help message help-mpi-btl-openib.txt / error in device init
[c01b01n01:240802] Set MCA parameter "orte_base_help_aggregate" to 0 to see all help / error messages
[c01b01n01:240802] 2 more processes have sent help message help-mpi-btl-openib.txt / no active ports found

--------------------------------
SUGGESTED CITATIONS FOR THIS RUN
--------------------------------

Below you find a list of papers that are relevant to this ORCA run
We neither can nor want to force you to cite these papers, but we appreciate if you do
You receive ORCA, which is the product of decades of hard work by many enthusiastic individuals, for free
The only thing we kindly ask in return is that you cite our papers,
We deeply appreciate it, if you show your appreciation for ORCA by not just citing the generic ORCA reference.

Please note that relegating all ORCA citations to the supporting information does *not* help us.
SI sections are not indexed - citations you put there will not count into any citation statistics
But we need these citations in order to attract the funding resources that allow us to do what we are doing

Therefore, if you are a happy ORCA user, please consider citing a few of the papers listed below in the main body of your paper

In addition to the list printed below, the program has created the file opt-conf-14.bibtex that contains the list in bibtex format
You can import this file easily into all common literature databanks and citation aid programs


List of essential papers. We consider these as the minimum necessary citations

  1. Neese, F.
     Software update: the ORCA program system, version 6.0
     WIRES Comput. Molec. Sci. 2025 15(1), e70019
     doi.org/10.1002/wcms.7019

List of papers to cite with high priority. The work reported in these papers was absolutely
necessary for this run to complete.
Our perspective: the developers of density functionals and basis sets usually get cited in chemistry papers
Good! But without the algorithms to do something with them, the functionals or basis sets would not do anything.
Hence, in our opinion, the algorithm design and method developments papers are equally worthy of getting cited

  1. Neese, F.
     An improvement of the resolution of the identity approximation for the formation of the Coulomb matrix
     J. Comp. Chem. 2003 24(14), 1740-1747
     doi.org/10.1002/jcc.10318
  2. Neese, F.; Wennmohs, F.; Hansen, A.; Becker, U.
     Efficient, approximate and parallel Hartree-Fock and hybrid DFT calculations. A 'chain-of-spheres' algorithm for the Hartree-Fock exchange
     Chem. Phys. 2009 356(1-3), 98-109
     doi.org/10.1016/j.chemphys.2008.10.036
  3. Bykov, D.; Petrenko, T.; Izsak, R.; Kossmann, S.; Becker, U.; Valeev, E.; Neese, F.
     Efficient implementation of the analytic second derivatives of Hartree-Fock and hybrid DFT energies: a detailed analysis of different approximations
     Molec. Phys. 2015 113 , 1961-1977
     doi.org/10.1080/00268976.2015.1025114
  4. Caldeweyher, E.; Bannwarth, C.; Grimme, S.
     Extension of the D3 dispersion coefficient model
     J. Chem. Phys. 2017 147 , 034112
     doi.org/10.1063/1.4993215
  5. Caldeweyher, E.; Ehlert, S.; Hansen, A.; Neugebauer, H.; Spicher, S.; Bannwarth, C.; Grimme, S.
     A generally applicable atomic-charge dependent London dispersion correction
     J. Chem. Phys. 2019 150 , 154122
     doi.org/10.1063/1.5090222
  6. Garcia-Rates, M.; Neese, F.
     Efficient implementation of the analytical second derivatives of hartree-fock and hybrid DFT energies within the framework of the conductor-like polarizable continuum model
     J. Comput. Chem. 2019 40 , 1816-1828
     doi.org/10.1002/jcc.25833
  7. Caldeweyher, E.; Mewes, J.; Ehlert, S.; Grimme, S.
     Extension and evaluation of the D4 London-dispersion model for periodic systems
     Phys. Chem. Chem. Phys. 2020 22(16), 8499-8512
     doi.org/10.1039/D0CP00502A
  8. Garcia-Rates, M.; Neese, F.
     Effect of the Solute Cavity on the Solvation Energy and its Derivatives within the Framework of the Gaussian Charge Scheme
     J. Comput. Chem. 2020 41 , 922-939
     doi.org/10.1002/jcc.26139
  9. Helmich-Paris, B.; de Souza, B.; Neese, F.; Izsák, R.
     An improved chain of spheres for exchange algorithm
     J. Chem. Phys. 2021 155(10), 104109
     doi.org/10.1063/5.0058766
 10. Neese, F.
     The SHARK Integral Generation and Digestion System
     J. Comp. Chem. 2022 44(3), 381
     doi.org/10.1002/jcc.26942
 11. Wittmann, L.; Gordiy, I.; Friede, M.; Helmich-Paris, B.; Grimme, S.; Hansen, A.; Bursch, M.
     Extension of the D3 and D4 London Dispersion Corrections to the full Actinides Series
     Phys. Chem. Chem. Phys. 2024 26(32), 21379-21394
     doi.org/10.1039/D4CP01514B

List of suggested additional citations. These are papers that are important in the 'surrounding' of 
of this run, or papers that preceded the highly important papers. If you like your results we are grateful for a citation.

  1. Izsak, R.; Neese, F.
     An overlap fitted chain of spheres exchange method
     J. Chem. Phys. 2011 135 , 144105
     doi.org/10.1063/1.3646921
  2. Izsak, R.; Hansen, A.; Neese, F.
     The resolution of identity and chain of spheres approximations for the LPNO-CCSD singles Fock term
     Molec. Phys. 2012 110 , 2413-2417
     doi.org/10.1080/00268976.2012.687466
  3. Neese, F.
     The ORCA program system
     WIRES Comput. Molec. Sci. 2012 2(1), 73-78
     doi.org/10.1002/wcms.81
  4. Izsak, R.; Neese, F.; Klopper, W.
     Robust fitting techniques in the chain of spheres approximation to the Fock exchange: The role of the complementary space
     J. Chem. Phys. 2013 139 , 
     doi.org/10.1063/1.4819264
  5. Neese, F.
     Software update: the ORCA program system, version 4.0
     WIRES Comput. Molec. Sci. 2018 8(1), 1-6
     doi.org/10.1002/wcms.1327
  6. Neese, F.; Wennmohs, F.; Becker, U.; Riplinger, C.
     The ORCA quantum chemistry program package
     J. Chem. Phys. 2020 152(22), 224108
     doi.org/10.1063/5.0004608
  7. Neese, F.
     Software update: The ORCA program system—Version 5.0
     WIRES Comput. Molec. Sci. 2022 12(1), e1606
     doi.org/10.1002/wcms.1606

List of optional additional citations

  1. Neese, F.
     Approximate second-order SCF convergence for spin unrestricted wavefunctions
     Chem. Phys. Lett. 2000 325(1-3), 93-98
     doi.org/10.1016/s0009-2614(00)00662-x

Timings for individual modules:

Sum of individual times          ...    44691.891 sec (= 744.865 min)
Startup calculation              ...     4237.577 sec (=  70.626 min)   9.5 %
SCF iterations                   ...    27331.456 sec (= 455.524 min)  61.2 %
Property integrals               ...     3750.706 sec (=  62.512 min)   8.4 %
SCF Response                     ...     6227.760 sec (= 103.796 min)  13.9 %
Property calculations            ...     1299.367 sec (=  21.656 min)   2.9 %
SCF Gradient evaluation          ...     1798.058 sec (=  29.968 min)   4.0 %
Geometry relaxation              ...       46.966 sec (=   0.783 min)   0.1 %
                             ****ORCA TERMINATED NORMALLY****
TOTAL RUN TIME: 0 days 12 hours 34 minutes 17 seconds 99 msec
