
                                 *****************
                                 * O   R   C   A *
                                 *****************

                                            #,                                       
                                            ###                                      
                                            ####                                     
                                            #####                                    
                                            ######                                   
                                           ########,                                 
                                     ,,################,,,,,                         
                               ,,#################################,,                 
                          ,,##########################################,,             
                       ,#########################################, ''#####,          
                    ,#############################################,,   '####,        
                  ,##################################################,,,,####,       
                ,###########''''           ''''###############################       
              ,#####''   ,,,,##########,,,,          '''####'''          '####       
            ,##' ,,,,###########################,,,                        '##       
           ' ,,###''''                  '''############,,,                           
         ,,##''                                '''############,,,,        ,,,,,,###''
      ,#''                                            '''#######################'''  
     '                                                          ''''####''''         
             ,#######,   #######,   ,#######,      ##                                
            ,#'     '#,  ##    ##  ,#'     '#,    #''#        ,####,    ,#,          
            ##       ##  ##   ,#'  ##            #'  '#       #'       ,# #          
            ##       ##  #######   ##           ,######,      #####,      #          
            '#,     ,#'  ##    ##  '#,     ,#' ,#      #,     #,   #      #          
             '#######'   ##     ##  '#######'  #'      '#     '####' #    #          



                #########################################################
                #                        -***-                          #
                #          Department of theory and spectroscopy        #
                #                                                       #
                #                      Frank Neese                      #
                #                                                       #
                #     Directorship, Architecture, Infrastructure        #
                #                    SHARK, DRIVERS                     #
                #        Core code/Algorithms in most modules           #
                #                                                       #
                #        Max Planck Institute fuer Kohlenforschung      #
                #                Kaiser Wilhelm Platz 1                 #
                #                 D-45470 Muelheim/Ruhr                 #
                #                      Germany                          #
                #                                                       #
                #                  All rights reserved                  #
                #                        -***-                          #
                #########################################################


                         Program Version 6.1.0-f.0  -   RELEASE   -


 With contributions from (in alphabetic order):
[Max-Planck-Institut fuer Kohlenforschung]                               
  Daniel Aravena         : Magnetic Suceptibility                        
  Michael Atanasov       : Ab Initio Ligand Field Theory (pilot matlab implementation)
  Alexander A. Auer      : GIAO ZORA, VPT2 properties, NMR spectrum      
  Ute Becker             : All parallelization in ORCA, NUMFREQ, NUMCALC 
  Giovanni Bistoni       : ED, misc. LED, open-shell LED, HFLD           
  Dmytro Bykov           : pre 5.0 version of the SCF Hessian            
  Marcos Casanova-Páez   : Triplet and SCS-CIS(D). UHF-(DLPNO)-IP/EA/STEOM-CCSD. UHF-CVS-IP/STEOM-CCSD   
  Vijay G. Chilkuri      : MRCI spin determinant printing, contributions to CSF-ICE 
  Pauline Colinet        : FMM embedding                                 
  Dipayan Datta          : RHF DLPNO-CCSD density                        
  Achintya Kumar Dutta   : EOM-CC, STEOM-CC                              
  Nicolas Foglia         : Exact transition moments, OPA infrastructure, MCD improvements    
  Dmitry Ganyushin       : Spin-Orbit,Spin-Spin,Magnetic field MRCI      
  Miquel Garcia-Rates    : C-PCM and meta-GGA Hessian, CCSD/C-PCM, Gaussian charge scheme 
  Tiago L. C. Gouveia    : GS-ROHF, GS-ROCIS                             
  Yang Guo               : DLPNO-NEVPT2, F12-NEVPT2, CIM, IAO-localization        
  Andreas Hansen         : Spin unrestricted coupled pair/coupled cluster methods 
  Ingolf Harden          : AUTO-CI MPn and infrastructure                
  Benjamin Helmich-Paris : MC-RPA, TRAH-(SCF,CASSCF), AVAS, COSX integrals, SCF dyn. polar., MC-PDFT, srDFT 
  Lee Huntington         : MR-EOM, pCC                                   
  Robert Izsak           : Overlap fitted RIJCOSX, COSX-SCS-MP3, EOM     
  Riya Kayal             : Wick's Theorem for AUTO-CI, AUTO-CI UHF-CCSDT 
  Emily Kempfer          : AUTO-CI RHF CISDT and CCSDT, approximate NEVPT4
  Christian Kollmar      : KDIIS, OOCD, Brueckner-CCSD(T), CCSD density, CASPT2, CASPT2-K, improved NEVPT2 
  Axel Koslowski         : Symmetry handling                             
  Simone Kossmann        : meta-GGA functionals, TD-DFT gradient, OOMP2, (MP2 Hessian; deprecated post 5.0) 
  Lucas Lang             : DCDCAS, Hyperfine gauge corrections, ICE-SOC+SSC
  Marvin Lechner         : AUTO-CI (C++ implementation), FIC-MRCC        
  Spencer Leger          : CASSCF response                               
  Dagmar Lenk            : GEPOL surface, SMD, ORCA-2-JSON               
  Dimitrios Liakos       : Extrapolation schemes; Compound Job, Property file
  Dimitrios Manganas     : Further ROCIS development; embedding schemes. LFT, Crystal Embedding 
  Dimitrios Pantazis     : SARC Basis sets                               
  Anastasios Papadopoulos: AUTO-CI, single reference methods and gradients 
  Taras Petrenko         : pre 6.0 DFT Hessian and TD-DFT gradient,  ECA, NRVS 
  Petra Pikulova         : Analytic Raman intensities                    
  Peter Pinski           : DLPNO-MP2, DLPNO-MP2 Gradient                 
  Shashank Vittal Rao    : ES-AILFT, MagRelax                            
  Christoph Reimann      : Effective Core Potentials                     
  Marius Retegan         : Local ZFS, SOC                                
  Christoph Riplinger    : Optimizer, TS searches, QM/MM, DLPNO-CCSD(T), (RO)-DLPNO pert. Triples 
  Michael Roemelt        : Original ROCIS implementation, recursive CI coupling coefficients
  Masaaki Saitow         : Open-shell DLPNO-CCSD energy and density      
  Barbara Sandhoefer     : DKH picture change effects                    
  Yorick L. A. Schmerwitz: GMF and freeze-and-release deltaSCF, NEB S-IDPP initial path                    
  Kantharuban Sivalingam : CASSCF convergence/infrastructure, NEVPT2, NEVPT3, NEVPT4(SD), FIC-MRCI and CEPA variants
  Bernardo de Souza      : ESD, SOC TD-DFT                               
  Georgi L. Stoychev     : AutoAux, RI-MP2 NMR, DLPNO-MP2 response, X2C  
  Van Anh Tran           : RI-MP2 g-tensors                              
  Willem Van den Heuvel  : Paramagnetic NMR                              
  Zikuan Wang            : NOTCH, Electric field optimization            
  Frank Wennmohs         : Technical directorship and infrastructure     
  Hang Xu                : AUTO-CI-Response properties                   
                                                                         
[FACCTs GmbH]                                                            
  Markus Bursch, Nicolas Foglia, Miquel Garcia-Rates, Ingolf Harden, Hagen Neugebauer, Anastasios Papadopoulos, 
  Christoph Riplinger, Bernardo de Souza, Georgi L. Stoychev                                                    
                                                                 
  APM, various basis sets, CI-OPT, improved COSX, DLPNO-Multilevel,           
  DOCKER, DRACO, updates on ESD, Fragmentator, GOAT, IRC, LR-CPCM, L-BFGS, MBIS, meta-GGA TD-DFT gradient, ML-optimized integration grids, 
  MM, NACMEs, nearIR, NEB, NEB-TS, NL-DFT gradient (VV10), 2- and 3-layer-ONIOM, interface openCOSMO-RS, QMMM,   
  Crystal-QMMM, RESP, rigid body optimization, SF, symmetry and pop. for TD-DFT, various functionals, SOLVATOR                                   
                                                                         
[Other institutions]                                                     
  V. Asgeirsson          : NEB                                           
  Christoph Bannwarth    : sTDA-DFT, sTD-DFT, PBEh-3c, B97-3c, D3        
  Giovanni Bistoni       : ETS/NOCV, ADLD/ADEX, COVALED                  
  Martin Brehm           : Molecular dynamics                            
  Ronald Cardenas        : ETS/NOCV                                      
  Martina Colucci        : COVALED                                       
  Sebastian Ehlert       : rSCAN, r2SCAN, r2SCAN-3c, D4, dhf basis sets  
  Marvin Friede          : D4 for Fr, Ra, Ac-Lr                          
  Lars Goerigk           : TD-DFT with DH, B97 family of functionals     
  Stefan Grimme          : VdW corrections, initial TS optimization, DFT functionals, gCP, sTDA/sTD-DF 
  Waldemar Hujo          : DFT-NL                                        
  H. Jonsson             : NEB                                           
  Holger Kruse           : gCP                                           
  Marcel Mueller         : wB97X-3c, vDZP basis set                      
  Hagen Neugebauer       : wr2SCAN, Native XTB                           
  Gianluca Regni         : ADLD/ADEX                                     
  Tobias Risthaus        : pre 6.0 range-separated hybrid DFT and stability analysis
  Lukas Wittmann         : regularized MP2, r2SCAN double-hybrids, wr2SCAN        
                                                                         
We gratefully acknowledge several colleagues who have allowed us to      
interface, adapt or use parts of their codes:                            
  Ed Valeev, F. Pavosevic, A. Kumar             : LibInt (2-el integral package), F12 methods 
  Garnet Chan, S. Sharma, J. Yang, R. Olivares  : DMRG                   
  Ulf Ekstrom                                   : XCFun DFT Library      
  Mihaly Kallay                                 : mrcc  (arbitrary order and MRCC methods)
  Frank Weinhold                                : gennbo (NPA and NBO analysis)           
  Simon Mueller                                 : openCOSMO-RS                            
  Christopher J. Cramer and Donald G. Truhlar   : smd solvation model                     
  S Lehtola, MJT Oliveira, MAL Marques          : LibXC Library                           
  Liviu Ungur et al                             : ANISO software                          


 Your calculation uses the libint2 library for the computation of 2-el integrals
 For citations please refer to: http://libint.valeyev.net

 Your ORCA version has been built with support for libXC version: 7.0.0
 For citations please refer to: https://libxc.gitlab.io

 This ORCA versions uses:
   CBLAS   interface :  Fast vector & matrix operations
   LAPACKE interface :  Fast linear algebra routines
   SCALAPACK package :  Parallel linear algebra routines
   Shared memory     :  Shared parallel matrices
   BLAS/LAPACK       :  OpenBLAS 0.3.29  USE64BITINT DYNAMIC_ARCH NO_AFFINITY Cooperlake SINGLE_THREADED
        Core in use  :  Cooperlake
   Copyright (c) 2011-2014, The OpenBLAS Project


  ***********************************
  * Starting time: Sat Feb 28 14:44:49 2026
  * Host name:     c01b01n05
  * Process ID:    2350231
  * Working dir.:  /lustre1/jiangy/jiangy_liuxy/NMR/B9D7C2-SRSS
  ***********************************

NOTE: MaxCore=6000 MB was set to SCF,MP2,MDCI,CIPSI,MRCI,RASCI and CIS
      => If you want to overwrite this, your respective input block should be placed after the MaxCore statement


***************************************
The coordinates will be read from file: conf-8.xyz
***************************************


Your calculation utilizes the atom-pairwise dispersion correction
based on EEQ partial charges (D4)


Warning: RI is on but no J-basis has been assigned. Assigning Def2/J (nothing to worry about!)
================================================================================

----- Orbital basis set information -----
Your calculation utilizes the basis: def2-TZVP
   F. Weigend and R. Ahlrichs, Phys. Chem. Chem. Phys. 7, 3297 (2005).

----- AuxJ basis set information -----
Your calculation utilizes the auxiliary basis: def2/J
   H-Rn: F. Weigend, Phys. Chem. Chem. Phys. 8, 1057 (2006).
   Fr-Lr: K. Eichkorn, F. Weigend, O. Treutler, R. Ahlrichs; Theor. Chem. Acc. 97, 119 (1997).

================================================================================
                                        WARNINGS
                       Please study these warnings very carefully!
================================================================================


WARNING: Geometry Optimization
  ===> : Switching off AutoStart
         For restart on a previous wavefunction, please use MOREAD

================================================================================
                                       INPUT FILE
================================================================================
NAME = opt-conf-8.inp
|  1> ! B3LYP OPT FREQ DEF2-TZVP D4 CPCM(Methanol) 
|  2> ! TightOpt
|  3> %pal nprocs 64 end
|  4> %maxcore 6000
|  5> 
|  6> %cpcm
|  7> end
|  8> 
|  9> %freq
| 10>    Temp 298.15
| 11> end
| 12> 
| 13> * xyzfile 0 1 conf-8.xyz
| 14> 
| 15> 
| 16>                          ****END OF INPUT****
================================================================================

                       *****************************
                       * Geometry Optimization Run *
                       *****************************

Geometry optimization settings:
Update method            Update   .... BFGS
Choice of coordinates    CoordSys .... (2022) Redundant Internals
Initial Hessian          InHess   .... Almloef's Model
Max. no of cycles        MaxIter  .... 246

Convergence Tolerances:
Energy Change            TolE     ....  1.0000e-06 Eh
Max. Gradient            TolMAXG  ....  1.0000e-04 Eh/bohr
RMS Gradient             TolRMSG  ....  3.0000e-05 Eh/bohr
Max. Displacement        TolMAXD  ....  1.0000e-03 bohr
RMS Displacement         TolRMSD  ....  6.0000e-04 bohr
Strict Convergence                .... False

------------------------------------------------------------------------------
                        ORCA OPTIMIZATION COORDINATE SETUP
------------------------------------------------------------------------------

The optimization will be done in redundant internal coordinates (2022)
Making redundant internal coordinates   ...  (2022 redundants) done
Evaluating the initial hessian          ...  (Almloef) done
Evaluating the coordinates              ...  done
Calculating the B-matrix                .... done
Calculating the G-matrix                .... done
The number of degrees of freedom        ....  405

    -----------------------------------------------------------------
                    Redundant Internal Coordinates


    -----------------------------------------------------------------
         Definition                    Initial Value    Approx d2E/dq
    -----------------------------------------------------------------
      1. B(C   1,C   0)                  1.4025         0.596721   
      2. B(C   2,C   1)                  1.4000         0.602194   
      3. B(C   3,C   2)                  1.3884         0.628390   
      4. B(C   4,C   3)                  1.3862         0.633474   
      5. B(C   5,C   4)                  1.3860         0.634048   
      6. B(C   5,C   0)                  1.3864         0.633032   
      7. B(C   6,C   4)                  1.5020         0.413989   
      8. B(C   7,C   6)                  1.5357         0.365878   
      9. B(C   8,C   7)                  1.5407         0.359192   
     10. B(C   9,C   8)                  1.5374         0.363529   
     11. B(C  10,C   9)                  1.5046         0.410155   
     12. B(C  11,C  10)                  1.3934         0.616956   
     13. B(C  12,C  11)                  1.3813         0.644979   
     14. B(C  13,C  12)                  1.4052         0.590776   
     15. B(C  14,C  13)                  1.3822         0.642926   
     16. B(C  15,C  14)                  1.3863         0.633427   
     17. B(C  15,C  10)                  1.3854         0.635559   
     18. B(C  16,C   7)                  1.5361         0.365316   
     19. B(C  17,C   8)                  1.5358         0.365759   
     20. B(O  18,C   2)                  1.3669         0.609098   
     21. B(O  19,C   0)                  1.3683         0.605933   
     22. B(O  20,C   1)                  1.3771         0.586806   
     23. B(O  21,C  13)                  1.3613         0.621747   
     24. B(O  22,C  12)                  1.3790         0.582667   
     25. B(C  23,O  20)                  1.4167         0.507390   
     26. B(C  24,C  23)                  1.5534         0.342752   
     27. B(C  25,C  24)                  1.5161         0.393089   
     28. B(C  26,C  23)                  1.5388         0.361709   
     29. B(O  27,C  26)                  1.4034         0.532691   
     30. B(C  28,C  25)                  1.3929         0.618133   
     31. B(C  29,C  28)                  1.3810         0.645745   
     32. B(C  30,C  29)                  1.4034         0.594740   
     33. B(C  31,C  30)                  1.3810         0.645777   
     34. B(C  32,C  31)                  1.3848         0.636759   
     35. B(C  32,C  25)                  1.3831         0.640888   
     36. B(C  33,O  19)                  1.4071         0.525552   
     37. B(C  34,O  18)                  1.4080         0.523711   
     38. B(C  35,O  22)                  1.4080         0.523797   
     39. B(O  36,C  24)                  1.4011         0.537201   
     40. B(O  37,C  16)                  1.4078         0.524271   
     41. B(O  38,C  17)                  1.4060         0.527711   
     42. B(O  39,C  29)                  1.3746         0.592116   
     43. B(O  40,C  30)                  1.3695         0.603424   
     44. B(C  41,O  39)                  1.4087         0.522438   
     45. B(H  42,C   3)                  1.0777         0.376686   
     46. B(H  43,C   5)                  1.0777         0.376706   
     47. B(H  44,C   6)                  1.0912         0.358540   
     48. B(H  45,C   6)                  1.0900         0.360061   
     49. B(H  46,C   7)                  1.0969         0.351027   
     50. B(H  47,C   8)                  1.0969         0.351129   
     51. B(H  48,C   9)                  1.0945         0.354167   
     52. B(H  49,C   9)                  1.0916         0.357946   
     53. B(H  50,C  11)                  1.0773         0.377355   
     54. B(H  51,C  14)                  1.0785         0.375604   
     55. B(H  52,C  15)                  1.0802         0.373242   
     56. B(H  53,C  16)                  1.0977         0.350021   
     57. B(H  54,C  16)                  1.0915         0.358113   
     58. B(H  55,C  17)                  1.0916         0.358036   
     59. B(H  56,C  17)                  1.1021         0.344465   
     60. B(H  57,O  21)                  0.9672         0.506469   
     61. B(H  57,O  22)                  2.1121         0.010000   
     62. B(H  58,C  23)                  1.0941         0.354768   
     63. B(H  59,C  24)                  1.0987         0.348762   
     64. B(H  60,C  26)                  1.0965         0.351587   
     65. B(H  61,C  26)                  1.0916         0.357966   
     66. B(H  62,O  27)                  0.9637         0.512971   
     67. B(H  63,C  28)                  1.0782         0.376096   
     68. B(H  64,C  31)                  1.0781         0.376139   
     69. B(H  65,C  32)                  1.0783         0.375896   
     70. B(H  66,C  33)                  1.0947         0.353895   
     71. B(H  67,C  33)                  1.0889         0.361554   
     72. B(H  68,C  33)                  1.0939         0.355022   
     73. B(H  69,C  34)                  1.0943         0.354492   
     74. B(H  70,C  34)                  1.0895         0.360721   
     75. B(H  71,C  34)                  1.0948         0.353865   
     76. B(H  72,C  35)                  1.0888         0.361726   
     77. B(H  73,H  64)                  4.8782         0.010000   
     78. B(H  73,C  35)                  1.0939         0.355024   
     79. B(H  74,C  35)                  1.0940         0.354869   
     80. B(H  75,O  20)                  2.2597         0.010000   
     81. B(H  75,O  19)                  2.0964         0.010000   
     82. B(H  75,O  36)                  0.9731         0.495460   
     83. B(H  76,O  40)                  1.9688         0.012777   
     84. B(H  76,O  37)                  0.9698         0.501504   
     85. B(H  77,O  38)                  0.9645         0.511346   
     86. B(H  78,O  39)                  2.0994         0.010000   
     87. B(H  78,O  40)                  0.9685         0.503919   
     88. B(H  79,H  71)                  2.4798         0.010000   
     89. B(H  79,C  41)                  1.0929         0.356228   
     90. B(H  80,C  41)                  1.0943         0.354438   
     91. B(H  81,O  21)                  2.3700         0.010000   
     92. B(H  81,C  41)                  1.0886         0.361905   
     93. A(C   1,C   0,O  19)          114.6420         0.426517   
     94. A(C   5,C   0,O  19)          124.8644         0.431060   
     95. A(C   1,C   0,C   5)          120.4883         0.432704   
     96. A(C   0,C   1,O  20)          116.1596         0.424076   
     97. A(C   0,C   1,C   2)          119.3267         0.428841   
     98. A(C   2,C   1,O  20)          124.3441         0.424769   
     99. A(C   3,C   2,O  18)          123.7195         0.430894   
    100. A(C   1,C   2,C   3)          119.2181         0.432842   
    101. A(C   1,C   2,O  18)          117.0624         0.427614   
    102. A(C   4,C   3,H  42)          118.4259         0.356913   
    103. A(C   2,C   3,H  42)          120.3031         0.356425   
    104. A(C   2,C   3,C   4)          121.2643         0.436806   
    105. A(C   5,C   4,C   6)          121.2816         0.405522   
    106. A(C   3,C   4,C   6)          119.0816         0.405457   
    107. A(C   3,C   4,C   5)          119.6204         0.437512   
    108. A(C   4,C   5,H  43)          119.1442         0.356971   
    109. A(C   0,C   5,H  43)          120.8366         0.356874   
    110. A(C   0,C   5,C   4)          120.0190         0.437457   
    111. A(C   4,C   6,H  44)          108.6648         0.329617   
    112. A(C   7,C   6,H  45)          109.4047         0.323207   
    113. A(C   4,C   6,C   7)          110.6900         0.368485   
    114. A(H  44,C   6,H  45)          108.6003         0.290636   
    115. A(C   4,C   6,H  45)          110.4071         0.329848   
    116. A(C   7,C   6,H  44)          109.0301         0.322982   
    117. A(C   6,C   7,C  16)          110.1115         0.360684   
    118. A(C   8,C   7,C  16)          110.6625         0.359552   
    119. A(C  16,C   7,H  46)          106.8530         0.321783   
    120. A(C   8,C   7,H  46)          106.7930         0.320894   
    121. A(C   6,C   7,H  46)          107.9226         0.321864   
    122. A(C   6,C   7,C   8)          114.1491         0.359646   
    123. A(C   7,C   8,C  17)          114.4806         0.359626   
    124. A(C  17,C   8,H  47)          107.2371         0.321862   
    125. A(C   7,C   8,C   9)          111.4462         0.359252   
    126. A(C   9,C   8,H  47)          108.5906         0.321540   
    127. A(C   7,C   8,H  47)          105.9725         0.320909   
    128. A(C   9,C   8,C  17)          108.8541         0.360362   
    129. A(H  48,C   9,H  49)          107.1927         0.289809   
    130. A(C  10,C   9,H  48)          108.6262         0.328445   
    131. A(C  10,C   9,H  49)          109.1543         0.329021   
    132. A(C   8,C   9,C  10)          113.9322         0.367491   
    133. A(C   8,C   9,H  48)          108.4099         0.321994   
    134. A(C   8,C   9,H  49)          109.3082         0.322554   
    135. A(C   9,C  10,C  11)          120.2281         0.402909   
    136. A(C  11,C  10,C  15)          118.7812         0.435621   
    137. A(C   9,C  10,C  15)          120.9798         0.405027   
    138. A(C  10,C  11,C  12)          120.7203         0.436777   
    139. A(C  10,C  11,H  50)          119.2275         0.355423   
    140. A(C  12,C  11,H  50)          120.0519         0.358115   
    141. A(C  11,C  12,C  13)          119.9648         0.433381   
    142. A(C  13,C  12,O  22)          114.5433         0.422782   
    143. A(C  11,C  12,O  22)          125.4919         0.429480   
    144. A(C  12,C  13,O  21)          120.1930         0.427723   
    145. A(C  12,C  13,C  14)          119.2884         0.433132   
    146. A(C  14,C  13,O  21)          120.5184         0.434271   
    147. A(C  13,C  14,H  51)          118.6532         0.357638   
    148. A(C  13,C  14,C  15)          120.1550         0.438605   
    149. A(C  15,C  14,H  51)          121.1882         0.356734   
    150. A(C  14,C  15,H  52)          119.1567         0.356352   
    151. A(C  10,C  15,H  52)          119.7760         0.356555   
    152. A(C  10,C  15,C  14)          121.0556         0.437694   
    153. A(O  37,C  16,H  54)          106.3891         0.340673   
    154. A(C   7,C  16,H  54)          110.3655         0.322838   
    155. A(O  37,C  16,H  53)          110.7202         0.339374   
    156. A(C   7,C  16,H  53)          108.4607         0.321632   
    157. A(C   7,C  16,O  37)          112.3705         0.381303   
    158. A(H  53,C  16,H  54)          108.4674         0.289296   
    159. A(O  38,C  17,H  56)          109.7728         0.338839   
    160. A(C   8,C  17,O  38)          114.3338         0.381816   
    161. A(H  55,C  17,H  56)          107.7595         0.288562   
    162. A(C   8,C  17,H  56)          108.2954         0.320854   
    163. A(O  38,C  17,H  55)          105.4980         0.341033   
    164. A(C   8,C  17,H  55)          110.9893         0.322891   
    165. A(C   2,O  18,C  34)          118.1627         0.414380   
    166. A(C   0,O  19,C  33)          118.3360         0.414255   
    167. A(C   1,O  20,C  23)          119.0992         0.409342   
    168. A(C  13,O  21,H  57)          107.5538         0.368627   
    169. A(C  12,O  22,C  35)          118.0714         0.411141   
    170. A(C  26,C  23,H  58)          109.3825         0.321819   
    171. A(C  24,C  23,H  58)          110.1811         0.318999   
    172. A(O  20,C  23,H  58)          111.2866         0.338285   
    173. A(C  24,C  23,C  26)          111.3400         0.356098   
    174. A(O  20,C  23,C  26)          104.8699         0.378495   
    175. A(O  20,C  23,C  24)          109.6804         0.374989   
    176. A(C  23,C  24,O  36)          109.7765         0.378709   
    177. A(O  36,C  24,H  59)          106.3805         0.340553   
    178. A(C  25,C  24,H  59)          108.0971         0.325329   
    179. A(C  23,C  24,H  59)          108.5611         0.318112   
    180. A(C  25,C  24,O  36)          113.4751         0.387834   
    181. A(C  23,C  24,C  25)          110.3551         0.361175   
    182. A(C  28,C  25,C  32)          119.5059         0.436426   
    183. A(C  24,C  25,C  32)          121.4533         0.402593   
    184. A(C  24,C  25,C  28)          119.0389         0.400038   
    185. A(O  27,C  26,H  61)          106.5098         0.341559   
    186. A(H  60,C  26,H  61)          108.6696         0.289479   
    187. A(C  23,C  26,H  61)          108.2940         0.322292   
    188. A(O  27,C  26,H  60)          111.5667         0.340533   
    189. A(C  23,C  26,H  60)          108.4804         0.321344   
    190. A(C  23,C  26,O  27)          113.1760         0.381701   
    191. A(C  26,O  27,H  62)          108.6615         0.359793   
    192. A(C  29,C  28,H  63)          120.3713         0.357983   
    193. A(C  25,C  28,H  63)          119.2745         0.355336   
    194. A(C  25,C  28,C  29)          120.3537         0.437021   
    195. A(C  30,C  29,O  39)          114.7083         0.424507   
    196. A(C  28,C  29,O  39)          125.6589         0.430814   
    197. A(C  28,C  29,C  30)          119.6317         0.433995   
    198. A(C  31,C  30,O  40)          120.4773         0.432285   
    199. A(C  29,C  30,O  40)          119.7173         0.425947   
    200. A(C  29,C  30,C  31)          119.7970         0.433999   
    201. A(C  32,C  31,H  64)          120.8096         0.357139   
    202. A(C  30,C  31,H  64)          119.1115         0.357994   
    203. A(C  30,C  31,C  32)          120.0750         0.439371   
    204. A(C  31,C  32,H  65)          119.8950         0.357099   
    205. A(C  25,C  32,H  65)          119.5880         0.357492   
    206. A(C  25,C  32,C  31)          120.5089         0.438769   
    207. A(H  67,C  33,H  68)          109.3069         0.290375   
    208. A(H  66,C  33,H  68)          109.4377         0.289402   
    209. A(O  19,C  33,H  68)          111.5161         0.340318   
    210. A(H  66,C  33,H  67)          109.3714         0.290230   
    211. A(O  19,C  33,H  67)          105.6035         0.341357   
    212. A(O  19,C  33,H  66)          111.5097         0.340137   
    213. A(H  69,C  34,H  71)          109.3046         0.289330   
    214. A(O  18,C  34,H  71)          111.7327         0.339933   
    215. A(H  69,C  34,H  70)          109.0950         0.290202   
    216. A(O  18,C  34,H  70)          105.5414         0.341026   
    217. A(O  18,C  34,H  69)          111.3764         0.340034   
    218. A(H  70,C  34,H  71)          109.7002         0.290122   
    219. A(H  73,C  35,H  74)          109.7036         0.289527   
    220. A(H  72,C  35,H  74)          109.2927         0.290377   
    221. A(O  22,C  35,H  74)          111.2995         0.340104   
    222. A(H  72,C  35,H  73)          109.4818         0.290397   
    223. A(O  22,C  35,H  73)          111.3712         0.340128   
    224. A(O  22,C  35,H  72)          105.5911         0.341194   
    225. A(C  24,O  36,H  75)          107.1222         0.358185   
    226. A(C  16,O  37,H  76)          107.7852         0.357441   
    227. A(C  17,O  38,H  77)          108.3739         0.359024   
    228. A(C  29,O  39,C  41)          118.1927         0.412126   
    229. A(C  30,O  40,H  78)          107.2749         0.366423   
    230. A(H  80,C  41,H  81)          109.9694         0.290344   
    231. A(H  79,C  41,H  81)          109.3818         0.290574   
    232. A(O  39,C  41,H  81)          105.3908         0.341074   
    233. A(H  79,C  41,H  80)          109.3914         0.289625   
    234. A(O  39,C  41,H  80)          111.0842         0.339887   
    235. A(O  39,C  41,H  79)          111.5480         0.340173   
    236. D(O  20,C   1,C   0,O  19)     -7.7890         0.024533   
    237. D(C   2,C   1,C   0,O  19)    176.7379         0.024533   
    238. D(C   2,C   1,C   0,C   5)     -2.4664         0.024533   
    239. D(O  20,C   1,C   0,C   5)    173.0067         0.024533   
    240. D(O  18,C   2,C   1,C   0)   -179.1009         0.025009   
    241. D(C   3,C   2,C   1,C   0)      0.8209         0.025009   
    242. D(C   3,C   2,C   1,O  20)   -174.2570         0.025009   
    243. D(O  18,C   2,C   1,O  20)      5.8212         0.025009   
    244. D(C   4,C   3,C   2,C   1)      1.4603         0.027370   
    245. D(H  42,C   3,C   2,O  18)      0.4175         0.027370   
    246. D(C   4,C   3,C   2,O  18)   -178.6234         0.027370   
    247. D(H  42,C   3,C   2,C   1)   -179.4988         0.027370   
    248. D(C   6,C   4,C   3,H  42)      0.2863         0.027843   
    249. D(C   5,C   4,C   3,H  42)    178.8329         0.027843   
    250. D(C   5,C   4,C   3,C   2)     -2.1087         0.027843   
    251. D(C   6,C   4,C   3,C   2)    179.3448         0.027843   
    252. D(H  43,C   5,C   4,C   6)     -0.8916         0.027897   
    253. D(H  43,C   5,C   4,C   3)   -179.4053         0.027897   
    254. D(C   0,C   5,C   4,C   3)      0.4398         0.027897   
    255. D(C   4,C   5,C   0,O  19)   -177.2794         0.027802   
    256. D(H  43,C   5,C   0,C   1)   -178.3184         0.027802   
    257. D(H  43,C   5,C   0,O  19)      2.5631         0.027802   
    258. D(C   0,C   5,C   4,C   6)    178.9535         0.027897   
    259. D(C   4,C   5,C   0,C   1)      1.8391         0.027802   
    260. D(H  45,C   6,C   4,C   3)   -162.5248         0.012685   
    261. D(H  44,C   6,C   4,C   5)    137.9588         0.012685   
    262. D(H  44,C   6,C   4,C   3)    -43.5196         0.012685   
    263. D(C   7,C   6,C   4,C   5)   -102.3406         0.012685   
    264. D(C   7,C   6,C   4,C   3)     76.1810         0.012685   
    265. D(C   8,C   7,C   6,H  44)    -39.9864         0.010716   
    266. D(C   8,C   7,C   6,C   4)   -159.4674         0.010716   
    267. D(C  16,C   7,C   6,H  45)    -46.5209         0.010716   
    268. D(C  16,C   7,C   6,H  44)   -165.1554         0.010716   
    269. D(C   8,C   7,C   6,H  45)     78.6481         0.010716   
    270. D(C  16,C   7,C   6,C   4)     75.3636         0.010716   
    271. D(C  17,C   8,C   7,H  46)   -164.1048         0.010354   
    272. D(C  17,C   8,C   7,C  16)     79.9534         0.010354   
    273. D(C  17,C   8,C   7,C   6)    -44.9235         0.010354   
    274. D(C   9,C   8,C   7,C  16)   -155.9663         0.010354   
    275. D(C   9,C   8,C   7,H  46)    -40.0244         0.010354   
    276. D(C   9,C   8,C   7,C   6)     79.1569         0.010354   
    277. D(H  48,C   9,C   8,C  17)    -57.7054         0.010588   
    278. D(H  48,C   9,C   8,C   7)    175.0949         0.010588   
    279. D(C  10,C   9,C   8,H  47)    -62.3323         0.010588   
    280. D(C  10,C   9,C   8,C  17)   -178.7700         0.010588   
    281. D(H  48,C   9,C   8,H  47)     58.7323         0.010588   
    282. D(C  10,C   9,C   8,C   7)     54.0303         0.010588   
    283. D(C  15,C  10,C   9,H  48)    111.2177         0.012459   
    284. D(C  15,C  10,C   9,C   8)   -127.8383         0.012459   
    285. D(C  11,C  10,C   9,H  49)    175.8638         0.012459   
    286. D(C  11,C  10,C   9,H  48)    -67.5671         0.012459   
    287. D(C  11,C  10,C   9,C   8)     53.3769         0.012459   
    288. D(H  50,C  11,C  10,C  15)    179.8305         0.026323   
    289. D(H  50,C  11,C  10,C   9)     -1.3582         0.026323   
    290. D(C  12,C  11,C  10,C  15)      0.0585         0.026323   
    291. D(C  12,C  11,C  10,C   9)    178.8699         0.026323   
    292. D(O  22,C  12,C  11,H  50)     -1.4059         0.028933   
    293. D(C  13,C  12,C  11,H  50)    178.5714         0.028933   
    294. D(O  22,C  12,C  11,C  10)    178.3642         0.028933   
    295. D(C  13,C  12,C  11,C  10)     -1.6585         0.028933   
    296. D(O  21,C  13,C  12,C  11)   -177.7919         0.024021   
    297. D(C  14,C  13,C  12,O  22)   -178.0131         0.024021   
    298. D(C  14,C  13,C  12,C  11)      2.0072         0.024021   
    299. D(O  21,C  13,C  12,O  22)      2.1878         0.024021   
    300. D(H  51,C  14,C  13,O  21)     -0.2972         0.028737   
    301. D(H  51,C  14,C  13,C  12)    179.9045         0.028737   
    302. D(C  15,C  14,C  13,O  21)    179.0305         0.028737   
    303. D(C  15,C  14,C  13,C  12)     -0.7679         0.028737   
    304. D(H  52,C  15,C  14,H  51)     -0.2886         0.027839   
    305. D(H  52,C  15,C  14,C  13)   -179.5989         0.027839   
    306. D(C  10,C  15,C  14,H  51)    178.4664         0.027839   
    307. D(C  10,C  15,C  14,C  13)     -0.8438         0.027839   
    308. D(H  52,C  15,C  10,C  11)    179.9505         0.028039   
    309. D(H  52,C  15,C  10,C   9)      1.1484         0.028039   
    310. D(C  14,C  15,C  10,C  11)      1.2031         0.028039   
    311. D(C  14,C  15,C  10,C   9)   -177.5990         0.028039   
    312. D(H  53,C  16,C   7,H  46)     66.3762         0.010686   
    313. D(H  53,C  16,C   7,C   8)   -177.7193         0.010686   
    314. D(H  53,C  16,C   7,C   6)    -50.5824         0.010686   
    315. D(O  37,C  16,C   7,H  46)    -56.3585         0.010686   
    316. D(O  37,C  16,C   7,C   8)     59.5460         0.010686   
    317. D(O  37,C  16,C   7,C   6)   -173.3171         0.010686   
    318. D(H  55,C  17,C   8,H  47)    175.2652         0.010710   
    319. D(H  55,C  17,C   8,C   9)    -67.4335         0.010710   
    320. D(H  55,C  17,C   8,C   7)     58.0172         0.010710   
    321. D(O  38,C  17,C   8,H  47)     56.0825         0.010710   
    322. D(O  38,C  17,C   8,C   9)    173.3838         0.010710   
    323. D(O  38,C  17,C   8,C   7)    -61.1654         0.010710   
    324. D(C  34,O  18,C   2,C   3)      3.7455         0.027151   
    325. D(C  34,O  18,C   2,C   1)   -176.3366         0.027151   
    326. D(C  33,O  19,C   0,C   5)     -1.0084         0.029627   
    327. D(C  33,O  19,C   0,C   1)    179.8273         0.029627   
    328. D(C  23,O  20,C   1,C   2)    -58.5091         0.027661   
    329. D(C  23,O  20,C   1,C   0)    126.2715         0.027661   
    330. D(H  57,O  21,C  13,C  14)   -179.3029         0.031316   
    331. D(H  57,O  21,C  13,C  12)      0.4936         0.031316   
    332. D(C  35,O  22,C  12,C  13)    178.6081         0.027246   
    333. D(C  35,O  22,C  12,C  11)     -1.4134         0.027246   
    334. D(H  58,C  23,O  20,C   1)     54.3942         0.022106   
    335. D(C  26,C  23,O  20,C   1)    172.5561         0.022106   
    336. D(C  24,C  23,O  20,C   1)    -67.7850         0.022106   
    337. D(O  36,C  24,C  23,H  58)   -174.3639         0.010000   
    338. D(O  36,C  24,C  23,C  26)     64.0885         0.010000   
    339. D(O  36,C  24,C  23,O  20)    -51.5279         0.010000   
    340. D(C  25,C  24,C  23,H  58)    -48.5672         0.010000   
    341. D(C  25,C  24,C  23,C  26)   -170.1148         0.010000   
    342. D(C  25,C  24,C  23,O  20)     74.2688         0.010000   
    343. D(C  32,C  25,C  24,O  36)      2.9446         0.011486   
    344. D(C  32,C  25,C  24,C  23)   -120.7371         0.011486   
    345. D(C  28,C  25,C  24,H  59)    -58.8139         0.011486   
    346. D(C  28,C  25,C  24,O  36)   -176.5494         0.011486   
    347. D(C  28,C  25,C  24,C  23)     59.7689         0.011486   
    348. D(H  60,C  26,C  23,H  58)    177.9944         0.010490   
    349. D(H  60,C  26,C  23,C  24)    -59.9943         0.010490   
    350. D(H  60,C  26,C  23,O  20)     58.5491         0.010490   
    351. D(O  27,C  26,C  23,H  58)    -57.6260         0.010490   
    352. D(O  27,C  26,C  23,C  24)     64.3852         0.010490   
    353. D(O  27,C  26,C  23,O  20)   -177.0713         0.010490   
    354. D(H  62,O  27,C  26,H  61)    167.8596         0.022544   
    355. D(H  62,O  27,C  26,H  60)     49.4245         0.022544   
    356. D(H  62,O  27,C  26,C  23)    -73.2575         0.022544   
    357. D(H  63,C  28,C  25,C  32)   -176.5146         0.026430   
    358. D(H  63,C  28,C  25,C  24)      2.9894         0.026430   
    359. D(C  29,C  28,C  25,C  32)      3.7466         0.026430   
    360. D(C  29,C  28,C  25,C  24)   -176.7494         0.026430   
    361. D(C  30,C  29,C  28,H  63)    178.4341         0.029007   
    362. D(C  30,C  29,C  28,C  25)     -1.8300         0.029007   
    363. D(O  39,C  29,C  28,H  63)     -1.1493         0.029007   
    364. D(O  39,C  29,C  28,C  25)    178.5866         0.029007   
    365. D(O  40,C  30,C  29,O  39)     -0.7987         0.024362   
    366. D(O  40,C  30,C  29,C  28)    179.5740         0.024362   
    367. D(C  31,C  30,C  29,O  39)    178.1525         0.024362   
    368. D(C  31,C  30,C  29,C  28)     -1.4749         0.024362   
    369. D(H  64,C  31,C  30,O  40)      2.5085         0.029010   
    370. D(H  64,C  31,C  30,C  29)   -176.4345         0.029010   
    371. D(C  32,C  31,C  30,O  40)   -178.2063         0.029010   
    372. D(C  32,C  31,C  30,C  29)      2.8507         0.029010   
    373. D(H  65,C  32,C  31,H  64)     -0.6157         0.028152   
    374. D(H  65,C  32,C  31,C  30)   -179.8886         0.028152   
    375. D(C  25,C  32,C  31,H  64)    178.3482         0.028152   
    376. D(C  25,C  32,C  31,C  30)     -0.9247         0.028152   
    377. D(H  65,C  32,C  25,C  28)    176.5962         0.028543   
    378. D(H  65,C  32,C  25,C  24)     -2.8954         0.028543   
    379. D(C  31,C  32,C  25,C  28)     -2.3708         0.028543   
    380. D(C  31,C  32,C  25,C  24)    178.1375         0.028543   
    381. D(H  68,C  33,O  19,C   0)    -62.0540         0.023793   
    382. D(H  67,C  33,O  19,C   0)    179.3200         0.023793   
    383. D(H  66,C  33,O  19,C   0)     60.6198         0.023793   
    384. D(H  71,C  34,O  18,C   2)    -62.1494         0.021758   
    385. D(H  70,C  34,O  18,C   2)    178.6730         0.021758   
    386. D(H  69,C  34,O  18,C   2)     60.4119         0.021758   
    387. D(H  74,C  35,O  22,C  12)     63.2139         0.023627   
    388. D(H  73,C  35,O  22,C  12)    -59.5485         0.023627   
    389. D(H  72,C  35,O  22,C  12)   -178.2996         0.023627   
    390. D(H  75,O  36,C  24,H  59)    164.5614         0.022946   
    391. D(H  75,O  36,C  24,C  25)    -76.7110         0.022946   
    392. D(H  75,O  36,C  24,C  23)     47.2859         0.022946   
    393. D(H  76,O  37,C  16,H  54)   -174.2045         0.021806   
    394. D(H  76,O  37,C  16,H  53)    -56.5417         0.021806   
    395. D(H  76,O  37,C  16,C   7)     64.9107         0.021806   
    396. D(H  77,O  38,C  17,H  56)     67.9237         0.022106   
    397. D(H  77,O  38,C  17,H  55)   -176.2246         0.022106   
    398. D(H  77,O  38,C  17,C   8)    -53.9926         0.022106   
    399. D(C  41,O  39,C  29,C  30)   -173.5380         0.028198   
    400. D(C  41,O  39,C  29,C  28)      6.0633         0.028198   
    401. D(H  78,O  40,C  30,C  31)   -177.2654         0.029364   
    402. D(H  78,O  40,C  30,C  29)      1.6785         0.029364   
    403. D(H  81,C  41,O  39,C  29)   -178.2849         0.023498   
    404. D(H  80,C  41,O  39,C  29)     62.6522         0.023498   
    405. D(H  79,C  41,O  39,C  29)    -59.6799         0.023498   
    -----------------------------------------------------------------

Number of atoms                         .... 82
Number of degrees of freedom            .... 405


         *************************************************************
         *                GEOMETRY OPTIMIZATION CYCLE   1            *
         *************************************************************
---------------------------------
CARTESIAN COORDINATES (ANGSTROEM)
---------------------------------
  C     10.511713   -7.895714   -2.073754
  C     11.139299   -9.064313   -2.529341
  C     10.480627  -10.292615   -2.397013
  C      9.212394  -10.324245   -1.832790
  C      8.576360   -9.161342   -1.426843
  C      9.231324   -7.945521   -1.544295
  C      7.198302   -9.251000   -0.836049
  C      7.260186   -9.764962    0.609733
  C      5.934640  -10.357137    1.125459
  C      5.720075  -11.789202    0.608919
  C      6.864528  -12.721239    0.900925
  C      7.339125  -12.862872    2.203372
  C      8.373907  -13.732986    2.486643
  C      8.935987  -14.512549    1.461436
  C      8.470457  -14.366374    0.168212
  C      7.448839  -13.470696   -0.107088
  C      7.757012   -8.652324    1.545018
  C      4.691431   -9.518561    0.794151
  O     11.142383  -11.403957   -2.839151
  O     11.268157   -6.761002   -2.185953
  O     12.344923   -8.894633   -3.172785
  O      9.925375  -15.404089    1.743382
  O      8.939899  -13.926405    3.729177
  C     13.475648   -9.617619   -2.719271
  C     13.893198   -9.107368   -1.312690
  C     12.921037   -9.605114   -0.261104
  C     14.569441   -9.336348   -3.764434
  O     15.763258  -10.030768   -3.515134
  C     12.755134  -10.977392   -0.089199
  C     11.828405  -11.460652    0.813497
  C     11.079054  -10.561085    1.587344
  C     11.295370   -9.202848    1.462496
  C     12.206659   -8.727678    0.534304
  C     10.712197   -5.542387   -1.754934
  C     10.471109  -12.640702   -2.789803
  C      8.452911  -13.160459    4.805571
  O     14.026028   -7.712730   -1.334471
  O      7.975556   -9.113176    2.857122
  O      4.701935   -8.224693    1.344194
  O     11.556144  -12.787159    1.049812
  O     10.153390  -11.038148    2.476735
  C     12.360664  -13.754756    0.416605
  H      8.692757  -11.261082   -1.715140
  H      8.733381   -7.047369   -1.217382
  H      6.605955   -9.944471   -1.435133
  H      6.713264   -8.274980   -0.852988
  H      8.004015  -10.570178    0.650201
  H      6.023311  -10.389183    2.218267
  H      4.814186  -12.191888    1.072803
  H      5.546183  -11.762054   -0.468433
  H      6.891820  -12.281537    2.992330
  H      8.910204  -14.968701   -0.610916
  H      7.092969  -13.374131   -1.122448
  H      8.678103   -8.229370    1.123464
  H      7.013067   -7.856947    1.617863
  H      4.591404   -9.376562   -0.283507
  H      3.801467  -10.065683    1.145162
  H     10.095141  -15.360302    2.694512
  H     13.272868  -10.692212   -2.686102
  H     14.887760   -9.509686   -1.075733
  H     14.735275   -8.253457   -3.811188
  H     14.209683   -9.677083   -4.737113
  H     16.206729   -9.621767   -2.763647
  H     13.355102  -11.658034   -0.671618
  H     10.755275   -8.524606    2.103329
  H     12.374613   -7.666662    0.440512
  H     10.461039   -5.570243   -0.689767
  H     11.483171   -4.792403   -1.924735
  H      9.820565   -5.281659   -2.332477
  H      9.562058  -12.625689   -3.398765
  H     11.167421  -13.367633   -3.206693
  H     10.214535  -12.921992   -1.763386
  H      9.053724  -13.449960    5.666177
  H      8.574199  -12.089352    4.619674
  H      7.401050  -13.382932    5.007793
  H     13.236329   -7.356607   -1.777807
  H      8.700469   -9.756794    2.828152
  H      4.849182   -8.299493    2.294495
  H     10.189651  -12.005245    2.438591
  H     12.312912  -13.666651   -0.671734
  H     13.402348  -13.674867    0.742237
  H     11.949070  -14.715944    0.719659

----------------------------
CARTESIAN COORDINATES (A.U.)
----------------------------
  NO LB      ZA    FRAG     MASS         X           Y           Z
   0 C     6.0000    0    12.011   19.864259  -14.920737   -3.918827
   1 C     6.0000    0    12.011   21.050225  -17.129070   -4.779762
   2 C     6.0000    0    12.011   19.805514  -19.450223   -4.529697
   3 C     6.0000    0    12.011   17.408901  -19.509995   -3.463471
   4 C     6.0000    0    12.011   16.206971  -17.312427   -2.696342
   5 C     6.0000    0    12.011   17.444674  -15.014859   -2.918295
   6 C     6.0000    0    12.011   13.602819  -17.481857   -1.579904
   7 C     6.0000    0    12.011   13.719764  -18.453104    1.152229
   8 C     6.0000    0    12.011   11.214844  -19.572153    2.126810
   9 C     6.0000    0    12.011   10.809375  -22.278362    1.150690
  10 C     6.0000    0    12.011   12.972077  -24.039657    1.702502
  11 C     6.0000    0    12.011   13.868936  -24.307305    4.163769
  12 C     6.0000    0    12.011   15.824392  -25.951582    4.699074
  13 C     6.0000    0    12.011   16.886569  -27.424743    2.761714
  14 C     6.0000    0    12.011   16.006844  -27.148513    0.317874
  15 C     6.0000    0    12.011   14.076265  -25.455927   -0.202368
  16 C     6.0000    0    12.011   14.658629  -16.350523    2.919661
  17 C     6.0000    0    12.011    8.865519  -17.987473    1.500727
  18 O     8.0000    0    15.999   21.056052  -21.550356   -5.365217
  19 O     8.0000    0    15.999   21.293731  -12.776443   -4.130852
  20 O     8.0000    0    15.999   23.328523  -16.808420   -5.995695
  21 O     8.0000    0    15.999   18.756241  -29.109509    3.294514
  22 O     8.0000    0    15.999   16.893961  -26.317092    7.047124
  23 C     6.0000    0    12.011   25.465284  -18.174667   -5.138678
  24 C     6.0000    0    12.011   26.254340  -17.210432   -2.480624
  25 C     6.0000    0    12.011   24.417222  -18.151035   -0.493415
  26 C     6.0000    0    12.011   27.532253  -17.643141   -7.113750
  27 O     8.0000    0    15.999   29.788240  -18.955405   -6.642641
  28 C     6.0000    0    12.011   24.103710  -20.744265   -0.168561
  29 C     6.0000    0    12.011   22.352446  -21.657494    1.537286
  30 C     6.0000    0    12.011   20.936377  -19.957557    2.999645
  31 C     6.0000    0    12.011   21.345155  -17.390862    2.763716
  32 C     6.0000    0    12.011   23.067243  -16.492921    1.009689
  33 C     6.0000    0    12.011   20.243118  -10.473594   -3.316345
  34 C     6.0000    0    12.011   19.787528  -23.887464   -5.271964
  35 C     6.0000    0    12.011   15.973687  -24.869664    9.081214
  36 O     8.0000    0    15.999   26.505352  -14.574948   -2.521785
  37 O     8.0000    0    15.999   15.071617  -17.221406    5.399178
  38 O     8.0000    0    15.999    8.885370  -15.542418    2.540159
  39 O     8.0000    0    15.999   21.837948  -24.164229    1.983857
  40 O     8.0000    0    15.999   19.187126  -20.859076    4.680351
  41 C     6.0000    0    12.011   23.358270  -25.992722    0.787269
  42 H     1.0000    0     1.008   16.426930  -21.280361   -3.241144
  43 H     1.0000    0     1.008   16.503698  -13.317598   -2.300518
  44 H     1.0000    0     1.008   12.483446  -18.792327   -2.712008
  45 H     1.0000    0     1.008   12.686230  -15.637446   -1.611913
  46 H     1.0000    0     1.008   15.125396  -19.974741    1.228702
  47 H     1.0000    0     1.008   11.382409  -19.632710    4.191916
  48 H     1.0000    0     1.008    9.097493  -23.039330    2.027303
  49 H     1.0000    0     1.008   10.480767  -22.227060   -0.885210
  50 H     1.0000    0     1.008   13.023653  -23.208742    5.654685
  51 H     1.0000    0     1.008   16.837846  -28.286746   -1.154465
  52 H     1.0000    0     1.008   13.403768  -25.273445   -2.121120
  53 H     1.0000    0     1.008   16.399238  -15.551255    2.123040
  54 H     1.0000    0     1.008   13.252775  -14.847478    3.057319
  55 H     1.0000    0     1.008    8.676497  -17.719134   -0.535750
  56 H     1.0000    0     1.008    7.183732  -19.021385    2.164042
  57 H     1.0000    0     1.008   19.077051  -29.026764    5.091890
  58 H     1.0000    0     1.008   25.082086  -20.205352   -5.075998
  59 H     1.0000    0     1.008   28.133789  -17.970702   -2.032841
  60 H     1.0000    0     1.008   27.845635  -15.596773   -7.202102
  61 H     1.0000    0     1.008   26.852409  -18.287037   -8.951846
  62 H     1.0000    0     1.008   30.626280  -18.182504   -5.222536
  63 H     1.0000    0     1.008   25.237485  -22.030492   -1.269175
  64 H     1.0000    0     1.008   20.324524  -16.109170    3.974715
  65 H     1.0000    0     1.008   23.384630  -14.487891    0.832448
  66 H     1.0000    0     1.008   19.768498  -10.526234   -1.303471
  67 H     1.0000    0     1.008   21.700048   -9.056329   -3.637222
  68 H     1.0000    0     1.008   18.558179   -9.980890   -4.407743
  69 H     1.0000    0     1.008   18.069671  -23.859094   -6.422736
  70 H     1.0000    0     1.008   21.103367  -25.261166   -6.059772
  71 H     1.0000    0     1.008   19.302674  -24.419026   -3.332317
  72 H     1.0000    0     1.008   17.109058  -25.416740   10.707523
  73 H     1.0000    0     1.008   16.202889  -22.845565    8.729920
  74 H     1.0000    0     1.008   13.985958  -25.290076    9.463357
  75 H     1.0000    0     1.008   25.013037  -13.901973   -3.359568
  76 H     1.0000    0     1.008   16.441503  -18.437668    5.344432
  77 H     1.0000    0     1.008    9.163626  -15.683768    4.335966
  78 H     1.0000    0     1.008   19.255650  -22.686625    4.608270
  79 H     1.0000    0     1.008   23.268031  -25.826228   -1.269393
  80 H     1.0000    0     1.008   25.326767  -25.841753    1.402626
  81 H     1.0000    0     1.008   22.580469  -27.809105    1.359958

--------------------------------
INTERNAL COORDINATES (ANGSTROEM)
--------------------------------
 C      0   0   0     0.000000000000     0.00000000     0.00000000
 C      1   0   0     1.402515061834     0.00000000     0.00000000
 C      2   1   0     1.400030039456   119.32668306     0.00000000
 C      3   2   1     1.388438849188   119.21808315     0.82088646
 C      4   3   2     1.386245371363   121.26425703     1.46034443
 C      5   4   3     1.385998848324   119.62040567   357.89131365
 C      5   4   3     1.502038157947   119.08155621   179.34477609
 C      7   5   4     1.535667258688   110.69002755    76.18095840
 C      8   7   5     1.540687535280   114.14907197   200.53256933
 C      9   8   7     1.537419840725   111.44618573    79.15687219
 C     10   9   8     1.504570652491   113.93221329    54.03029830
 C     11  10   9     1.393437700049   120.22813465    53.37689496
 C     12  11  10     1.381345766591   120.72025468   178.86986110
 C     13  12  11     1.405240967774   119.96475136   358.34153769
 C     14  13  12     1.382213907960   119.28836664     2.00715602
 C     11  10   9     1.385351095400   120.97975454   232.16174312
 C      8   7   5     1.536085305766   110.11154136    75.36356914
 C      9   8   7     1.535755434887   114.48056312   315.07653071
 O      3   2   1     1.366927064129   117.06239430   180.89909090
 O      1   2   3     1.368344890140   114.64198327   176.73792284
 O      2   1   3     1.377076242283   116.15960248   175.47309604
 O     14  13  12     1.361331930598   120.19296651   182.20812455
 O     13  12  11     1.379002935009   125.49190304   178.36419108
 C     21   2   1     1.416659564604   119.09915184   126.27152157
 C     24  21   2     1.553439947859   109.68037717   292.21495285
 C     25  24  21     1.516139876887   110.35512213    74.26881186
 C     24  21   2     1.538786157036   104.86993255   172.55608958
 O     27  24  21     1.403413266487   113.17604888   182.92867357
 C     26  25  24     1.392918642774   119.03891915    59.76890180
 C     29  26  25     1.381023037901   120.35372605   183.25060060
 C     30  29  26     1.403420385878   119.63168978   358.16998369
 C     31  30  29     1.381009153468   119.79702649   358.52510477
 C     26  25  24     1.383078086502   121.45328751   239.26285289
 C     20   1   2     1.407086326108   118.33599300   179.82733417
 C     19   3   2     1.408041434454   118.16268976   183.66342923
 C     23  13  12     1.407996637227   118.07139159   358.58656098
 O     25  24  21     1.401118562203   109.77651186   308.47210168
 O     17   8   7     1.407750378161   112.37053098   186.68291967
 O     18   9   8     1.405970060649   114.33378910   298.83455390
 O     30  29  26     1.374624054646   125.65886569   178.58661525
 O     31  30  29     1.369474443738   119.71729727   179.57396978
 C     40  30  29     1.408703936382   118.19270104     6.06334363
 H      4   3   2     1.077741953261   120.30309911   180.50124866
 H      6   5   4     1.077727545647   119.14421909   180.59468662
 H      7   5   4     1.091182119761   108.66476216   316.48037100
 H      7   5   4     1.090029693705   110.40708914   197.47518651
 H      8   7   5     1.096946104396   107.92264169   319.07319419
 H      9   8   7     1.096867089232   105.97246490   197.10750933
 H     10   9   8     1.094522585014   108.40986814   175.09489987
 H     10   9   8     1.091632859122   109.30823722   291.62779654
 H     12  11  10     1.077259013533   119.22745230   358.64182688
 H     15  14  13     1.078525167210   118.65322700   179.90448448
 H     16  11  10     1.080242676244   119.77603513     1.14841175
 H     17   8   7     1.097727355886   108.46073721   309.41758492
 H     17   8   7     1.091506560417   110.36550280    68.11212328
 H     18   9   8     1.091565077724   110.98931240    58.01724131
 H     18   9   8     1.102082984394   108.29544219   176.11258039
 H     22  14  13     0.967153849137   107.55381250     0.49363470
 H     24  21   2     1.094060476168   111.28664361    54.39422100
 H     25  24  21     1.098708664263   108.56112089   192.56781997
 H     27  24  21     1.096512756666   108.48042086    58.54909860
 H     27  24  21     1.091617889663   108.29402372   300.77582537
 H     28  27  24     0.963681857780   108.66154589   286.74252947
 H     29  26  25     1.078168692149   119.27447967     2.98936135
 H     32  31  30     1.078137790901   119.11153810   183.56545603
 H     33  26  25     1.078313938503   119.58796312   357.10457888
 H     34  20   1     1.094731785702   111.50972345    60.61983774
 H     34  20   1     1.088902890957   105.60351410   179.31996053
 H     34  20   1     1.093865678860   111.51606080   297.94601236
 H     35  19   3     1.094272926768   111.37639453    60.41185668
 H     35  19   3     1.089530609300   105.54142089   178.67300716
 H     35  19   3     1.094754215991   111.73266780   297.85058031
 H     36  23  13     1.088773955666   105.59106219   181.70040951
 H     36  23  13     1.093864222994   111.37118059   300.45154613
 H     36  23  13     1.093983421181   111.29946372    63.21390174
 H     37  25  24     0.973136350275   107.12221970    47.28592207
 H     38  17   8     0.969835778220   107.78520291    64.91068835
 H     39  18   9     0.964545146227   108.37392655   306.00737997
 H     41  31  30     0.968528098462   107.27490780     1.67845735
 H     42  40  30     1.092942729570   111.54796675   300.32008845
 H     42  40  30     1.094314260352   111.08419610    62.65221345
 H     42  40  30     1.088639098783   105.39078263   181.71506291

---------------------------
INTERNAL COORDINATES (A.U.)
---------------------------
 C      0   0   0     0.000000000000     0.00000000     0.00000000
 C      1   0   0     2.650369365567     0.00000000     0.00000000
 C      2   1   0     2.645673353836   119.32668306     0.00000000
 C      3   2   1     2.623769178662   119.21808315     0.82088646
 C      4   3   2     2.619624106293   121.26425703     1.46034443
 C      5   4   3     2.619158245263   119.62040567   357.89131365
 C      5   4   3     2.838440761220   119.08155621   179.34477609
 C      7   5   4     2.901990551750   110.69002755    76.18095840
 C      8   7   5     2.911477499626   114.14907197   200.53256933
 C      9   8   7     2.905302451827   111.44618573    79.15687219
 C     10   9   8     2.843226482342   113.93221329    54.03029830
 C     11  10   9     2.633215637773   120.22813465    53.37689496
 C     12  11  10     2.610365195108   120.72025468   178.86986110
 C     13  12  11     2.655520581260   119.96475136   358.34153769
 C     14  13  12     2.612005744542   119.28836664     2.00715602
 C     11  10   9     2.617934169633   120.97975454   232.16174312
 C      8   7   5     2.902780546239   110.11154136    75.36356914
 C      9   8   7     2.902157180617   114.48056312   315.07653071
 O      3   2   1     2.583117796249   117.06239430   180.89909090
 O      1   2   3     2.585797099114   114.64198327   176.73792284
 O      2   1   3     2.602296963444   116.15960248   175.47309604
 O     14  13  12     2.572544526192   120.19296651   182.20812455
 O     13  12  11     2.605937885040   125.49190304   178.36419108
 C     21   2   1     2.677098602101   119.09915184   126.27152157
 C     24  21   2     2.935576066947   109.68037717   292.21495285
 C     25  24  21     2.865089148033   110.35512213    74.26881186
 C     24  21   2     2.907884415467   104.86993255   172.55608958
 O     27  24  21     2.652066726373   113.17604888   182.92867357
 C     26  25  24     2.632234761677   119.03891915    59.76890180
 C     29  26  25     2.609755326269   120.35372605   183.25060060
 C     30  29  26     2.652080180072   119.63168978   358.16998369
 C     31  30  29     2.609729088493   119.79702649   358.52510477
 C     26  25  24     2.613638805316   121.45328751   239.26285289
 C     20   1   2     2.659007803130   118.33599300   179.82733417
 C     19   3   2     2.660812696332   118.16268976   183.66342923
 C     23  13  12     2.660728041840   118.07139159   358.58656098
 O     25  24  21     2.647730363717   109.77651186   308.47210168
 O     17   8   7     2.660262679648   112.37053098   186.68291967
 O     18   9   8     2.656898367119   114.33378910   298.83455390
 O     30  29  26     2.597663000381   125.65886569   178.58661525
 O     31  30  29     2.587931646069   119.71729727   179.57396978
 C     40  30  29     2.662064643538   118.19270104     6.06334363
 H      4   3   2     2.036637134701   120.30309911   180.50124866
 H      6   5   4     2.036609908256   119.14421909   180.59468662
 H      7   5   4     2.062035368581   108.66476216   316.48037100
 H      7   5   4     2.059857598944   110.40708914   197.47518651
 H      8   7   5     2.072927720981   107.92264169   319.07319419
 H      9   8   7     2.072778403959   105.97246490   197.10750933
 H     10   9   8     2.068347933068   108.40986814   175.09489987
 H     10   9   8     2.062887142530   109.30823722   291.62779654
 H     12  11  10     2.035724510875   119.22745230   358.64182688
 H     15  14  13     2.038117194568   118.65322700   179.90448448
 H     16  11  10     2.041362816275   119.77603513     1.14841175
 H     17   8   7     2.074404072338   108.46073721   309.41758492
 H     17   8   7     2.062648472566   110.36550280    68.11212328
 H     18   9   8     2.062759054250   110.98931240    58.01724131
 H     18   9   8     2.082635017359   108.29544219   176.11258039
 H     22  14  13     1.827655904237   107.55381250     0.49363470
 H     24  21   2     2.067474673905   111.28664361    54.39422100
 H     25  24  21     2.076258476424   108.56112089   192.56781997
 H     27  24  21     2.072108812450   108.48042086    58.54909860
 H     27  24  21     2.062858854352   108.29402372   300.77582537
 H     28  27  24     1.821094791432   108.66154589   286.74252947
 H     29  26  25     2.037443554330   119.27447967     2.98936135
 H     32  31  30     2.037385159434   119.11153810   183.56545603
 H     33  26  25     2.037718030161   119.58796312   357.10457888
 H     34  20   1     2.068743265075   111.50972345    60.61983774
 H     34  20   1     2.057728250344   105.60351410   179.31996053
 H     34  20   1     2.067106560341   111.51606080   297.94601236
 H     35  19   3     2.067876147355   111.37639453    60.41185668
 H     35  19   3     2.058914466101   105.54142089   178.67300716
 H     35  19   3     2.068785652178   111.73266780   297.85058031
 H     36  23  13     2.057484597954   105.59106219   181.70040951
 H     36  23  13     2.067103809154   111.37118059   300.45154613
 H     36  23  13     2.067329061083   111.29946372    63.21390174
 H     37  25  24     1.838961192983   107.12221970    47.28592207
 H     38  17   8     1.832724015714   107.78520291    64.91068835
 H     39  18   9     1.822726170172   108.37392655   306.00737997
 H     41  31  30     1.830252859100   107.27490780     1.67845735
 H     42  40  30     2.065362438947   111.54796675   300.32008845
 H     42  40  30     2.067954256510   111.08419610    62.65221345
 H     42  40  30     2.057229755378   105.39078263   181.71506291

---------------------
BASIS SET INFORMATION
---------------------
There are 3 groups of distinct atoms

 Group   1 Type C   : 11s6p2d1f contracted to 5s3p2d1f pattern {62111/411/11/1}
 Group   2 Type O   : 11s6p2d1f contracted to 5s3p2d1f pattern {62111/411/11/1}
 Group   3 Type H   : 5s1p contracted to 3s1p pattern {311/1}

Atom   0C    basis set group =>   1
Atom   1C    basis set group =>   1
Atom   2C    basis set group =>   1
Atom   3C    basis set group =>   1
Atom   4C    basis set group =>   1
Atom   5C    basis set group =>   1
Atom   6C    basis set group =>   1
Atom   7C    basis set group =>   1
Atom   8C    basis set group =>   1
Atom   9C    basis set group =>   1
Atom  10C    basis set group =>   1
Atom  11C    basis set group =>   1
Atom  12C    basis set group =>   1
Atom  13C    basis set group =>   1
Atom  14C    basis set group =>   1
Atom  15C    basis set group =>   1
Atom  16C    basis set group =>   1
Atom  17C    basis set group =>   1
Atom  18O    basis set group =>   2
Atom  19O    basis set group =>   2
Atom  20O    basis set group =>   2
Atom  21O    basis set group =>   2
Atom  22O    basis set group =>   2
Atom  23C    basis set group =>   1
Atom  24C    basis set group =>   1
Atom  25C    basis set group =>   1
Atom  26C    basis set group =>   1
Atom  27O    basis set group =>   2
Atom  28C    basis set group =>   1
Atom  29C    basis set group =>   1
Atom  30C    basis set group =>   1
Atom  31C    basis set group =>   1
Atom  32C    basis set group =>   1
Atom  33C    basis set group =>   1
Atom  34C    basis set group =>   1
Atom  35C    basis set group =>   1
Atom  36O    basis set group =>   2
Atom  37O    basis set group =>   2
Atom  38O    basis set group =>   2
Atom  39O    basis set group =>   2
Atom  40O    basis set group =>   2
Atom  41C    basis set group =>   1
Atom  42H    basis set group =>   3
Atom  43H    basis set group =>   3
Atom  44H    basis set group =>   3
Atom  45H    basis set group =>   3
Atom  46H    basis set group =>   3
Atom  47H    basis set group =>   3
Atom  48H    basis set group =>   3
Atom  49H    basis set group =>   3
Atom  50H    basis set group =>   3
Atom  51H    basis set group =>   3
Atom  52H    basis set group =>   3
Atom  53H    basis set group =>   3
Atom  54H    basis set group =>   3
Atom  55H    basis set group =>   3
Atom  56H    basis set group =>   3
Atom  57H    basis set group =>   3
Atom  58H    basis set group =>   3
Atom  59H    basis set group =>   3
Atom  60H    basis set group =>   3
Atom  61H    basis set group =>   3
Atom  62H    basis set group =>   3
Atom  63H    basis set group =>   3
Atom  64H    basis set group =>   3
Atom  65H    basis set group =>   3
Atom  66H    basis set group =>   3
Atom  67H    basis set group =>   3
Atom  68H    basis set group =>   3
Atom  69H    basis set group =>   3
Atom  70H    basis set group =>   3
Atom  71H    basis set group =>   3
Atom  72H    basis set group =>   3
Atom  73H    basis set group =>   3
Atom  74H    basis set group =>   3
Atom  75H    basis set group =>   3
Atom  76H    basis set group =>   3
Atom  77H    basis set group =>   3
Atom  78H    basis set group =>   3
Atom  79H    basis set group =>   3
Atom  80H    basis set group =>   3
Atom  81H    basis set group =>   3
---------------------------------
AUXILIARY/J BASIS SET INFORMATION
---------------------------------
There are 3 groups of distinct atoms

 Group   1 Type C   : 12s5p4d2f1g contracted to 6s4p3d1f1g pattern {711111/2111/211/2/1}
 Group   2 Type O   : 12s5p4d2f1g contracted to 6s4p3d1f1g pattern {711111/2111/211/2/1}
 Group   3 Type H   : 5s2p1d contracted to 3s1p1d pattern {311/2/1}

Atom   0C    basis set group =>   1
Atom   1C    basis set group =>   1
Atom   2C    basis set group =>   1
Atom   3C    basis set group =>   1
Atom   4C    basis set group =>   1
Atom   5C    basis set group =>   1
Atom   6C    basis set group =>   1
Atom   7C    basis set group =>   1
Atom   8C    basis set group =>   1
Atom   9C    basis set group =>   1
Atom  10C    basis set group =>   1
Atom  11C    basis set group =>   1
Atom  12C    basis set group =>   1
Atom  13C    basis set group =>   1
Atom  14C    basis set group =>   1
Atom  15C    basis set group =>   1
Atom  16C    basis set group =>   1
Atom  17C    basis set group =>   1
Atom  18O    basis set group =>   2
Atom  19O    basis set group =>   2
Atom  20O    basis set group =>   2
Atom  21O    basis set group =>   2
Atom  22O    basis set group =>   2
Atom  23C    basis set group =>   1
Atom  24C    basis set group =>   1
Atom  25C    basis set group =>   1
Atom  26C    basis set group =>   1
Atom  27O    basis set group =>   2
Atom  28C    basis set group =>   1
Atom  29C    basis set group =>   1
Atom  30C    basis set group =>   1
Atom  31C    basis set group =>   1
Atom  32C    basis set group =>   1
Atom  33C    basis set group =>   1
Atom  34C    basis set group =>   1
Atom  35C    basis set group =>   1
Atom  36O    basis set group =>   2
Atom  37O    basis set group =>   2
Atom  38O    basis set group =>   2
Atom  39O    basis set group =>   2
Atom  40O    basis set group =>   2
Atom  41C    basis set group =>   1
Atom  42H    basis set group =>   3
Atom  43H    basis set group =>   3
Atom  44H    basis set group =>   3
Atom  45H    basis set group =>   3
Atom  46H    basis set group =>   3
Atom  47H    basis set group =>   3
Atom  48H    basis set group =>   3
Atom  49H    basis set group =>   3
Atom  50H    basis set group =>   3
Atom  51H    basis set group =>   3
Atom  52H    basis set group =>   3
Atom  53H    basis set group =>   3
Atom  54H    basis set group =>   3
Atom  55H    basis set group =>   3
Atom  56H    basis set group =>   3
Atom  57H    basis set group =>   3
Atom  58H    basis set group =>   3
Atom  59H    basis set group =>   3
Atom  60H    basis set group =>   3
Atom  61H    basis set group =>   3
Atom  62H    basis set group =>   3
Atom  63H    basis set group =>   3
Atom  64H    basis set group =>   3
Atom  65H    basis set group =>   3
Atom  66H    basis set group =>   3
Atom  67H    basis set group =>   3
Atom  68H    basis set group =>   3
Atom  69H    basis set group =>   3
Atom  70H    basis set group =>   3
Atom  71H    basis set group =>   3
Atom  72H    basis set group =>   3
Atom  73H    basis set group =>   3
Atom  74H    basis set group =>   3
Atom  75H    basis set group =>   3
Atom  76H    basis set group =>   3
Atom  77H    basis set group =>   3
Atom  78H    basis set group =>   3
Atom  79H    basis set group =>   3
Atom  80H    basis set group =>   3
Atom  81H    basis set group =>   3
--------------------------------------------------------------------------
WARNING: There is at least one non-excluded one OpenFabrics device found,
but there are no active ports detected (or Open MPI was unable to use
them).  This is most certainly not what you wanted.  Check your
cables, subnet manager configuration, etc.  The openib BTL will be
ignored for this job.

  Local host: c01b01n05
--------------------------------------------------------------------------
--------------------------------------------------------------------------
WARNING: There was an error initializing an OpenFabrics device.

  Local host:   c01b01n05
  Local device: mlx5_0
--------------------------------------------------------------------------


           ************************************************************
           *        Program running with 64 parallel MPI-processes    *
           *              working on a common directory               *
           ************************************************************
------------------------------------------------------------------------------
                             ORCA STARTUP CALCULATIONS
                           -- RI-GTO INTEGRALS CHOSEN --
------------------------------------------------------------------------------
[c01b01n05:2350242] 5 more processes have sent help message help-mpi-btl-openib.txt / no active ports found
[c01b01n05:2350242] Set MCA parameter "orte_base_help_aggregate" to 0 to see all help / error messages
[c01b01n05:2350242] 57 more processes have sent help message help-mpi-btl-openib.txt / error in device init
------------------------------------------------------------------------------
                   ___                                                        
                  /   \      - P O W E R E D   B Y -                         
                 /     \                                                     
                 |  |  |   _    _      __       _____    __    __             
                 |  |  |  | |  | |    /  \     |  _  \  |  |  /  |          
                  \  \/   | |  | |   /    \    | | | |  |  | /  /          
                 / \  \   | |__| |  /  /\  \   | |_| |  |  |/  /          
                |  |  |   |  __  | /  /__\  \  |    /   |      \           
                |  |  |   | |  | | |   __   |  |    \   |  |\   \          
                \     /   | |  | | |  |  |  |  | |\  \  |  | \   \       
                 \___/    |_|  |_| |__|  |__|  |_| \__\ |__|  \__/        
                                                                              
                      - O R C A' S   B I G   F R I E N D -                    
                                      &                                       
                       - I N T E G R A L  F E E D E R -                       
                                                                              
 v1 FN, 2020, v2 2021, v3 2022-2024                                           
------------------------------------------------------------------------------


----------------------
SHARK INTEGRAL PACKAGE
----------------------

Number of atoms                             ...     82
Number of basis functions                   ...   1542
Number of shells                            ...    622
Maximum angular momentum                    ...      3
Integral batch strategy                     ... SHARK/LIBINT Hybrid
RI-J (if used) integral strategy            ... SPLIT-RIJ (Revised 2003 algorithm where possible)
Printlevel                                  ...      1
Contraction scheme used                     ... SEGMENTED contraction
Prescreening option                         ... SCHWARTZ
   Thresh                                   ... 2.500e-11
   Tcut                                     ... 2.500e-12
   Tpresel                                  ... 2.500e-12 
Coulomb Range Separation                    ... NOT USED
Exchange Range Separation                   ... NOT USED
Multipole approximations                    ... NOT USED
Finite Nucleus Model                        ... NOT USED
CABS basis                                  ... NOT available
Auxiliary Coulomb fitting basis             ... AVAILABLE
   # of basis functions in Aux-J            ...   2498
   # of shells in Aux-J                     ...    830
   Maximum angular momentum in Aux-J        ...      4
Auxiliary J/K fitting basis                 ... NOT available
Auxiliary Correlation fitting basis         ... NOT available
Auxiliary 'external' fitting basis          ... NOT available

Checking pre-screening integrals            ... done (  0.3 sec) Dimension = 622
   => SHARK Basis and OBASIS are compatible. Storing Pre-screening
Shell pair information
Shell pair cut-off parameter TPreSel        ...   2.5e-12
Total number of shell pairs                 ...    193753
Shell pairs after pre-screening             ...    116776
Total number of primitive shell pairs       ...    584784
Primitive shell pairs kept                  ...    220470
          la=0 lb=0:  32485 shell pairs
          la=1 lb=0:  34830 shell pairs
          la=1 lb=1:   9443 shell pairs
          la=2 lb=0:  15837 shell pairs
          la=2 lb=1:   8714 shell pairs
          la=2 lb=2:   2001 shell pairs
          la=3 lb=0:   7220 shell pairs
          la=3 lb=1:   4045 shell pairs
          la=3 lb=2:   1773 shell pairs
          la=3 lb=3:    428 shell pairs

Checking whether 4 symmetric matrices of dimension 1542 fit in memory
:Max Core in MB      =   6000.00
 MB in use           =    140.00
 MB left             =   5860.00
 MB needed           =     36.31
 Data fit in memory  = YES
Calculating RI/J V-Matrix + Cholesky decomp.... done (  3.8 sec)
Calculating Nuclear repulsion               ... done (  0.1 sec) ENN=   5780.935307350966 Eh

Diagonalization of the overlap matrix:
Smallest eigenvalue                        ... 3.237e-06
Time for diagonalization                   ...   32.125 sec
Threshold for overlap eigenvalues          ... 1.000e-07
Number of eigenvalues below threshold      ... 0
Time for construction of square roots      ...    1.916 sec
Total time needed                          ...   34.364 sec

-------------------
DFT GRID GENERATION
-------------------

General Integration Accuracy     IntAcc      ... 4.388
Radial Grid Type                 RadialGrid  ... OptM3 with GC (2021)
Angular Grid (max. ang.)         AngularGrid ... 4 (Lebedev-302)
Angular grid pruning method      GridPruning ... 4 (adaptive)
Weight generation scheme         WeightScheme... mBecke (2022)
Basis function cutoff            BFCut       ... 1.0000e-11
Integration weight cutoff        WCut        ... 1.0000e-14
Partially contracted basis set               ... off
Rotationally invariant grid construction     ... off
Angular grids for H and He will be reduced by one unit

Total number of grid points                  ...   373388
Total number of batches                      ...     5873
Average number of points per batch           ...       63
Average number of grid points per atom       ...     4554

--------------------
COSX GRID GENERATION
--------------------

GRIDX 1
-------
General Integration Accuracy     IntAcc      ... 3.816
Radial Grid Type                 RadialGrid  ... OptM3 with GC (2021)
Angular Grid (max. ang.)         AngularGrid ... 1 (Lebedev-50)
Angular grid pruning method      GridPruning ... 4 (adaptive)
Weight generation scheme         WeightScheme... mBecke (2022)
Basis function cutoff            BFCut       ... 1.0000e-11
Integration weight cutoff        WCut        ... 1.0000e-14
Partially contracted basis set               ... on
Rotationally invariant grid construction     ... off
Angular grids for H and He will be reduced by one unit

Total number of grid points                  ...    47223
Total number of batches                      ...      410
Average number of points per batch           ...      115
Average number of grid points per atom       ...      576
UseSFitting                                  ... on

GRIDX 2
-------
General Integration Accuracy     IntAcc      ... 4.020
Radial Grid Type                 RadialGrid  ... OptM3 with GC (2021)
Angular Grid (max. ang.)         AngularGrid ... 2 (Lebedev-110)
Angular grid pruning method      GridPruning ... 4 (adaptive)
Weight generation scheme         WeightScheme... mBecke (2022)
Basis function cutoff            BFCut       ... 1.0000e-11
Integration weight cutoff        WCut        ... 1.0000e-14
Partially contracted basis set               ... on
Rotationally invariant grid construction     ... off
[...]
freq.     983.10  E(vib)   ...       0.02 
freq.     985.07  E(vib)   ...       0.02 
freq.    1001.07  E(vib)   ...       0.02 
freq.    1026.97  E(vib)   ...       0.02 
freq.    1027.72  E(vib)   ...       0.02 
freq.    1035.76  E(vib)   ...       0.02 
freq.    1047.22  E(vib)   ...       0.02 
freq.    1047.90  E(vib)   ...       0.02 
freq.    1054.83  E(vib)   ...       0.02 
freq.    1056.82  E(vib)   ...       0.02 
freq.    1059.14  E(vib)   ...       0.02 
freq.    1087.26  E(vib)   ...       0.02 
freq.    1090.26  E(vib)   ...       0.02 
freq.    1093.15  E(vib)   ...       0.02 
freq.    1125.51  E(vib)   ...       0.01 
freq.    1136.92  E(vib)   ...       0.01 
freq.    1141.14  E(vib)   ...       0.01 
freq.    1141.85  E(vib)   ...       0.01 
freq.    1146.15  E(vib)   ...       0.01 
freq.    1169.20  E(vib)   ...       0.01 
freq.    1170.68  E(vib)   ...       0.01 
freq.    1171.31  E(vib)   ...       0.01 
freq.    1171.62  E(vib)   ...       0.01 
freq.    1173.08  E(vib)   ...       0.01 
freq.    1173.16  E(vib)   ...       0.01 
freq.    1177.94  E(vib)   ...       0.01 
freq.    1179.96  E(vib)   ...       0.01 
freq.    1195.67  E(vib)   ...       0.01 
freq.    1199.04  E(vib)   ...       0.01 
freq.    1203.18  E(vib)   ...       0.01 
freq.    1207.95  E(vib)   ...       0.01 
freq.    1210.66  E(vib)   ...       0.01 
freq.    1213.10  E(vib)   ...       0.01 
freq.    1221.98  E(vib)   ...       0.01 
freq.    1225.08  E(vib)   ...       0.01 
freq.    1230.03  E(vib)   ...       0.01 
freq.    1243.54  E(vib)   ...       0.01 
freq.    1247.30  E(vib)   ...       0.01 
freq.    1251.77  E(vib)   ...       0.01 
freq.    1261.92  E(vib)   ...       0.01 
freq.    1270.95  E(vib)   ...       0.01 
freq.    1276.04  E(vib)   ...       0.01 
freq.    1285.75  E(vib)   ...       0.01 
freq.    1288.47  E(vib)   ...       0.01 
freq.    1307.84  E(vib)   ...       0.01 
freq.    1309.21  E(vib)   ...       0.01 
freq.    1311.15  E(vib)   ...       0.01 
freq.    1320.73  E(vib)   ...       0.01 
freq.    1331.27  E(vib)   ...       0.01 
freq.    1342.46  E(vib)   ...       0.01 
freq.    1344.39  E(vib)   ...       0.01 
freq.    1349.14  E(vib)   ...       0.01 
freq.    1357.84  E(vib)   ...       0.01 
freq.    1366.77  E(vib)   ...       0.01 
freq.    1377.34  E(vib)   ...       0.01 
freq.    1378.33  E(vib)   ...       0.01 
freq.    1392.29  E(vib)   ...       0.00 
freq.    1393.48  E(vib)   ...       0.00 
freq.    1397.74  E(vib)   ...       0.00 
freq.    1401.47  E(vib)   ...       0.00 
freq.    1403.40  E(vib)   ...       0.00 
freq.    1408.01  E(vib)   ...       0.00 
freq.    1408.11  E(vib)   ...       0.00 
freq.    1424.10  E(vib)   ...       0.00 
freq.    1428.23  E(vib)   ...       0.00 
freq.    1437.99  E(vib)   ...       0.00 
freq.    1453.42  E(vib)   ...       0.00 
freq.    1455.24  E(vib)   ...       0.00 
freq.    1459.70  E(vib)   ...       0.00 
freq.    1477.43  E(vib)   ...       0.00 
freq.    1478.14  E(vib)   ...       0.00 
freq.    1479.37  E(vib)   ...       0.00 
freq.    1480.08  E(vib)   ...       0.00 
freq.    1480.90  E(vib)   ...       0.00 
freq.    1481.70  E(vib)   ...       0.00 
freq.    1483.84  E(vib)   ...       0.00 
freq.    1485.42  E(vib)   ...       0.00 
freq.    1487.74  E(vib)   ...       0.00 
freq.    1489.88  E(vib)   ...       0.00 
freq.    1491.42  E(vib)   ...       0.00 
freq.    1491.48  E(vib)   ...       0.00 
freq.    1492.06  E(vib)   ...       0.00 
freq.    1493.10  E(vib)   ...       0.00 
freq.    1498.05  E(vib)   ...       0.00 
freq.    1502.87  E(vib)   ...       0.00 
freq.    1506.87  E(vib)   ...       0.00 
freq.    1536.01  E(vib)   ...       0.00 
freq.    1542.34  E(vib)   ...       0.00 
freq.    1545.64  E(vib)   ...       0.00 
freq.    1627.82  E(vib)   ...       0.00 
freq.    1637.33  E(vib)   ...       0.00 
freq.    1642.91  E(vib)   ...       0.00 
freq.    1647.50  E(vib)   ...       0.00 
freq.    1649.01  E(vib)   ...       0.00 
freq.    1652.47  E(vib)   ...       0.00 
freq.    2994.36  E(vib)   ...       0.00 
freq.    3010.02  E(vib)   ...       0.00 
freq.    3020.33  E(vib)   ...       0.00 
freq.    3022.16  E(vib)   ...       0.00 
freq.    3022.37  E(vib)   ...       0.00 
freq.    3023.79  E(vib)   ...       0.00 
freq.    3025.88  E(vib)   ...       0.00 
freq.    3026.49  E(vib)   ...       0.00 
freq.    3027.16  E(vib)   ...       0.00 
freq.    3032.36  E(vib)   ...       0.00 
freq.    3037.60  E(vib)   ...       0.00 
freq.    3041.70  E(vib)   ...       0.00 
freq.    3053.11  E(vib)   ...       0.00 
freq.    3074.63  E(vib)   ...       0.00 
freq.    3077.35  E(vib)   ...       0.00 
freq.    3085.49  E(vib)   ...       0.00 
freq.    3087.18  E(vib)   ...       0.00 
freq.    3088.42  E(vib)   ...       0.00 
freq.    3089.31  E(vib)   ...       0.00 
freq.    3092.83  E(vib)   ...       0.00 
freq.    3101.85  E(vib)   ...       0.00 
freq.    3102.09  E(vib)   ...       0.00 
freq.    3139.92  E(vib)   ...       0.00 
freq.    3142.36  E(vib)   ...       0.00 
freq.    3143.20  E(vib)   ...       0.00 
freq.    3162.64  E(vib)   ...       0.00 
freq.    3170.98  E(vib)   ...       0.00 
freq.    3187.66  E(vib)   ...       0.00 
freq.    3188.26  E(vib)   ...       0.00 
freq.    3206.68  E(vib)   ...       0.00 
freq.    3208.70  E(vib)   ...       0.00 
freq.    3210.88  E(vib)   ...       0.00 
freq.    3212.84  E(vib)   ...       0.00 
freq.    3214.29  E(vib)   ...       0.00 
freq.    3598.72  E(vib)   ...       0.00 
freq.    3637.13  E(vib)   ...       0.00 
freq.    3708.35  E(vib)   ...       0.00 
freq.    3723.79  E(vib)   ...       0.00 
freq.    3775.46  E(vib)   ...       0.00 
freq.    3793.02  E(vib)   ...       0.00 

------------
INNER ENERGY
------------

The inner energy is: U= E(el) + E(ZPE) + E(vib) + E(rot) + E(trans)
    E(el)   - is the total energy from the electronic structure calculation
              = E(kin-el) + E(nuc-el) + E(el-el) + E(nuc-nuc)
    E(ZPE)  - the the zero temperature vibrational energy from the frequency calculation
    E(vib)  - the the finite temperature correction to E(ZPE) due to population
              of excited vibrational states
    E(rot)  - is the rotational thermal energy
    E(trans)- is the translational thermal energy

Summary of contributions to the inner energy U:
Electronic energy                ...  -2032.63719372 Eh
Zero point energy                ...      0.67937410 Eh     426.31 kcal/mol
Thermal vibrational correction   ...      0.04025173 Eh      25.26 kcal/mol
Thermal rotational correction    ...      0.00141627 Eh       0.89 kcal/mol
Thermal translational correction ...      0.00141627 Eh       0.89 kcal/mol
-----------------------------------------------------------------------
Total thermal energy                  -2031.91473535 Eh


Summary of corrections to the electronic energy:
(perhaps to be used in another calculation)
Total thermal correction                  0.04308427 Eh      27.04 kcal/mol
Non-thermal (ZPE) correction              0.67937410 Eh     426.31 kcal/mol
-----------------------------------------------------------------------
Total correction                          0.72245837 Eh     453.35 kcal/mol


--------
ENTHALPY
--------

The enthalpy is H = U + kB*T
                kB is Boltzmann's constant
Total thermal energy              ...  -2031.91473535 Eh 
Thermal Enthalpy correction       ...      0.00094421 Eh       0.59 kcal/mol
-----------------------------------------------------------------------
Total Enthalpy                    ...  -2031.91379114 Eh


Note: Only C1 symmetry has been detected, increase convergence thresholds 
      if your molecule has a higher symmetry. Symmetry factor of 1.0 is   
      used for the rotational entropy correction. 
 

Note: Rotational entropy computed according to Herzberg 
Infrared and Raman Spectra, Chapter V,1, Van Nostrand Reinhold, 1945 
Point Group:  C1, Symmetry Number:   1  
Rotational constants in cm-1:     0.003977     0.002260     0.001848 

Vibrational entropy computed according to the QRRHO of S. Grimme
Chem.Eur.J. 2012 18 9955 using a reference frequency of 100.0 cm-1


-------
ENTROPY
-------

The entropy contributions are T*S = T*(S(el)+S(vib)+S(rot)+S(trans))
     S(el)   - electronic entropy
     S(vib)  - vibrational entropy
     S(rot)  - rotational entropy
     S(trans)- translational entropy
The entropies will be listed as multiplied by the temperature to get
units of energy

Electronic entropy                ...      0.00000000 Eh      0.00 kcal/mol
Vibrational entropy               ...      0.07200837 Eh     45.19 kcal/mol
Rotational entropy                ...      0.01796752 Eh     11.27 kcal/mol
Translational entropy             ...      0.02138181 Eh     13.42 kcal/mol
-----------------------------------------------------------------------
Final entropy term                ...      0.11135770 Eh     69.88 kcal/mol

In case the symmetry of your molecule has not been determined correctly
or in case you have a reason to use a different symmetry number we print 
out the resulting rotational entropy values for sn=1,12:

 non-linear molecules -----------------------------------
|  sn= 1 | S(rot)=       0.01796752 Eh     11.27 kcal/mol|
|  sn= 2 | S(rot)=       0.01731307 Eh     10.86 kcal/mol|
|  sn= 3 | S(rot)=       0.01693024 Eh     10.62 kcal/mol|
|  sn= 4 | S(rot)=       0.01665861 Eh     10.45 kcal/mol|
|  sn= 5 | S(rot)=       0.01644792 Eh     10.32 kcal/mol|
|  sn= 6 | S(rot)=       0.01627578 Eh     10.21 kcal/mol|
|  sn= 7 | S(rot)=       0.01613023 Eh     10.12 kcal/mol|
|  sn= 8 | S(rot)=       0.01600415 Eh     10.04 kcal/mol|
|  sn= 9 | S(rot)=       0.01589295 Eh      9.97 kcal/mol|
|  sn=10 | S(rot)=       0.01579347 Eh      9.91 kcal/mol|
|  sn=11 | S(rot)=       0.01570348 Eh      9.85 kcal/mol|
|  sn=12 | S(rot)=       0.01562132 Eh      9.80 kcal/mol|
 linear molecules ---------------------------------------
|  Dinfh | S(rot)=       0.01126833 Eh      7.07 kcal/mol|
|  Cinfv | S(rot)=       0.01192279 Eh      7.48 kcal/mol|
 --------------------------------------------------------


-------------------
GIBBS FREE ENERGY
-------------------

The Gibbs free energy is G = H - T*S

Total enthalpy                    ...  -2031.91379114 Eh 
Total entropy correction          ...     -0.11135770 Eh    -69.88 kcal/mol
-----------------------------------------------------------------------
Final Gibbs free energy         ...  -2032.02514885 Eh

For completeness - the Gibbs free energy minus the electronic energy
G-E(el)                           ...      0.61204488 Eh    384.06 kcal/mol


Maximum memory used throughout the entire PROP-calculation: 1823.3 MB
--------------------------------------------------------------------------
WARNING: There was an error initializing an OpenFabrics device.

  Local host:   c01b01n05
  Local device: mlx5_0
--------------------------------------------------------------------------
--------------------------------------------------------------------------
WARNING: There is at least one non-excluded one OpenFabrics device found,
but there are no active ports detected (or Open MPI was unable to use
them).  This is most certainly not what you wanted.  Check your
cables, subnet manager configuration, etc.  The openib BTL will be
ignored for this job.

  Local host: c01b01n05
--------------------------------------------------------------------------
[c01b01n05:2430949] 57 more processes have sent help message help-mpi-btl-openib.txt / error in device init
[c01b01n05:2430949] Set MCA parameter "orte_base_help_aggregate" to 0 to see all help / error messages
[c01b01n05:2430949] 5 more processes have sent help message help-mpi-btl-openib.txt / no active ports found
--------------------------------------------------------------------------
mpirun has exited due to process rank 39 with PID 2431004 on
node c01b01n05 exiting improperly. There are three reasons this could occur:

1. this process did not call "init" before exiting, but others in
the job did. This can cause a job to hang indefinitely while it waits
for all processes to call "init". By rule, if one process calls "init",
then ALL processes must call "init" prior to termination.

2. this process called "init", but exited without calling "finalize".
By rule, all processes that call "init" MUST call "finalize" prior to
exiting or it will be considered an "abnormal termination"

3. this process called "MPI_Abort" or "orte_abort" and the mca parameter
orte_create_session_dirs is set to false. In this case, the run-time cannot
detect that the abort call was an abnormal termination. Hence, the only
error message you will receive is this one.

This may have caused other processes in the application to be
terminated by signals sent by mpirun (as reported here).

You can avoid this message by specifying -quiet on the mpirun command line.
--------------------------------------------------------------------------

--------------------------------
SUGGESTED CITATIONS FOR THIS RUN
--------------------------------

Below you find a list of papers that are relevant to this ORCA run
We neither can nor want to force you to cite these papers, but we appreciate if you do
You receive ORCA, which is the product of decades of hard work by many enthusiastic individuals, for free
The only thing we kindly ask in return is that you cite our papers,
We deeply appreciate it, if you show your appreciation for ORCA by not just citing the generic ORCA reference.

Please note that relegating all ORCA citations to the supporting information does *not* help us.
SI sections are not indexed - citations you put there will not count into any citation statistics
But we need these citations in order to attract the funding resources that allow us to do what we are doing

Therefore, if you are a happy ORCA user, please consider citing a few of the papers listed below in the main body of your paper

In addition to the list printed below, the program has created the file opt-conf-8.bibtex that contains the list in bibtex format
You can import this file easily into all common literature databanks and citation aid programs


List of essential papers. We consider these as the minimum necessary citations

  1. Neese, F.
     Software update: the ORCA program system, version 6.0
     WIRES Comput. Molec. Sci. 2025 15(1), e70019
     doi.org/10.1002/wcms.7019

List of papers to cite with high priority. The work reported in these papers was absolutely
necessary for this run to complete.
Our perspective: the developers of density functionals and basis sets usually get cited in chemistry papers
Good! But without the algorithms to do something with them, the functionals or basis sets would not do anything.
Hence, in our opinion, the algorithm design and method developments papers are equally worthy of getting cited

  1. Neese, F.
     An improvement of the resolution of the identity approximation for the formation of the Coulomb matrix
     J. Comp. Chem. 2003 24(14), 1740-1747
     doi.org/10.1002/jcc.10318
  2. Neese, F.; Wennmohs, F.; Hansen, A.; Becker, U.
     Efficient, approximate and parallel Hartree-Fock and hybrid DFT calculations. A 'chain-of-spheres' algorithm for the Hartree-Fock exchange
     Chem. Phys. 2009 356(1-3), 98-109
     doi.org/10.1016/j.chemphys.2008.10.036
  3. Bykov, D.; Petrenko, T.; Izsak, R.; Kossmann, S.; Becker, U.; Valeev, E.; Neese, F.
     Efficient implementation of the analytic second derivatives of Hartree-Fock and hybrid DFT energies: a detailed analysis of different approximations
     Molec. Phys. 2015 113 , 1961-1977
     doi.org/10.1080/00268976.2015.1025114
  4. Caldeweyher, E.; Bannwarth, C.; Grimme, S.
     Extension of the D3 dispersion coefficient model
     J. Chem. Phys. 2017 147 , 034112
     doi.org/10.1063/1.4993215
  5. Caldeweyher, E.; Ehlert, S.; Hansen, A.; Neugebauer, H.; Spicher, S.; Bannwarth, C.; Grimme, S.
     A generally applicable atomic-charge dependent London dispersion correction
     J. Chem. Phys. 2019 150 , 154122
     doi.org/10.1063/1.5090222
  6. Garcia-Rates, M.; Neese, F.
     Efficient implementation of the analytical second derivatives of hartree-fock and hybrid DFT energies within the framework of the conductor-like polarizable continuum model
     J. Comput. Chem. 2019 40 , 1816-1828
     doi.org/10.1002/jcc.25833
  7. Caldeweyher, E.; Mewes, J.; Ehlert, S.; Grimme, S.
     Extension and evaluation of the D4 London-dispersion model for periodic systems
     Phys. Chem. Chem. Phys. 2020 22(16), 8499-8512
     doi.org/10.1039/D0CP00502A
  8. Garcia-Rates, M.; Neese, F.
     Effect of the Solute Cavity on the Solvation Energy and its Derivatives within the Framework of the Gaussian Charge Scheme
     J. Comput. Chem. 2020 41 , 922-939
     doi.org/10.1002/jcc.26139
  9. Helmich-Paris, B.; de Souza, B.; Neese, F.; Izsák, R.
     An improved chain of spheres for exchange algorithm
     J. Chem. Phys. 2021 155(10), 104109
     doi.org/10.1063/5.0058766
 10. Neese, F.
     The SHARK Integral Generation and Digestion System
     J. Comp. Chem. 2022 44(3), 381
     doi.org/10.1002/jcc.26942
 11. Wittmann, L.; Gordiy, I.; Friede, M.; Helmich-Paris, B.; Grimme, S.; Hansen, A.; Bursch, M.
     Extension of the D3 and D4 London Dispersion Corrections to the full Actinides Series
     Phys. Chem. Chem. Phys. 2024 26(32), 21379-21394
     doi.org/10.1039/D4CP01514B

List of suggested additional citations. These are papers that are important in the 'surrounding' of 
of this run, or papers that preceded the highly important papers. If you like your results we are grateful for a citation.

  1. Izsak, R.; Neese, F.
     An overlap fitted chain of spheres exchange method
     J. Chem. Phys. 2011 135 , 144105
     doi.org/10.1063/1.3646921
  2. Izsak, R.; Hansen, A.; Neese, F.
     The resolution of identity and chain of spheres approximations for the LPNO-CCSD singles Fock term
     Molec. Phys. 2012 110 , 2413-2417
     doi.org/10.1080/00268976.2012.687466
  3. Neese, F.
     The ORCA program system
     WIRES Comput. Molec. Sci. 2012 2(1), 73-78
     doi.org/10.1002/wcms.81
  4. Izsak, R.; Neese, F.; Klopper, W.
     Robust fitting techniques in the chain of spheres approximation to the Fock exchange: The role of the complementary space
     J. Chem. Phys. 2013 139 , 
     doi.org/10.1063/1.4819264
  5. Neese, F.
     Software update: the ORCA program system, version 4.0
     WIRES Comput. Molec. Sci. 2018 8(1), 1-6
     doi.org/10.1002/wcms.1327
  6. Neese, F.; Wennmohs, F.; Becker, U.; Riplinger, C.
     The ORCA quantum chemistry program package
     J. Chem. Phys. 2020 152(22), 224108
     doi.org/10.1063/5.0004608
  7. Neese, F.
     Software update: The ORCA program system—Version 5.0
     WIRES Comput. Molec. Sci. 2022 12(1), e1606
     doi.org/10.1002/wcms.1606

List of optional additional citations

  1. Neese, F.
     Approximate second-order SCF convergence for spin unrestricted wavefunctions
     Chem. Phys. Lett. 2000 325(1-3), 93-98
     doi.org/10.1016/s0009-2614(00)00662-x

Timings for individual modules:

Sum of individual times          ...    24386.214 sec (= 406.437 min)
Startup calculation              ...     1348.771 sec (=  22.480 min)   5.5 %
SCF iterations                   ...     8133.403 sec (= 135.557 min)  33.4 %
Property integrals               ...     4049.257 sec (=  67.488 min)  16.6 %
SCF Response                     ...     7864.922 sec (= 131.082 min)  32.3 %
Property calculations            ...     2141.581 sec (=  35.693 min)   8.8 %
SCF Gradient evaluation          ...      838.360 sec (=  13.973 min)   3.4 %
Geometry relaxation              ...        9.920 sec (=   0.165 min)   0.0 %
                             ****ORCA TERMINATED NORMALLY****
TOTAL RUN TIME: 0 days 6 hours 55 minutes 2 seconds 634 msec
