
                                 *****************
                                 * O   R   C   A *
                                 *****************

                                            #,                                       
                                            ###                                      
                                            ####                                     
                                            #####                                    
                                            ######                                   
                                           ########,                                 
                                     ,,################,,,,,                         
                               ,,#################################,,                 
                          ,,##########################################,,             
                       ,#########################################, ''#####,          
                    ,#############################################,,   '####,        
                  ,##################################################,,,,####,       
                ,###########''''           ''''###############################       
              ,#####''   ,,,,##########,,,,          '''####'''          '####       
            ,##' ,,,,###########################,,,                        '##       
           ' ,,###''''                  '''############,,,                           
         ,,##''                                '''############,,,,        ,,,,,,###''
      ,#''                                            '''#######################'''  
     '                                                          ''''####''''         
             ,#######,   #######,   ,#######,      ##                                
            ,#'     '#,  ##    ##  ,#'     '#,    #''#        ,####,    ,#,          
            ##       ##  ##   ,#'  ##            #'  '#       #'       ,# #          
            ##       ##  #######   ##           ,######,      #####,      #          
            '#,     ,#'  ##    ##  '#,     ,#' ,#      #,     #,   #      #          
             '#######'   ##     ##  '#######'  #'      '#     '####' #    #          



                #########################################################
                #                        -***-                          #
                #          Department of theory and spectroscopy        #
                #                                                       #
                #                      Frank Neese                      #
                #                                                       #
                #     Directorship, Architecture, Infrastructure        #
                #                    SHARK, DRIVERS                     #
                #        Core code/Algorithms in most modules           #
                #                                                       #
                #        Max Planck Institute fuer Kohlenforschung      #
                #                Kaiser Wilhelm Platz 1                 #
                #                 D-45470 Muelheim/Ruhr                 #
                #                      Germany                          #
                #                                                       #
                #                  All rights reserved                  #
                #                        -***-                          #
                #########################################################


                         Program Version 6.1.0-f.0  -   RELEASE   -


 With contributions from (in alphabetic order):
[Max-Planck-Institut fuer Kohlenforschung]                               
  Daniel Aravena         : Magnetic Suceptibility                        
  Michael Atanasov       : Ab Initio Ligand Field Theory (pilot matlab implementation)
  Alexander A. Auer      : GIAO ZORA, VPT2 properties, NMR spectrum      
  Ute Becker             : All parallelization in ORCA, NUMFREQ, NUMCALC 
  Giovanni Bistoni       : ED, misc. LED, open-shell LED, HFLD           
  Dmytro Bykov           : pre 5.0 version of the SCF Hessian            
  Marcos Casanova-Páez   : Triplet and SCS-CIS(D). UHF-(DLPNO)-IP/EA/STEOM-CCSD. UHF-CVS-IP/STEOM-CCSD   
  Vijay G. Chilkuri      : MRCI spin determinant printing, contributions to CSF-ICE 
  Pauline Colinet        : FMM embedding                                 
  Dipayan Datta          : RHF DLPNO-CCSD density                        
  Achintya Kumar Dutta   : EOM-CC, STEOM-CC                              
  Nicolas Foglia         : Exact transition moments, OPA infrastructure, MCD improvements    
  Dmitry Ganyushin       : Spin-Orbit,Spin-Spin,Magnetic field MRCI      
  Miquel Garcia-Rates    : C-PCM and meta-GGA Hessian, CCSD/C-PCM, Gaussian charge scheme 
  Tiago L. C. Gouveia    : GS-ROHF, GS-ROCIS                             
  Yang Guo               : DLPNO-NEVPT2, F12-NEVPT2, CIM, IAO-localization        
  Andreas Hansen         : Spin unrestricted coupled pair/coupled cluster methods 
  Ingolf Harden          : AUTO-CI MPn and infrastructure                
  Benjamin Helmich-Paris : MC-RPA, TRAH-(SCF,CASSCF), AVAS, COSX integrals, SCF dyn. polar., MC-PDFT, srDFT 
  Lee Huntington         : MR-EOM, pCC                                   
  Robert Izsak           : Overlap fitted RIJCOSX, COSX-SCS-MP3, EOM     
  Riya Kayal             : Wick's Theorem for AUTO-CI, AUTO-CI UHF-CCSDT 
  Emily Kempfer          : AUTO-CI RHF CISDT and CCSDT, approximate NEVPT4
  Christian Kollmar      : KDIIS, OOCD, Brueckner-CCSD(T), CCSD density, CASPT2, CASPT2-K, improved NEVPT2 
  Axel Koslowski         : Symmetry handling                             
  Simone Kossmann        : meta-GGA functionals, TD-DFT gradient, OOMP2, (MP2 Hessian; deprecated post 5.0) 
  Lucas Lang             : DCDCAS, Hyperfine gauge corrections, ICE-SOC+SSC
  Marvin Lechner         : AUTO-CI (C++ implementation), FIC-MRCC        
  Spencer Leger          : CASSCF response                               
  Dagmar Lenk            : GEPOL surface, SMD, ORCA-2-JSON               
  Dimitrios Liakos       : Extrapolation schemes; Compound Job, Property file
  Dimitrios Manganas     : Further ROCIS development; embedding schemes. LFT, Crystal Embedding 
  Dimitrios Pantazis     : SARC Basis sets                               
  Anastasios Papadopoulos: AUTO-CI, single reference methods and gradients 
  Taras Petrenko         : pre 6.0 DFT Hessian and TD-DFT gradient,  ECA, NRVS 
  Petra Pikulova         : Analytic Raman intensities                    
  Peter Pinski           : DLPNO-MP2, DLPNO-MP2 Gradient                 
  Shashank Vittal Rao    : ES-AILFT, MagRelax                            
  Christoph Reimann      : Effective Core Potentials                     
  Marius Retegan         : Local ZFS, SOC                                
  Christoph Riplinger    : Optimizer, TS searches, QM/MM, DLPNO-CCSD(T), (RO)-DLPNO pert. Triples 
  Michael Roemelt        : Original ROCIS implementation, recursive CI coupling coefficients
  Masaaki Saitow         : Open-shell DLPNO-CCSD energy and density      
  Barbara Sandhoefer     : DKH picture change effects                    
  Yorick L. A. Schmerwitz: GMF and freeze-and-release deltaSCF, NEB S-IDPP initial path                    
  Kantharuban Sivalingam : CASSCF convergence/infrastructure, NEVPT2, NEVPT3, NEVPT4(SD), FIC-MRCI and CEPA variants
  Bernardo de Souza      : ESD, SOC TD-DFT                               
  Georgi L. Stoychev     : AutoAux, RI-MP2 NMR, DLPNO-MP2 response, X2C  
  Van Anh Tran           : RI-MP2 g-tensors                              
  Willem Van den Heuvel  : Paramagnetic NMR                              
  Zikuan Wang            : NOTCH, Electric field optimization            
  Frank Wennmohs         : Technical directorship and infrastructure     
  Hang Xu                : AUTO-CI-Response properties                   
                                                                         
[FACCTs GmbH]                                                            
  Markus Bursch, Nicolas Foglia, Miquel Garcia-Rates, Ingolf Harden, Hagen Neugebauer, Anastasios Papadopoulos, 
  Christoph Riplinger, Bernardo de Souza, Georgi L. Stoychev                                                    
                                                                 
  APM, various basis sets, CI-OPT, improved COSX, DLPNO-Multilevel,           
  DOCKER, DRACO, updates on ESD, Fragmentator, GOAT, IRC, LR-CPCM, L-BFGS, MBIS, meta-GGA TD-DFT gradient, ML-optimized integration grids, 
  MM, NACMEs, nearIR, NEB, NEB-TS, NL-DFT gradient (VV10), 2- and 3-layer-ONIOM, interface openCOSMO-RS, QMMM,   
  Crystal-QMMM, RESP, rigid body optimization, SF, symmetry and pop. for TD-DFT, various functionals, SOLVATOR                                   
                                                                         
[Other institutions]                                                     
  V. Asgeirsson          : NEB                                           
  Christoph Bannwarth    : sTDA-DFT, sTD-DFT, PBEh-3c, B97-3c, D3        
  Giovanni Bistoni       : ETS/NOCV, ADLD/ADEX, COVALED                  
  Martin Brehm           : Molecular dynamics                            
  Ronald Cardenas        : ETS/NOCV                                      
  Martina Colucci        : COVALED                                       
  Sebastian Ehlert       : rSCAN, r2SCAN, r2SCAN-3c, D4, dhf basis sets  
  Marvin Friede          : D4 for Fr, Ra, Ac-Lr                          
  Lars Goerigk           : TD-DFT with DH, B97 family of functionals     
  Stefan Grimme          : VdW corrections, initial TS optimization, DFT functionals, gCP, sTDA/sTD-DF 
  Waldemar Hujo          : DFT-NL                                        
  H. Jonsson             : NEB                                           
  Holger Kruse           : gCP                                           
  Marcel Mueller         : wB97X-3c, vDZP basis set                      
  Hagen Neugebauer       : wr2SCAN, Native XTB                           
  Gianluca Regni         : ADLD/ADEX                                     
  Tobias Risthaus        : pre 6.0 range-separated hybrid DFT and stability analysis
  Lukas Wittmann         : regularized MP2, r2SCAN double-hybrids, wr2SCAN        
                                                                         
We gratefully acknowledge several colleagues who have allowed us to      
interface, adapt or use parts of their codes:                            
  Ed Valeev, F. Pavosevic, A. Kumar             : LibInt (2-el integral package), F12 methods 
  Garnet Chan, S. Sharma, J. Yang, R. Olivares  : DMRG                   
  Ulf Ekstrom                                   : XCFun DFT Library      
  Mihaly Kallay                                 : mrcc  (arbitrary order and MRCC methods)
  Frank Weinhold                                : gennbo (NPA and NBO analysis)           
  Simon Mueller                                 : openCOSMO-RS                            
  Christopher J. Cramer and Donald G. Truhlar   : smd solvation model                     
  S Lehtola, MJT Oliveira, MAL Marques          : LibXC Library                           
  Liviu Ungur et al                             : ANISO software                          


 Your calculation uses the libint2 library for the computation of 2-el integrals
 For citations please refer to: http://libint.valeyev.net

 Your ORCA version has been built with support for libXC version: 7.0.0
 For citations please refer to: https://libxc.gitlab.io

 This ORCA versions uses:
   CBLAS   interface :  Fast vector & matrix operations
   LAPACKE interface :  Fast linear algebra routines
   SCALAPACK package :  Parallel linear algebra routines
   Shared memory     :  Shared parallel matrices
   BLAS/LAPACK       :  OpenBLAS 0.3.29  USE64BITINT DYNAMIC_ARCH NO_AFFINITY Cooperlake SINGLE_THREADED
        Core in use  :  Cooperlake
   Copyright (c) 2011-2014, The OpenBLAS Project


  ***********************************
  * Starting time: Sat Feb 28 13:17:41 2026
  * Host name:     c03b01n04
  * Process ID:    917069
  * Working dir.:  /lustre1/jiangy/jiangy_liuxy/NMR/B9D7C2-SRSS
  ***********************************

NOTE: MaxCore=6000 MB was set to SCF,MP2,MDCI,CIPSI,MRCI,RASCI and CIS
      => If you want to overwrite this, your respective input block should be placed after the MaxCore statement


***************************************
The coordinates will be read from file: conf-2.xyz
***************************************


Your calculation utilizes the atom-pairwise dispersion correction
based on EEQ partial charges (D4)


Warning: RI is on but no J-basis has been assigned. Assigning Def2/J (nothing to worry about!)
================================================================================

----- Orbital basis set information -----
Your calculation utilizes the basis: def2-TZVP
   F. Weigend and R. Ahlrichs, Phys. Chem. Chem. Phys. 7, 3297 (2005).

----- AuxJ basis set information -----
Your calculation utilizes the auxiliary basis: def2/J
   H-Rn: F. Weigend, Phys. Chem. Chem. Phys. 8, 1057 (2006).
   Fr-Lr: K. Eichkorn, F. Weigend, O. Treutler, R. Ahlrichs; Theor. Chem. Acc. 97, 119 (1997).

================================================================================
                                        WARNINGS
                       Please study these warnings very carefully!
================================================================================


WARNING: Geometry Optimization
  ===> : Switching off AutoStart
         For restart on a previous wavefunction, please use MOREAD

================================================================================
                                       INPUT FILE
================================================================================
NAME = opt-conf-2.inp
|  1> ! B3LYP OPT FREQ DEF2-TZVP D4 CPCM(Methanol) 
|  2> ! TightOpt
|  3> %pal nprocs 64 end
|  4> %maxcore 6000
|  5> 
|  6> %cpcm
|  7> end
|  8> 
|  9> %freq
| 10>    Temp 298.15
| 11> end
| 12> 
| 13> * xyzfile 0 1 conf-2.xyz
| 14> 
| 15> 
| 16>                          ****END OF INPUT****
================================================================================

                       *****************************
                       * Geometry Optimization Run *
                       *****************************

Geometry optimization settings:
Update method            Update   .... BFGS
Choice of coordinates    CoordSys .... (2022) Redundant Internals
Initial Hessian          InHess   .... Almloef's Model
Max. no of cycles        MaxIter  .... 246

Convergence Tolerances:
Energy Change            TolE     ....  1.0000e-06 Eh
Max. Gradient            TolMAXG  ....  1.0000e-04 Eh/bohr
RMS Gradient             TolRMSG  ....  3.0000e-05 Eh/bohr
Max. Displacement        TolMAXD  ....  1.0000e-03 bohr
RMS Displacement         TolRMSD  ....  6.0000e-04 bohr
Strict Convergence                .... False

------------------------------------------------------------------------------
                        ORCA OPTIMIZATION COORDINATE SETUP
------------------------------------------------------------------------------

The optimization will be done in redundant internal coordinates (2022)
Making redundant internal coordinates   ...  (2022 redundants) done
Evaluating the initial hessian          ...  (Almloef) done
Evaluating the coordinates              ...  done
Calculating the B-matrix                .... done
Calculating the G-matrix                .... done
The number of degrees of freedom        ....  406

    -----------------------------------------------------------------
                    Redundant Internal Coordinates


    -----------------------------------------------------------------
         Definition                    Initial Value    Approx d2E/dq
    -----------------------------------------------------------------
      1. B(C   1,C   0)                  1.4028         0.596133   
      2. B(C   2,C   1)                  1.4002         0.601769   
      3. B(C   3,C   2)                  1.3883         0.628712   
      4. B(C   4,C   3)                  1.3863         0.633323   
      5. B(C   5,C   4)                  1.3859         0.634225   
      6. B(C   5,C   0)                  1.3862         0.633577   
      7. B(C   6,C   4)                  1.5019         0.414195   
      8. B(C   7,C   6)                  1.5357         0.365780   
      9. B(C   8,C   7)                  1.5407         0.359128   
     10. B(C   9,C   8)                  1.5374         0.363573   
     11. B(C  10,C   9)                  1.5045         0.410195   
     12. B(C  11,C  10)                  1.3934         0.616977   
     13. B(C  12,C  11)                  1.3814         0.644949   
     14. B(C  13,C  12)                  1.4052         0.590925   
     15. B(C  14,C  13)                  1.3822         0.642904   
     16. B(C  15,C  10)                  1.3854         0.635492   
     17. B(C  15,C  14)                  1.3863         0.633430   
     18. B(C  16,C   7)                  1.5362         0.365201   
     19. B(C  17,C   8)                  1.5358         0.365689   
     20. B(O  18,C   2)                  1.3683         0.605955   
     21. B(O  19,C   0)                  1.3685         0.605688   
     22. B(O  20,C   1)                  1.3753         0.590579   
     23. B(O  21,C  13)                  1.3615         0.621324   
     24. B(O  22,C  12)                  1.3790         0.582679   
     25. B(C  23,O  20)                  1.4159         0.508833   
     26. B(C  24,C  23)                  1.5552         0.340599   
     27. B(C  25,C  24)                  1.5155         0.393967   
     28. B(C  26,C  23)                  1.5367         0.364449   
     29. B(O  27,C  26)                  1.3972         0.544938   
     30. B(C  28,C  25)                  1.3930         0.617931   
     31. B(C  29,C  28)                  1.3810         0.645742   
     32. B(C  30,C  29)                  1.4036         0.594307   
     33. B(C  31,C  30)                  1.3809         0.645918   
     34. B(C  32,C  31)                  1.3849         0.636633   
     35. B(C  32,C  25)                  1.3832         0.640528   
     36. B(C  33,O  19)                  1.4071         0.525515   
     37. B(C  34,O  18)                  1.4081         0.523521   
     38. B(C  35,O  22)                  1.4081         0.523607   
     39. B(O  36,C  24)                  1.4066         0.526528   
     40. B(O  37,C  16)                  1.4078         0.524254   
     41. B(O  38,C  17)                  1.4059         0.527896   
     42. B(O  39,C  29)                  1.3740         0.593415   
     43. B(O  40,C  30)                  1.3686         0.605307   
     44. B(C  41,O  39)                  1.4085         0.522910   
     45. B(H  42,C   3)                  1.0777         0.376706   
     46. B(H  43,C   5)                  1.0777         0.376717   
     47. B(H  44,C   6)                  1.0912         0.358568   
     48. B(H  45,C   6)                  1.0900         0.360093   
     49. B(H  46,C   7)                  1.0970         0.350902   
     50. B(H  47,C   8)                  1.0969         0.351147   
     51. B(H  48,C   9)                  1.0945         0.354204   
     52. B(H  49,C   9)                  1.0916         0.357961   
     53. B(H  50,C  11)                  1.0773         0.377356   
     54. B(H  51,C  14)                  1.0786         0.375558   
     55. B(H  52,C  15)                  1.0802         0.373247   
     56. B(H  53,C  16)                  1.0978         0.349973   
     57. B(H  54,C  16)                  1.0915         0.358137   
     58. B(H  55,C  17)                  1.0916         0.358048   
     59. B(H  56,C  17)                  1.1020         0.344521   
     60. B(H  57,O  21)                  0.9672         0.506454   
     61. B(H  57,O  22)                  2.1123         0.010000   
     62. B(H  58,C  23)                  1.0949         0.353642   
     63. B(H  59,C  24)                  1.0982         0.349462   
     64. B(H  60,C  26)                  1.0937         0.355271   
     65. B(H  61,C  26)                  1.1037         0.342412   
     66. B(H  62,O  36)                  1.9352         0.014459   
     67. B(H  62,O  27)                  0.9715         0.498500   
     68. B(H  63,C  28)                  1.0782         0.376071   
     69. B(H  64,C  31)                  1.0781         0.376198   
     70. B(H  65,C  32)                  1.0783         0.375882   
     71. B(H  66,C  33)                  1.0936         0.355412   
     72. B(H  67,C  33)                  1.0949         0.353727   
     73. B(H  68,C  33)                  1.0888         0.361650   
     74. B(H  69,C  34)                  1.0896         0.360654   
     75. B(H  70,C  34)                  1.0948         0.353766   
     76. B(H  71,C  34)                  1.0941         0.354697   
     77. B(H  72,C  35)                  1.0888         0.361748   
     78. B(H  73,H  64)                  4.8730         0.010000   
     79. B(H  73,C  35)                  1.0939         0.355035   
     80. B(H  74,C  35)                  1.0939         0.354925   
     81. B(H  75,O  20)                  2.2509         0.010000   
     82. B(H  75,O  19)                  2.0178         0.010672   
     83. B(H  75,O  36)                  0.9761         0.490169   
     84. B(H  76,O  40)                  1.9713         0.012664   
     85. B(H  76,O  37)                  0.9697         0.501723   
     86. B(H  77,O  38)                  0.9645         0.511361   
     87. B(H  78,O  39)                  2.1008         0.010000   
     88. B(H  78,O  40)                  0.9686         0.503849   
     89. B(H  79,C  41)                  1.0944         0.354384   
     90. B(H  80,O  21)                  2.3644         0.010000   
     91. B(H  80,C  41)                  1.0886         0.361917   
     92. B(H  81,H  70)                  2.4848         0.010000   
     93. B(H  81,C  41)                  1.0931         0.356041   
     94. A(C   1,C   0,O  19)          114.5843         0.426411   
     95. A(C   5,C   0,O  19)          124.8407         0.431096   
     96. A(C   1,C   0,C   5)          120.5659         0.432695   
     97. A(C   0,C   1,O  20)          116.2889         0.424487   
     98. A(C   0,C   1,C   2)          119.2432         0.428711   
     99. A(C   2,C   1,O  20)          124.3152         0.425203   
    100. A(C   3,C   2,O  18)          123.6488         0.430533   
    101. A(C   1,C   2,C   3)          119.2350         0.432827   
    102. A(C   1,C   2,O  18)          117.1160         0.427164   
    103. A(C   4,C   3,H  42)          118.4001         0.356902   
    104. A(C   2,C   3,H  42)          120.3012         0.356459   
    105. A(C   2,C   3,C   4)          121.2922         0.436827   
    106. A(C   5,C   4,C   6)          121.2946         0.405578   
    107. A(C   3,C   4,C   6)          119.0828         0.405476   
    108. A(C   3,C   4,C   5)          119.6031         0.437515   
    109. A(C   4,C   5,H  43)          119.1850         0.356990   
    110. A(C   0,C   5,H  43)          120.8250         0.356928   
    111. A(C   0,C   5,C   4)          119.9896         0.437547   
    112. A(C   4,C   6,H  44)          108.6728         0.329649   
    113. A(C   7,C   6,H  45)          109.3953         0.323197   
    114. A(C   4,C   6,C   7)          110.6816         0.368499   
    115. A(H  44,C   6,H  45)          108.6016         0.290644   
    116. A(C   4,C   6,H  45)          110.4134         0.329880   
    117. A(C   7,C   6,H  44)          109.0326         0.322972   
    118. A(C   6,C   7,C  16)          110.1116         0.360648   
    119. A(C   8,C   7,C  16)          110.6528         0.359522   
    120. A(C  16,C   7,H  46)          106.8625         0.321747   
    121. A(C   8,C   7,H  46)          106.8009         0.320866   
    122. A(C   6,C   7,H  46)          107.9365         0.321831   
    123. A(C   6,C   7,C   8)          114.1302         0.359619   
    124. A(C   7,C   8,C  17)          114.4664         0.359603   
    125. A(C  17,C   8,H  47)          107.2333         0.321854   
    126. A(C   7,C   8,C   9)          111.4410         0.359248   
    127. A(C   9,C   8,H  47)          108.5990         0.321549   
    128. A(C   7,C   8,H  47)          105.9756         0.320902   
    129. A(C   9,C   8,C  17)          108.8664         0.360358   
    130. A(H  48,C   9,H  49)          107.1923         0.289816   
    131. A(C  10,C   9,H  48)          108.6325         0.328456   
    132. A(C  10,C   9,H  49)          109.1560         0.329029   
    133. A(C   8,C   9,C  10)          113.9129         0.367504   
    134. A(C   8,C   9,H  48)          108.4164         0.322006   
    135. A(C   8,C   9,H  49)          109.3145         0.322563   
    136. A(C   9,C  10,C  11)          120.2293         0.402918   
    137. A(C  11,C  10,C  15)          118.7802         0.435615   
    138. A(C   9,C  10,C  15)          120.9804         0.405026   
    139. A(C  10,C  11,C  12)          120.7223         0.436776   
    140. A(C  10,C  11,H  50)          119.2284         0.355425   
    141. A(C  12,C  11,H  50)          120.0489         0.358112   
    142. A(C  11,C  12,C  13)          119.9633         0.433397   
    143. A(C  13,C  12,O  22)          114.5420         0.422803   
    144. A(C  11,C  12,O  22)          125.4947         0.429478   
    145. A(C  12,C  13,O  21)          120.1934         0.427690   
    146. A(C  12,C  13,C  14)          119.2907         0.433149   
    147. A(C  14,C  13,O  21)          120.5156         0.434215   
    148. A(C  13,C  14,H  51)          118.6523         0.357628   
    149. A(C  13,C  14,C  15)          120.1555         0.438602   
    150. A(C  15,C  14,H  51)          121.1884         0.356727   
    151. A(C  14,C  15,H  52)          119.1524         0.356353   
    152. A(C  10,C  15,H  52)          119.7821         0.356550   
    153. A(C  10,C  15,C  14)          121.0536         0.437686   
    154. A(O  37,C  16,H  54)          106.3728         0.340675   
    155. A(C   7,C  16,H  54)          110.3430         0.322825   
    156. A(O  37,C  16,H  53)          110.7155         0.339365   
    157. A(C   7,C  16,H  53)          108.4710         0.321608   
    158. A(C   7,C  16,O  37)          112.3938         0.381280   
    159. A(H  53,C  16,H  54)          108.4764         0.289293   
    160. A(O  38,C  17,H  56)          109.7923         0.338868   
    161. A(C   8,C  17,O  38)          114.3196         0.381827   
    162. A(H  55,C  17,H  56)          107.7611         0.288571   
    163. A(C   8,C  17,H  56)          108.2928         0.320853   
    164. A(O  38,C  17,H  55)          105.4964         0.341055   
    165. A(C   8,C  17,H  55)          110.9878         0.322882   
    166. A(C   2,O  18,C  34)          118.1092         0.413973   
    167. A(C   0,O  19,C  33)          118.4869         0.414220   
    168. A(C   1,O  20,C  23)          118.7478         0.410013   
    169. A(C  13,O  21,H  57)          107.5492         0.368582   
    170. A(C  12,O  22,C  35)          118.0840         0.411116   
    171. A(C  26,C  23,H  58)          108.1671         0.322049   
    172. A(C  24,C  23,H  58)          110.0633         0.318506   
    173. A(O  20,C  23,H  58)          110.6819         0.338266   
    174. A(C  24,C  23,C  26)          111.1574         0.356173   
    175. A(O  20,C  23,C  26)          107.2972         0.379176   
    176. A(O  20,C  23,C  24)          109.4366         0.374765   
    177. A(C  23,C  24,O  36)          109.5734         0.376985   
    178. A(O  36,C  24,H  59)          106.1330         0.339527   
    179. A(C  25,C  24,H  59)          108.8432         0.325556   
    180. A(C  23,C  24,H  59)          108.4623         0.317889   
    181. A(C  25,C  24,O  36)          113.0694         0.386631   
    182. A(C  23,C  24,C  25)          110.5689         0.360924   
    183. A(C  28,C  25,C  32)          119.4484         0.436356   
    184. A(C  24,C  25,C  32)          121.4255         0.402712   
    185. A(C  24,C  25,C  28)          119.1260         0.400172   
    186. A(O  27,C  26,H  61)          110.4857         0.340322   
    187. A(H  60,C  26,H  61)          108.5708         0.287943   
    188. A(C  23,C  26,H  61)          107.4380         0.320353   
    189. A(O  27,C  26,H  60)          106.7233         0.342428   
    190. A(C  23,C  26,H  60)          108.8060         0.322291   
    191. A(C  23,C  26,O  27)          114.6773         0.383714   
    192. A(C  26,O  27,H  62)          108.0368         0.359432   
    193. A(C  29,C  28,H  63)          120.3068         0.357979   
    194. A(C  25,C  28,H  63)          119.3044         0.355312   
    195. A(C  25,C  28,C  29)          120.3882         0.436994   
    196. A(C  30,C  29,O  39)          114.6943         0.424618   
    197. A(C  28,C  29,O  39)          125.6667         0.430983   
    198. A(C  28,C  29,C  30)          119.6382         0.433938   
    199. A(C  31,C  30,O  40)          120.4818         0.432544   
    200. A(C  29,C  30,O  40)          119.7459         0.426129   
    201. A(C  29,C  30,C  31)          119.7648         0.433959   
    202. A(C  32,C  31,H  64)          120.7946         0.357136   
    203. A(C  30,C  31,H  64)          119.1139         0.358016   
    204. A(C  30,C  31,C  32)          120.0886         0.439373   
    205. A(C  31,C  32,H  65)          119.7480         0.357085   
    206. A(C  25,C  32,H  65)          119.7047         0.357455   
    207. A(C  25,C  32,C  31)          120.5389         0.438709   
    208. A(H  67,C  33,H  68)          109.4199         0.290221   
    209. A(H  66,C  33,H  68)          109.3184         0.290437   
    210. A(O  19,C  33,H  68)          105.5730         0.341369   
    211. A(H  66,C  33,H  67)          109.4624         0.289430   
    212. A(O  19,C  33,H  67)          111.4969         0.340107   
    213. A(O  19,C  33,H  66)          111.4752         0.340377   
    214. A(H  69,C  34,H  71)          109.0940         0.290220   
    215. A(O  18,C  34,H  71)          111.3722         0.340046   
    216. A(H  69,C  34,H  70)          109.6684         0.290100   
    217. A(O  18,C  34,H  70)          111.7273         0.339897   
    218. A(O  18,C  34,H  69)          105.5602         0.340994   
    219. A(H  70,C  34,H  71)          109.3269         0.289344   
    220. A(H  73,C  35,H  74)          109.7076         0.289535   
    221. A(H  72,C  35,H  74)          109.2997         0.290387   
    222. A(O  22,C  35,H  74)          111.2980         0.340092   
    223. A(H  72,C  35,H  73)          109.4782         0.290401   
    224. A(O  22,C  35,H  73)          111.3700         0.340110   
    225. A(O  22,C  35,H  72)          105.5861         0.341176   
    226. A(C  24,O  36,H  75)          107.2002         0.356315   
    227. A(C  16,O  37,H  76)          107.8546         0.357465   
    228. A(C  17,O  38,H  77)          108.3932         0.359047   
    229. A(C  29,O  39,C  41)          118.2467         0.412353   
    230. A(C  30,O  40,H  78)          107.3614         0.366610   
    231. A(H  80,C  41,H  81)          109.3906         0.290552   
    232. A(H  79,C  41,H  81)          109.4195         0.289594   
    233. A(O  39,C  41,H  81)          111.5115         0.340195   
    234. A(H  79,C  41,H  80)          109.9558         0.290339   
    235. A(O  39,C  41,H  80)          105.3872         0.341127   
    236. A(O  39,C  41,H  79)          111.0993         0.339930   
    237. D(O  20,C   1,C   0,O  19)     -8.0152         0.024482   
    238. D(C   2,C   1,C   0,O  19)    176.2809         0.024482   
    239. D(C   2,C   1,C   0,C   5)     -2.6782         0.024482   
    240. D(O  20,C   1,C   0,C   5)    173.0258         0.024482   
    241. D(O  18,C   2,C   1,C   0)   -178.8957         0.024972   
    242. D(C   3,C   2,C   1,C   0)      0.9498         0.024972   
    243. D(C   3,C   2,C   1,O  20)   -174.3860         0.024972   
    244. D(O  18,C   2,C   1,O  20)      5.7685         0.024972   
    245. D(C   4,C   3,C   2,C   1)      1.4592         0.027400   
    246. D(H  42,C   3,C   2,O  18)      0.3541         0.027400   
    247. D(C   4,C   3,C   2,O  18)   -178.7060         0.027400   
    248. D(H  42,C   3,C   2,C   1)   -179.4807         0.027400   
    249. D(C   6,C   4,C   3,H  42)      0.3476         0.027829   
    250. D(C   5,C   4,C   3,H  42)    178.7641         0.027829   
    251. D(C   5,C   4,C   3,C   2)     -2.1584         0.027829   
    252. D(C   6,C   4,C   3,C   2)    179.4251         0.027829   
    253. D(H  43,C   5,C   4,C   6)     -0.9625         0.027914   
    254. D(H  43,C   5,C   4,C   3)   -179.3431         0.027914   
    255. D(C   0,C   5,C   4,C   3)      0.4089         0.027914   
    256. D(C   4,C   5,C   0,O  19)   -176.8441         0.027853   
    257. D(H  43,C   5,C   0,C   1)   -178.2495         0.027853   
    258. D(H  43,C   5,C   0,O  19)      2.9038         0.027853   
    259. D(C   0,C   5,C   4,C   6)    178.7895         0.027914   
    260. D(C   4,C   5,C   0,C   1)      2.0026         0.027853   
    261. D(H  45,C   6,C   4,C   3)   -162.3979         0.012697   
    262. D(H  44,C   6,C   4,C   5)    138.2287         0.012697   
    263. D(H  44,C   6,C   4,C   3)    -43.3824         0.012697   
    264. D(C   7,C   6,C   4,C   5)   -102.0677         0.012697   
    265. D(C   7,C   6,C   4,C   3)     76.3212         0.012697   
    266. D(C   8,C   7,C   6,H  44)    -40.0307         0.010711   
    267. D(C   8,C   7,C   6,C   4)   -159.5181         0.010711   
    268. D(C  16,C   7,C   6,H  45)    -46.5405         0.010711   
    269. D(C  16,C   7,C   6,H  44)   -165.1725         0.010711   
    270. D(C   8,C   7,C   6,H  45)     78.6013         0.010711   
    271. D(C  16,C   7,C   6,C   4)     75.3401         0.010711   
    272. D(C  17,C   8,C   7,H  46)   -164.0333         0.010351   
    273. D(C  17,C   8,C   7,C  16)     80.0140         0.010351   
    274. D(C  17,C   8,C   7,C   6)    -44.8406         0.010351   
    275. D(C   9,C   8,C   7,C  16)   -155.9044         0.010351   
    276. D(C   9,C   8,C   7,H  46)    -39.9517         0.010351   
    277. D(C   9,C   8,C   7,C   6)     79.2411         0.010351   
    278. D(H  48,C   9,C   8,C  17)    -57.7303         0.010591   
    279. D(H  48,C   9,C   8,C   7)    175.0829         0.010591   
    280. D(C  10,C   9,C   8,H  47)    -62.3503         0.010591   
    281. D(C  10,C   9,C   8,C  17)   -178.7949         0.010591   
    282. D(H  48,C   9,C   8,H  47)     58.7143         0.010591   
    283. D(C  10,C   9,C   8,C   7)     54.0182         0.010591   
    284. D(C  15,C  10,C   9,H  48)    111.2654         0.012462   
    285. D(C  15,C  10,C   9,C   8)   -127.7905         0.012462   
    286. D(C  11,C  10,C   9,H  49)    175.8673         0.012462   
    287. D(C  11,C  10,C   9,H  48)    -67.5597         0.012462   
    288. D(C  11,C  10,C   9,C   8)     53.3845         0.012462   
    289. D(H  50,C  11,C  10,C  15)    179.8459         0.026325   
    290. D(H  50,C  11,C  10,C   9)     -1.3034         0.026325   
    291. D(C  12,C  11,C  10,C  15)      0.0741         0.026325   
    292. D(C  12,C  11,C  10,C   9)    178.9248         0.026325   
    293. D(O  22,C  12,C  11,H  50)     -1.4326         0.028931   
    294. D(C  13,C  12,C  11,H  50)    178.5681         0.028931   
    295. D(O  22,C  12,C  11,C  10)    178.3373         0.028931   
    296. D(C  13,C  12,C  11,C  10)     -1.6620         0.028931   
    297. D(O  21,C  13,C  12,C  11)   -177.8176         0.024034   
    298. D(C  14,C  13,C  12,O  22)   -178.0040         0.024034   
    299. D(C  14,C  13,C  12,C  11)      1.9954         0.024034   
    300. D(O  21,C  13,C  12,O  22)      2.1830         0.024034   
    301. D(H  51,C  14,C  13,O  21)     -0.2394         0.028735   
    302. D(H  51,C  14,C  13,C  12)    179.9483         0.028735   
    303. D(C  15,C  14,C  13,O  21)    179.0593         0.028735   
    304. D(C  15,C  14,C  13,C  12)     -0.7530         0.028735   
    305. D(H  52,C  15,C  14,H  51)     -0.3092         0.027839   
    306. D(H  52,C  15,C  14,C  13)   -179.5898         0.027839   
    307. D(C  10,C  15,C  14,H  51)    178.4340         0.027839   
    308. D(C  10,C  15,C  14,C  13)     -0.8466         0.027839   
    309. D(H  52,C  15,C  10,C  11)    179.9259         0.028033   
    310. D(H  52,C  15,C  10,C   9)      1.0841         0.028033   
    311. D(C  14,C  15,C  10,C  11)      1.1905         0.028033   
    312. D(C  14,C  15,C  10,C   9)   -177.6512         0.028033   
    313. D(H  53,C  16,C   7,H  46)     66.1548         0.010679   
    314. D(H  53,C  16,C   7,C   8)   -177.9308         0.010679   
    315. D(H  53,C  16,C   7,C   6)    -50.8256         0.010679   
    316. D(O  37,C  16,C   7,H  46)    -56.5965         0.010679   
    317. D(O  37,C  16,C   7,C   8)     59.3178         0.010679   
    318. D(O  37,C  16,C   7,C   6)   -173.5770         0.010679   
    319. D(H  55,C  17,C   8,H  47)    175.3894         0.010706   
    320. D(H  55,C  17,C   8,C   9)    -67.2949         0.010706   
    321. D(H  55,C  17,C   8,C   7)     58.1483         0.010706   
    322. D(O  38,C  17,C   8,H  47)     56.2197         0.010706   
    323. D(O  38,C  17,C   8,C   9)    173.5353         0.010706   
    324. D(O  38,C  17,C   8,C   7)    -61.0214         0.010706   
    325. D(C  34,O  18,C   2,C   3)      4.4127         0.026853   
    326. D(C  34,O  18,C   2,C   1)   -175.7493         0.026853   
    327. D(C  33,O  19,C   0,C   5)     -2.8480         0.029601   
    328. D(C  33,O  19,C   0,C   1)    178.2441         0.029601   
    329. D(C  23,O  20,C   1,C   2)    -58.9020         0.028042   
    330. D(C  23,O  20,C   1,C   0)    125.6370         0.028042   
    331. D(H  57,O  21,C  13,C  14)   -179.0503         0.031270   
    332. D(H  57,O  21,C  13,C  12)      0.7603         0.031270   
    333. D(C  35,O  22,C  12,C  13)    178.9776         0.027248   
    334. D(C  35,O  22,C  12,C  11)     -1.0217         0.027248   
    335. D(H  58,C  23,O  20,C   1)     53.3365         0.022237   
    336. D(C  26,C  23,O  20,C   1)    171.1512         0.022237   
    337. D(C  24,C  23,O  20,C   1)    -68.1342         0.022237   
    338. D(O  36,C  24,C  23,H  58)   -171.6294         0.010000   
    339. D(O  36,C  24,C  23,C  26)     68.5508         0.010000   
    340. D(O  36,C  24,C  23,O  20)    -49.7862         0.010000   
    341. D(C  25,C  24,C  23,H  58)    -46.3460         0.010000   
    342. D(C  25,C  24,C  23,C  26)   -166.1658         0.010000   
    343. D(C  25,C  24,C  23,O  20)     75.4973         0.010000   
    344. D(C  32,C  25,C  24,O  36)      1.7839         0.011535   
    345. D(C  32,C  25,C  24,C  23)   -121.4974         0.011535   
    346. D(C  28,C  25,C  24,H  59)    -60.4025         0.011535   
    347. D(C  28,C  25,C  24,O  36)   -178.0785         0.011535   
    348. D(C  28,C  25,C  24,C  23)     58.6402         0.011535   
    349. D(H  60,C  26,C  23,H  58)     62.6953         0.010638   
    350. D(H  60,C  26,C  23,C  24)   -176.3638         0.010638   
    351. D(H  60,C  26,C  23,O  20)    -56.7442         0.010638   
    352. D(O  27,C  26,C  23,H  58)   -177.8985         0.010638   
    353. D(O  27,C  26,C  23,C  24)    -56.9576         0.010638   
    354. D(O  27,C  26,C  23,O  20)     62.6620         0.010638   
    355. D(H  62,O  27,C  26,H  61)    -86.6482         0.023646   
    356. D(H  62,O  27,C  26,H  60)    155.4964         0.023646   
    357. D(H  62,O  27,C  26,C  23)     34.9335         0.023646   
    358. D(H  63,C  28,C  25,C  32)   -176.4698         0.026411   
    359. D(H  63,C  28,C  25,C  24)      3.3954         0.026411   
    360. D(C  29,C  28,C  25,C  32)      3.8013         0.026411   
    361. D(C  29,C  28,C  25,C  24)   -176.3335         0.026411   
    362. D(C  30,C  29,C  28,H  63)    178.4130         0.029007   
    363. D(C  30,C  29,C  28,C  25)     -1.8608         0.029007   
    364. D(O  39,C  29,C  28,H  63)     -1.2338         0.029007   
    365. D(O  39,C  29,C  28,C  25)    178.4924         0.029007   
    366. D(O  40,C  30,C  29,O  39)     -0.8409         0.024324   
    367. D(O  40,C  30,C  29,C  28)    179.4750         0.024324   
    368. D(C  31,C  30,C  29,O  39)    178.1686         0.024324   
    369. D(C  31,C  30,C  29,C  28)     -1.5156         0.024324   
    370. D(H  64,C  31,C  30,O  40)      2.5539         0.029024   
    371. D(H  64,C  31,C  30,C  29)   -176.4482         0.029024   
    372. D(C  32,C  31,C  30,O  40)   -178.0619         0.029024   
    373. D(C  32,C  31,C  30,C  29)      2.9361         0.029024   
    374. D(H  65,C  32,C  31,H  64)     -0.5552         0.028140   
    375. D(H  65,C  32,C  31,C  30)   -179.9290         0.028140   
    376. D(C  25,C  32,C  31,H  64)    178.3886         0.028140   
    377. D(C  25,C  32,C  31,C  30)     -0.9852         0.028140   
    378. D(H  65,C  32,C  25,C  28)    176.5641         0.028509   
    379. D(H  65,C  32,C  25,C  24)     -3.2980         0.028509   
    380. D(C  31,C  32,C  25,C  28)     -2.3802         0.028509   
    381. D(C  31,C  32,C  25,C  24)    177.7578         0.028509   
    382. D(H  68,C  33,O  19,C   0)   -179.4504         0.023789   
    383. D(H  67,C  33,O  19,C   0)     61.8165         0.023789   
    384. D(H  66,C  33,O  19,C   0)    -60.8506         0.023789   
    385. D(H  71,C  34,O  18,C   2)     59.9128         0.021741   
    386. D(H  70,C  34,O  18,C   2)    -62.6705         0.021741   
    387. D(H  69,C  34,O  18,C   2)    178.1817         0.021741   
    388. D(H  74,C  35,O  22,C  12)     62.9775         0.023609   
    389. D(H  73,C  35,O  22,C  12)    -59.7882         0.023609   
    390. D(H  72,C  35,O  22,C  12)   -178.5314         0.023609   
    391. D(H  75,O  36,C  24,H  59)    166.2685         0.023886   
    392. D(H  75,O  36,C  24,C  25)    -74.4802         0.023886   
    393. D(H  75,O  36,C  24,C  23)     49.3495         0.023886   
    394. D(H  76,O  37,C  16,H  54)   -174.1477         0.021805   
    395. D(H  76,O  37,C  16,H  53)    -56.4861         0.021805   
    396. D(H  76,O  37,C  16,C   7)     64.9922         0.021805   
    397. D(H  77,O  38,C  17,H  56)     67.7008         0.022122   
    398. D(H  77,O  38,C  17,H  55)   -176.4371         0.022122   
    399. D(H  77,O  38,C  17,C   8)    -54.2168         0.022122   
    400. D(C  41,O  39,C  29,C  30)   -174.3065         0.028331   
    401. D(C  41,O  39,C  29,C  28)      5.3556         0.028331   
    402. D(H  78,O  40,C  30,C  31)   -177.2475         0.029561   
    403. D(H  78,O  40,C  30,C  29)      1.7547         0.029561   
    404. D(H  81,C  41,O  39,C  29)    -59.4128         0.023543   
    405. D(H  80,C  41,O  39,C  29)   -178.0070         0.023543   
    406. D(H  79,C  41,O  39,C  29)     62.9405         0.023543   
    -----------------------------------------------------------------

Number of atoms                         .... 82
Number of degrees of freedom            .... 406


         *************************************************************
         *                GEOMETRY OPTIMIZATION CYCLE   1            *
         *************************************************************
---------------------------------
CARTESIAN COORDINATES (ANGSTROEM)
---------------------------------
  C     10.567554   -7.946774   -2.085836
  C     11.194843   -9.120873   -2.528330
  C     10.527182  -10.344575   -2.396397
  C      9.251574  -10.365407   -1.848890
  C      8.616204   -9.196613   -1.458911
  C      9.279626   -7.985309   -1.574650
  C      7.230820   -9.275557   -0.884289
  C      7.273280   -9.776178    0.566943
  C      5.938762  -10.357386    1.072042
  C      5.724759  -11.793908    0.567891
  C      6.861852  -12.726988    0.884173
  C      7.319416  -12.856610    2.193935
  C      8.347981  -13.726648    2.499287
  C      8.920724  -14.518236    1.489406
  C      8.471943  -14.384280    0.188948
  C      7.456571  -13.488604   -0.108564
  C      7.763585   -8.656771    1.497722
  C      4.703615   -9.516937    0.716004
  O     11.188479  -11.464788   -2.820840
  O     11.335256   -6.818433   -2.186577
  O     12.409497   -8.963876   -3.154034
  O      9.904343  -15.409338    1.792984
  O      8.897906  -13.908552    3.750737
  C     13.525113   -9.686695   -2.666524
  C     13.918283   -9.146429   -1.262230
  C     12.941928   -9.635172   -0.211184
  C     14.669217   -9.495749   -3.674548
  O     15.102560   -8.175627   -3.821960
  C     12.771618  -11.005677   -0.029027
  C     11.834600  -11.480120    0.867706
  C     11.078585  -10.573107    1.626597
  C     11.299635   -9.216488    1.493391
  C     12.220888   -8.750482    0.570323
  C     10.773195   -5.587597   -1.800476
  C     10.503017  -12.694241   -2.782828
  C      8.394287  -13.135960    4.814786
  O     14.021909   -7.744443   -1.308774
  O      7.959080   -9.104270    2.818068
  O      4.714711   -8.216443    1.249929
  O     11.556642  -12.803586    1.110867
  O     10.141821  -11.040623    2.508096
  C     12.354608  -13.778828    0.481655
  H      8.725330  -11.298585   -1.731660
  H      8.783297   -7.082074   -1.259522
  H      6.643044   -9.972327   -1.484007
  H      6.749789   -8.297951   -0.916029
  H      8.012957  -10.584338    0.624038
  H      6.013353  -10.378084    2.166160
  H      4.811539  -12.188167    1.024515
  H      5.564546  -11.777534   -0.511785
  H      6.863812  -12.266001    2.971169
  H      8.919342  -14.996366   -0.578174
  H      7.113757  -13.401829   -1.129281
  H      8.693794   -8.244367    1.085748
  H      7.023778   -7.856001    1.550618
  H      4.616724   -9.387898   -0.364409
  H      3.807012  -10.055334    1.063452
  H     10.059364  -15.359016    2.746314
  H     13.297209  -10.756001   -2.607305
  H     14.921431   -9.518506   -1.014815
  H     14.329961   -9.827503   -4.659926
  H     15.503927  -10.142783   -3.353952
  H     15.036433   -7.738937   -2.956694
  H     13.376146  -11.692923   -0.598874
  H     10.754141   -8.531862    2.122687
  H     12.389995   -7.690077    0.471694
  H      9.895550   -5.341192   -2.404556
  H     10.498471   -5.586837   -0.740644
  H     11.549880   -4.844417   -1.973671
  H     11.197294  -13.428672   -3.189988
  H     10.228533  -12.973798   -1.760498
  H      9.603474  -12.668628   -3.405127
  H      8.981815  -13.420065    5.686271
  H      8.518488  -12.066024    4.624173
  H      7.339467  -13.357297    5.002058
  H     13.211719   -7.409218   -1.737617
  H      8.680573   -9.752120    2.808669
  H      4.847267   -8.279937    2.203202
  H     10.175399  -12.008179    2.479354
  H     13.396435  -13.706332    0.808693
  H     11.935182  -14.735987    0.786687
  H     12.308633  -13.692883   -0.607076

----------------------------
CARTESIAN COORDINATES (A.U.)
----------------------------
  NO LB      ZA    FRAG     MASS         X           Y           Z
   0 C     6.0000    0    12.011   19.969782  -15.017227   -3.941658
   1 C     6.0000    0    12.011   21.155187  -17.235952   -4.777852
   2 C     6.0000    0    12.011   19.893492  -19.548413   -4.528534
   3 C     6.0000    0    12.011   17.482941  -19.587781   -3.493896
   4 C     6.0000    0    12.011   16.282266  -17.379081   -2.756943
   5 C     6.0000    0    12.011   17.535951  -15.090047   -2.975657
   6 C     6.0000    0    12.011   13.664270  -17.528262   -1.671064
   7 C     6.0000    0    12.011   13.744508  -18.474299    1.071366
   8 C     6.0000    0    12.011   11.222634  -19.572623    2.025865
   9 C     6.0000    0    12.011   10.818227  -22.287256    1.073159
  10 C     6.0000    0    12.011   12.967021  -24.050522    1.670845
  11 C     6.0000    0    12.011   13.831691  -24.295472    4.145936
  12 C     6.0000    0    12.011   15.775397  -25.939605    4.722968
  13 C     6.0000    0    12.011   16.857726  -27.435490    2.814569
  14 C     6.0000    0    12.011   16.009652  -27.182351    0.357059
  15 C     6.0000    0    12.011   14.090878  -25.489767   -0.205156
  16 C     6.0000    0    12.011   14.671050  -16.358926    2.830284
  17 C     6.0000    0    12.011    8.888545  -17.984404    1.353052
  18 O     8.0000    0    15.999   21.143161  -21.665309   -5.330614
  19 O     8.0000    0    15.999   21.420530  -12.884972   -4.132032
  20 O     8.0000    0    15.999   23.450550  -16.939271   -5.960260
  21 O     8.0000    0    15.999   18.716496  -29.119430    3.388248
  22 O     8.0000    0    15.999   16.814606  -26.283354    7.087865
  23 C     6.0000    0    12.011   25.558760  -18.305200   -5.039000
  24 C     6.0000    0    12.011   26.301744  -17.284247   -2.385270
  25 C     6.0000    0    12.011   24.456699  -18.207837   -0.399080
  26 C     6.0000    0    12.011   27.720802  -17.944365   -6.943890
  27 O     8.0000    0    15.999   28.539703  -15.449695   -7.222457
  28 C     6.0000    0    12.011   24.134860  -20.797716   -0.054854
  29 C     6.0000    0    12.011   22.364154  -21.694282    1.639727
  30 C     6.0000    0    12.011   20.935493  -19.980277    3.073824
  31 C     6.0000    0    12.011   21.353216  -17.416638    2.822101
  32 C     6.0000    0    12.011   23.094132  -16.536015    1.077755
  33 C     6.0000    0    12.011   20.358388  -10.559028   -3.402407
  34 C     6.0000    0    12.011   19.847825  -23.988639   -5.258784
  35 C     6.0000    0    12.011   15.862903  -24.823367    9.098627
  36 O     8.0000    0    15.999   26.497569  -14.634877   -2.473224
  37 O     8.0000    0    15.999   15.040481  -17.204576    5.325376
  38 O     8.0000    0    15.999    8.909513  -15.526827    2.362023
  39 O     8.0000    0    15.999   21.838888  -24.195271    2.099235
  40 O     8.0000    0    15.999   19.165265  -20.863753    4.739615
  41 C     6.0000    0    12.011   23.346826  -26.038211    0.910196
  42 H     1.0000    0     1.008   16.488485  -21.351232   -3.272363
  43 H     1.0000    0     1.008   16.598025  -13.383181   -2.380151
  44 H     1.0000    0     1.008   12.553534  -18.844967   -2.804366
  45 H     1.0000    0     1.008   12.755253  -15.680854   -1.731044
  46 H     1.0000    0     1.008   15.142293  -20.001501    1.179261
  47 H     1.0000    0     1.008   11.363590  -19.611736    4.093450
  48 H     1.0000    0     1.008    9.092491  -23.032297    1.936053
  49 H     1.0000    0     1.008   10.515468  -22.256314   -0.967134
  50 H     1.0000    0     1.008   12.970725  -23.179383    5.614696
  51 H     1.0000    0     1.008   16.855113  -28.339025   -1.092590
  52 H     1.0000    0     1.008   13.443052  -25.325786   -2.134033
  53 H     1.0000    0     1.008   16.428889  -15.579595    2.051767
  54 H     1.0000    0     1.008   13.273017  -14.845690    2.930243
  55 H     1.0000    0     1.008    8.724344  -17.740556   -0.688634
  56 H     1.0000    0     1.008    7.194209  -19.001827    2.009633
  57 H     1.0000    0     1.008   19.009443  -29.024335    5.189782
  58 H     1.0000    0     1.008   25.128083  -20.325897   -4.927093
  59 H     1.0000    0     1.008   28.197418  -17.987370   -1.917722
  60 H     1.0000    0     1.008   27.079702  -18.571288   -8.805985
  61 H     1.0000    0     1.008   29.298177  -19.167082   -6.338050
  62 H     1.0000    0     1.008   28.414740  -14.624472   -5.587341
  63 H     1.0000    0     1.008   25.277252  -22.096423   -1.131709
  64 H     1.0000    0     1.008   20.322381  -16.122883    4.011297
  65 H     1.0000    0     1.008   23.413696  -14.532140    0.891373
  66 H     1.0000    0     1.008   18.699879  -10.093391   -4.543953
  67 H     1.0000    0     1.008   19.839235  -10.557592   -1.399613
  68 H     1.0000    0     1.008   21.826110   -9.154621   -3.729697
  69 H     1.0000    0     1.008   21.159819  -25.376512   -6.028203
  70 H     1.0000    0     1.008   19.329126  -24.516926   -3.326858
  71 H     1.0000    0     1.008   18.147936  -23.940237   -6.434757
  72 H     1.0000    0     1.008   16.973171  -25.360247   10.745495
  73 H     1.0000    0     1.008   16.097610  -22.801481    8.738421
  74 H     1.0000    0     1.008   13.869582  -25.241633    9.452521
  75 H     1.0000    0     1.008   24.966531  -14.001392   -3.283620
  76 H     1.0000    0     1.008   16.403906  -18.428836    5.307615
  77 H     1.0000    0     1.008    9.160007  -15.646814    4.163449
  78 H     1.0000    0     1.008   19.228718  -22.692170    4.685299
  79 H     1.0000    0     1.008   25.315594  -25.901215    1.528209
  80 H     1.0000    0     1.008   22.554226  -27.846979    1.486622
  81 H     1.0000    0     1.008   23.259946  -25.875800   -1.147208

--------------------------------
INTERNAL COORDINATES (ANGSTROEM)
--------------------------------
 C      0   0   0     0.000000000000     0.00000000     0.00000000
 C      1   0   0     1.402783361150     0.00000000     0.00000000
 C      2   1   0     1.400222178817   119.24321771     0.00000000
 C      3   2   1     1.388299418844   119.23500101     0.94982224
 C      4   3   2     1.386310376650   121.29220318     1.45916812
 C      5   4   3     1.385922716504   119.60314290   357.84162941
 C      5   4   3     1.501902597868   119.08275391   179.42506492
 C      7   5   4     1.535740154729   110.68158538    76.32117785
 C      8   7   5     1.540735515686   114.13020495   200.48192014
 C      9   8   7     1.537387104040   111.44097767    79.24108531
 C     10   9   8     1.504544190180   113.91288448    54.01823891
 C     11  10   9     1.393428152765   120.22925572    53.38446286
 C     12  11  10     1.381358570811   120.72228900   178.92483808
 C     13  12  11     1.405171982583   119.96328665   358.33797021
 C     14  13  12     1.382222957474   119.29072258     1.99535361
 C     11  10   9     1.385379441761   120.98038611   232.20950989
 C      8   7   5     1.536171032528   110.11157952    75.34013195
 C      9   8   7     1.535807861941   114.46641457   315.15944727
 O      3   2   1     1.368335313695   117.11596288   181.10433758
 O      1   2   3     1.368455063741   114.58433468   176.28085311
 O      2   1   3     1.375331641796   116.28892733   175.70394423
 O     14  13  12     1.361517111353   120.19339865   182.18239363
 O     13  12  11     1.378997266228   125.49469437   178.33725772
 C     21   2   1     1.415886278449   118.74783820   125.63698618
 C     24  21   2     1.555155882511   109.43660555   291.86581171
 C     25  24  21     1.515532459251   110.56885562    75.49726314
 C     24  21   2     1.536732312116   107.29724988   171.15120213
 O     27  24  21     1.397225788919   114.67731874    62.66202021
 C     26  25  24     1.393007719590   119.12599102    58.64015244
 C     29  26  25     1.381024292173   120.38820806   183.66648018
 C     30  29  26     1.403618832847   119.63824033   358.13916573
 C     31  30  29     1.380949791777   119.76480879   358.48442616
 C     26  25  24     1.383231144980   121.42549698   238.50259406
 C     20   1   2     1.407105182932   118.48686417   178.24405941
 C     19   3   2     1.408139974160   118.10920743   184.25068186
 C     23  13  12     1.408095323015   118.08396835   358.97829737
 O     25  24  21     1.406580829732   109.57337885   310.21384510
 O     17   8   7     1.407759045456   112.39377082   186.42301984
 O     18   9   8     1.405874461727   114.31964779   298.97855492
 O     30  29  26     1.374027626799   125.66666211   178.49237726
 O     31  30  29     1.368626264247   119.74589209   179.47497470
 C     40  30  29     1.408457881593   118.24670748     5.35557529
 H      4   3   2     1.077727594584   120.30118212   180.51930555
 H      6   5   4     1.077720261756   119.18500814   180.65686814
 H      7   5   4     1.091160733344   108.67284209   316.61758295
 H      7   5   4     1.090005405057   110.41336938   197.60213092
 H      8   7   5     1.097043215730   107.93649829   319.03045443
 H      9   8   7     1.096853658667   105.97563111   197.20093431
 H     10   9   8     1.094493834646   108.41637964   175.08285561
 H     10   9   8     1.091621542077   109.31449044   291.62239088
 H     12  11  10     1.077258814076   119.22844685   358.69657803
 H     15  14  13     1.078558842238   118.65230003   179.94828533
 H     16  11  10     1.080238817973   119.78209189     1.08412802
 H     17   8   7     1.097764625610   108.47096465   309.17437676
 H     17   8   7     1.091487842595   110.34298259    67.87283726
 H     18   9   8     1.091555983185   110.98779284    58.14833261
 H     18   9   8     1.102039040038   108.29282496   176.24307215
 H     22  14  13     0.967162200139   107.54917416     0.76034961
 H     24  21   2     1.094926298929   110.68187604    53.33653096
 H     25  24  21     1.098162495726   108.46229132   194.77034525
 H     27  24  21     1.093674776437   108.80604018   303.25577308
 H     27  24  21     1.103710430175   107.43795894   185.89366179
 H     28  27  24     0.971471184991   108.03677479    34.93353215
 H     29  26  25     1.078186936790   119.30441293     3.39537634
 H     32  31  30     1.078095196772   119.11389337   183.55184479
 H     33  26  25     1.078324096351   119.70470421   356.70204484
 H     34  20   1     1.093566789431   111.47518548   299.14936542
 H     34  20   1     1.094860500256   111.49694092    61.81650005
 H     34  20   1     1.088830808394   105.57304037   180.54960969
 H     35  19   3     1.089581778882   105.56016599   178.18168419
 H     35  19   3     1.094830582747   111.72727068   297.32951202
 H     35  19   3     1.094115150507   111.37222092    59.91281072
 H     36  23  13     1.088756765462   105.58606060   181.46864347
 H     36  23  13     1.093856111261   111.37001261   300.21179635
 H     36  23  13     1.093940423344   111.29799696    62.97745683
 H     37  25  24     0.976058692809   107.20024693    49.34950098
 H     38  17   8     0.969717087547   107.85456547    64.99221108
 H     39  18   9     0.964537439981   108.39317225   305.78316813
 H     41  31  30     0.968565746778   107.36135291     1.75469781
 H     42  40  30     1.094355550966   111.09934220    62.94050200
 H     42  40  30     1.088629806457   105.38720953   181.99301441
 H     42  40  30     1.093085825703   111.51151033   300.58718263

---------------------------
INTERNAL COORDINATES (A.U.)
---------------------------
 C      0   0   0     0.000000000000     0.00000000     0.00000000
 C      1   0   0     2.650876377796     0.00000000     0.00000000
 C      2   1   0     2.646036444607   119.24321771     0.00000000
 C      3   2   1     2.623505693498   119.23500101     0.94982224
 C      4   3   2     2.619746948481   121.29220318     1.45916812
 C      5   4   3     2.619014376972   119.60314290   357.84162941
 C      5   4   3     2.838184589796   119.08275391   179.42506492
 C      7   5   4     2.902128305304   110.68158538    76.32117785
 C      8   7   5     2.911568169453   114.13020495   200.48192014
 C      9   8   7     2.905240588457   111.44097767    79.24108531
 C     10   9   8     2.843176475823   113.91288448    54.01823891
 C     11  10   9     2.633197596021   120.22925572    53.38446286
 C     12  11  10     2.610389391577   120.72228900   178.92483808
 C     13  12  11     2.655390218141   119.96328665   358.33797021
 C     14  13  12     2.612022845644   119.29072258     1.99535361
 C     11  10   9     2.617987736493   120.98038611   232.20950989
 C      8   7   5     2.902942546342   110.11157952    75.34013195
 C      9   8   7     2.902256253392   114.46641457   315.15944727
 O      3   2   1     2.585779002258   117.11596288   181.10433758
 O      1   2   3     2.586005297049   114.58433468   176.28085311
 O      2   1   3     2.599000146311   116.28892733   175.70394423
 O     14  13  12     2.572894467105   120.19339865   182.18239363
 O     13  12  11     2.605927172596   125.49469437   178.33725772
 C     21   2   1     2.675637303046   118.74783820   125.63698618
 C     24  21   2     2.938818713503   109.43660555   291.86581171
 C     25  24  21     2.863941295053   110.56885562    75.49726314
 C     24  21   2     2.904003211047   107.29724988   171.15120213
 O     27  24  21     2.640374088308   114.67731874    62.66202021
 C     26  25  24     2.632403092463   119.12599102    58.64015244
 C     29  26  25     2.609757696499   120.38820806   183.66648018
 C     30  29  26     2.652455190495   119.63824033   358.13916573
 C     31  30  29     2.609616911154   119.76480879   358.48442616
 C     26  25  24     2.613928043923   121.42549698   238.50259406
 C     20   1   2     2.659043437363   118.48686417   178.24405941
 C     19   3   2     2.660998909389   118.10920743   184.25068186
 C     23  13  12     2.660914530954   118.08396835   358.97829737
 O     25  24  21     2.658052553418   109.57337885   310.21384510
 O     17   8   7     2.660279058462   112.39377082   186.42301984
 O     18   9   8     2.656717711337   114.31964779   298.97855492
 O     30  29  26     2.596535915091   125.66666211   178.49237726
 O     31  30  29     2.586328819119   119.74589209   179.47497470
 C     40  30  29     2.661599667373   118.24670748     5.35557529
 H      4   3   2     2.036610000734   120.30118212   180.51930555
 H      6   5   4     2.036596143696   119.18500814   180.65686814
 H      7   5   4     2.061994954108   108.67284209   316.61758295
 H      7   5   4     2.059811700051   110.41336938   197.60213092
 H      8   7   5     2.073111234806   107.93649829   319.03045443
 H      9   8   7     2.072753023871   105.97563111   197.20093431
 H     10   9   8     2.068293602746   108.41637964   175.08285561
 H     10   9   8     2.062865756414   109.31449044   291.62239088
 H     12  11  10     2.035724133956   119.22844685   358.69657803
 H     15  14  13     2.038180831149   118.65230003   179.94828533
 H     16  11  10     2.041355525199   119.78209189     1.08412802
 H     17   8   7     2.074474501910   108.47096465   309.17437676
 H     17   8   7     2.062613101010   110.34298259    67.87283726
 H     18   9   8     2.062741868064   110.98779284    58.14833261
 H     18   9   8     2.082551974562   108.29282496   176.24307215
 H     22  14  13     1.827671685344   107.54917416     0.76034961
 H     24  21   2     2.069110841804   110.68187604    53.33653096
 H     25  24  21     2.075226367465   108.46229132   194.77034525
 H     27  24  21     2.066745807044   108.80604018   303.25577308
 H     27  24  21     2.085710444184   107.43795894   185.89366179
 H     28  27  24     1.835814486628   108.03677479    34.93353215
 H     29  26  25     2.037478031705   119.30441293     3.39537634
 H     32  31  30     2.037304668195   119.11389337   183.55184479
 H     33  26  25     2.037737225712   119.70470421   356.70204484
 H     34  20   1     2.066541741176   111.47518548   299.14936542
 H     34  20   1     2.068986500331   111.49694092    61.81650005
 H     34  20   1     2.057592034040   105.57304037   180.54960969
 H     35  19   3     2.059011162597   105.56016599   178.18168419
 H     35  19   3     2.068929964433   111.72727068   297.32951202
 H     35  19   3     2.067577993432   111.37222092    59.91281072
 H     36  23  13     2.057452113177   105.58606060   181.46864347
 H     36  23  13     2.067088480200   111.37001261   300.21179635
 H     36  23  13     2.067247806945   111.29799696    62.97745683
 H     37  25  24     1.844483620042   107.20024693    49.34950098
 H     38  17   8     1.832499722847   107.85456547    64.99221108
 H     39  18   9     1.822711607477   108.39317225   305.78316813
 H     41  31  30     1.830324004107   107.36135291     1.75469781
 H     42  40  30     2.068032284462   111.09934220    62.94050200
 H     42  40  30     2.057212195427   105.38720953   181.99301441
 H     42  40  30     2.065632851450   111.51151033   300.58718263

---------------------
BASIS SET INFORMATION
---------------------
There are 3 groups of distinct atoms

 Group   1 Type C   : 11s6p2d1f contracted to 5s3p2d1f pattern {62111/411/11/1}
 Group   2 Type O   : 11s6p2d1f contracted to 5s3p2d1f pattern {62111/411/11/1}
 Group   3 Type H   : 5s1p contracted to 3s1p pattern {311/1}

Atom   0C    basis set group =>   1
Atom   1C    basis set group =>   1
Atom   2C    basis set group =>   1
Atom   3C    basis set group =>   1
Atom   4C    basis set group =>   1
Atom   5C    basis set group =>   1
Atom   6C    basis set group =>   1
Atom   7C    basis set group =>   1
Atom   8C    basis set group =>   1
Atom   9C    basis set group =>   1
Atom  10C    basis set group =>   1
Atom  11C    basis set group =>   1
Atom  12C    basis set group =>   1
Atom  13C    basis set group =>   1
Atom  14C    basis set group =>   1
Atom  15C    basis set group =>   1
Atom  16C    basis set group =>   1
Atom  17C    basis set group =>   1
Atom  18O    basis set group =>   2
Atom  19O    basis set group =>   2
Atom  20O    basis set group =>   2
Atom  21O    basis set group =>   2
Atom  22O    basis set group =>   2
Atom  23C    basis set group =>   1
Atom  24C    basis set group =>   1
Atom  25C    basis set group =>   1
Atom  26C    basis set group =>   1
Atom  27O    basis set group =>   2
Atom  28C    basis set group =>   1
Atom  29C    basis set group =>   1
Atom  30C    basis set group =>   1
Atom  31C    basis set group =>   1
Atom  32C    basis set group =>   1
Atom  33C    basis set group =>   1
Atom  34C    basis set group =>   1
Atom  35C    basis set group =>   1
Atom  36O    basis set group =>   2
Atom  37O    basis set group =>   2
Atom  38O    basis set group =>   2
Atom  39O    basis set group =>   2
Atom  40O    basis set group =>   2
Atom  41C    basis set group =>   1
Atom  42H    basis set group =>   3
Atom  43H    basis set group =>   3
Atom  44H    basis set group =>   3
Atom  45H    basis set group =>   3
Atom  46H    basis set group =>   3
Atom  47H    basis set group =>   3
Atom  48H    basis set group =>   3
Atom  49H    basis set group =>   3
Atom  50H    basis set group =>   3
Atom  51H    basis set group =>   3
Atom  52H    basis set group =>   3
Atom  53H    basis set group =>   3
Atom  54H    basis set group =>   3
Atom  55H    basis set group =>   3
Atom  56H    basis set group =>   3
Atom  57H    basis set group =>   3
Atom  58H    basis set group =>   3
Atom  59H    basis set group =>   3
Atom  60H    basis set group =>   3
Atom  61H    basis set group =>   3
Atom  62H    basis set group =>   3
Atom  63H    basis set group =>   3
Atom  64H    basis set group =>   3
Atom  65H    basis set group =>   3
Atom  66H    basis set group =>   3
Atom  67H    basis set group =>   3
Atom  68H    basis set group =>   3
Atom  69H    basis set group =>   3
Atom  70H    basis set group =>   3
Atom  71H    basis set group =>   3
Atom  72H    basis set group =>   3
Atom  73H    basis set group =>   3
Atom  74H    basis set group =>   3
Atom  75H    basis set group =>   3
Atom  76H    basis set group =>   3
Atom  77H    basis set group =>   3
Atom  78H    basis set group =>   3
Atom  79H    basis set group =>   3
Atom  80H    basis set group =>   3
Atom  81H    basis set group =>   3
---------------------------------
AUXILIARY/J BASIS SET INFORMATION
---------------------------------
There are 3 groups of distinct atoms

 Group   1 Type C   : 12s5p4d2f1g contracted to 6s4p3d1f1g pattern {711111/2111/211/2/1}
 Group   2 Type O   : 12s5p4d2f1g contracted to 6s4p3d1f1g pattern {711111/2111/211/2/1}
 Group   3 Type H   : 5s2p1d contracted to 3s1p1d pattern {311/2/1}

Atom   0C    basis set group =>   1
Atom   1C    basis set group =>   1
Atom   2C    basis set group =>   1
Atom   3C    basis set group =>   1
Atom   4C    basis set group =>   1
Atom   5C    basis set group =>   1
Atom   6C    basis set group =>   1
Atom   7C    basis set group =>   1
Atom   8C    basis set group =>   1
Atom   9C    basis set group =>   1
Atom  10C    basis set group =>   1
Atom  11C    basis set group =>   1
Atom  12C    basis set group =>   1
Atom  13C    basis set group =>   1
Atom  14C    basis set group =>   1
Atom  15C    basis set group =>   1
Atom  16C    basis set group =>   1
Atom  17C    basis set group =>   1
Atom  18O    basis set group =>   2
Atom  19O    basis set group =>   2
Atom  20O    basis set group =>   2
Atom  21O    basis set group =>   2
Atom  22O    basis set group =>   2
Atom  23C    basis set group =>   1
Atom  24C    basis set group =>   1
Atom  25C    basis set group =>   1
Atom  26C    basis set group =>   1
Atom  27O    basis set group =>   2
Atom  28C    basis set group =>   1
Atom  29C    basis set group =>   1
Atom  30C    basis set group =>   1
Atom  31C    basis set group =>   1
Atom  32C    basis set group =>   1
Atom  33C    basis set group =>   1
Atom  34C    basis set group =>   1
Atom  35C    basis set group =>   1
Atom  36O    basis set group =>   2
Atom  37O    basis set group =>   2
Atom  38O    basis set group =>   2
Atom  39O    basis set group =>   2
Atom  40O    basis set group =>   2
Atom  41C    basis set group =>   1
Atom  42H    basis set group =>   3
Atom  43H    basis set group =>   3
Atom  44H    basis set group =>   3
Atom  45H    basis set group =>   3
Atom  46H    basis set group =>   3
Atom  47H    basis set group =>   3
Atom  48H    basis set group =>   3
Atom  49H    basis set group =>   3
Atom  50H    basis set group =>   3
Atom  51H    basis set group =>   3
Atom  52H    basis set group =>   3
Atom  53H    basis set group =>   3
Atom  54H    basis set group =>   3
Atom  55H    basis set group =>   3
Atom  56H    basis set group =>   3
Atom  57H    basis set group =>   3
Atom  58H    basis set group =>   3
Atom  59H    basis set group =>   3
Atom  60H    basis set group =>   3
Atom  61H    basis set group =>   3
Atom  62H    basis set group =>   3
Atom  63H    basis set group =>   3
Atom  64H    basis set group =>   3
Atom  65H    basis set group =>   3
Atom  66H    basis set group =>   3
Atom  67H    basis set group =>   3
Atom  68H    basis set group =>   3
Atom  69H    basis set group =>   3
Atom  70H    basis set group =>   3
Atom  71H    basis set group =>   3
Atom  72H    basis set group =>   3
Atom  73H    basis set group =>   3
Atom  74H    basis set group =>   3
Atom  75H    basis set group =>   3
Atom  76H    basis set group =>   3
Atom  77H    basis set group =>   3
Atom  78H    basis set group =>   3
Atom  79H    basis set group =>   3
Atom  80H    basis set group =>   3
Atom  81H    basis set group =>   3
--------------------------------------------------------------------------
WARNING: There was an error initializing an OpenFabrics device.

  Local host:   c03b01n04
  Local device: mlx5_0
--------------------------------------------------------------------------
[c03b01n04:917079] 63 more processes have sent help message help-mpi-btl-openib.txt / error in device init
[c03b01n04:917079] Set MCA parameter "orte_base_help_aggregate" to 0 to see all help / error messages


           ************************************************************
           *        Program running with 64 parallel MPI-processes    *
           *              working on a common directory               *
           ************************************************************
------------------------------------------------------------------------------
                             ORCA STARTUP CALCULATIONS
                           -- RI-GTO INTEGRALS CHOSEN --
------------------------------------------------------------------------------
------------------------------------------------------------------------------
                   ___                                                        
                  /   \      - P O W E R E D   B Y -                         
                 /     \                                                     
                 |  |  |   _    _      __       _____    __    __             
                 |  |  |  | |  | |    /  \     |  _  \  |  |  /  |          
                  \  \/   | |  | |   /    \    | | | |  |  | /  /          
                 / \  \   | |__| |  /  /\  \   | |_| |  |  |/  /          
                |  |  |   |  __  | /  /__\  \  |    /   |      \           
                |  |  |   | |  | | |   __   |  |    \   |  |\   \          
                \     /   | |  | | |  |  |  |  | |\  \  |  | \   \       
                 \___/    |_|  |_| |__|  |__|  |_| \__\ |__|  \__/        
                                                                              
                      - O R C A' S   B I G   F R I E N D -                    
                                      &                                       
                       - I N T E G R A L  F E E D E R -                       
                                                                              
 v1 FN, 2020, v2 2021, v3 2022-2024                                           
------------------------------------------------------------------------------


----------------------
SHARK INTEGRAL PACKAGE
----------------------

Number of atoms                             ...     82
Number of basis functions                   ...   1542
Number of shells                            ...    622
Maximum angular momentum                    ...      3
Integral batch strategy                     ... SHARK/LIBINT Hybrid
RI-J (if used) integral strategy            ... SPLIT-RIJ (Revised 2003 algorithm where possible)
Printlevel                                  ...      1
Contraction scheme used                     ... SEGMENTED contraction
Prescreening option                         ... SCHWARTZ
   Thresh                                   ... 2.500e-11
   Tcut                                     ... 2.500e-12
   Tpresel                                  ... 2.500e-12 
Coulomb Range Separation                    ... NOT USED
Exchange Range Separation                   ... NOT USED
Multipole approximations                    ... NOT USED
Finite Nucleus Model                        ... NOT USED
CABS basis                                  ... NOT available
Auxiliary Coulomb fitting basis             ... AVAILABLE
   # of basis functions in Aux-J            ...   2498
   # of shells in Aux-J                     ...    830
   Maximum angular momentum in Aux-J        ...      4
Auxiliary J/K fitting basis                 ... NOT available
Auxiliary Correlation fitting basis         ... NOT available
Auxiliary 'external' fitting basis          ... NOT available

Checking pre-screening integrals            ... done (  0.1 sec) Dimension = 622
   => SHARK Basis and OBASIS are compatible. Storing Pre-screening
Shell pair information
Shell pair cut-off parameter TPreSel        ...   2.5e-12
Total number of shell pairs                 ...    193753
Shell pairs after pre-screening             ...    116979
Total number of primitive shell pairs       ...    584784
Primitive shell pairs kept                  ...    220797
          la=0 lb=0:  32531 shell pairs
          la=1 lb=0:  34893 shell pairs
          la=1 lb=1:   9460 shell pairs
          la=2 lb=0:  15867 shell pairs
          la=2 lb=1:   8729 shell pairs
          la=2 lb=2:   2004 shell pairs
          la=3 lb=0:   7237 shell pairs
          la=3 lb=1:   4050 shell pairs
          la=3 lb=2:   1781 shell pairs
          la=3 lb=3:    427 shell pairs

Checking whether 4 symmetric matrices of dimension 1542 fit in memory
:Max Core in MB      =   6000.00
 MB in use           =    140.22
 MB left             =   5859.78
 MB needed           =     36.31
 Data fit in memory  = YES
Calculating RI/J V-Matrix + Cholesky decomp.... done (  4.7 sec)
Calculating Nuclear repulsion               ... done (  0.0 sec) ENN=   5789.409971903350 Eh

Diagonalization of the overlap matrix:
Smallest eigenvalue                        ... 3.271e-06
Time for diagonalization                   ...   23.635 sec
Threshold for overlap eigenvalues          ... 1.000e-07
Number of eigenvalues below threshold      ... 0
Time for construction of square roots      ...    1.832 sec
Total time needed                          ...   25.711 sec

-------------------
DFT GRID GENERATION
-------------------

General Integration Accuracy     IntAcc      ... 4.388
Radial Grid Type                 RadialGrid  ... OptM3 with GC (2021)
Angular Grid (max. ang.)         AngularGrid ... 4 (Lebedev-302)
Angular grid pruning method      GridPruning ... 4 (adaptive)
Weight generation scheme         WeightScheme... mBecke (2022)
Basis function cutoff            BFCut       ... 1.0000e-11
Integration weight cutoff        WCut        ... 1.0000e-14
Partially contracted basis set               ... off
Rotationally invariant grid construction     ... off
Angular grids for H and He will be reduced by one unit

Total number of grid points                  ...   373357
Total number of batches                      ...     5880
Average number of points per batch           ...       63
Average number of grid points per atom       ...     4553

--------------------
COSX GRID GENERATION
--------------------

GRIDX 1
-------
General Integration Accuracy     IntAcc      ... 3.816
Radial Grid Type                 RadialGrid  ... OptM3 with GC (2021)
Angular Grid (max. ang.)         AngularGrid ... 1 (Lebedev-50)
Angular grid pruning method      GridPruning ... 4 (adaptive)
Weight generation scheme         WeightScheme... mBecke (2022)
Basis function cutoff            BFCut       ... 1.0000e-11
Integration weight cutoff        WCut        ... 1.0000e-14
Partially contracted basis set               ... on
Rotationally invariant grid construction     ... off
Angular grids for H and He will be reduced by one unit

Total number of grid points                  ...    47204
Total number of batches                      ...      413
Average number of points per batch           ...      114
Average number of grid points per atom       ...      576
UseSFitting                                  ... on

GRIDX 2
-------
General Integration Accuracy     IntAcc      ... 4.020
Radial Grid Type                 RadialGrid  ... OptM3 with GC (2021)
Angular Grid (max. ang.)         AngularGrid ... 2 (Lebedev-110)
Angular grid pruning method      GridPruning ... 4 (adaptive)
Weight generation scheme         WeightScheme... mBecke (2022)
Basis function cutoff            BFCut       ... 1.0000e-11
Integration weight cutoff        WCut        ... 1.0000e-14
Partially contracted basis set               ... on
Rotationally invariant grid construction     ... off
Angular grids for H and He will be reduced by one unit

Total number of grid points                  ...   100107
Total number of batches                      ...      827
Average number of points per batch           ...      121
Average number of grid points per atom       ...     1221
UseSFitting                                  ... on

GRIDX 3
-------
General Integration Accuracy     IntAcc      ... 4.338
Radial Grid Type                 RadialGrid  ... OptM3 with GC (2021)
[...]
freq.     514.22  E(vib)   ...       0.13 
freq.     534.52  E(vib)   ...       0.13 
freq.     540.31  E(vib)   ...       0.12 
freq.     548.39  E(vib)   ...       0.12 
freq.     556.39  E(vib)   ...       0.12 
freq.     570.40  E(vib)   ...       0.11 
freq.     571.65  E(vib)   ...       0.11 
freq.     580.90  E(vib)   ...       0.11 
freq.     589.11  E(vib)   ...       0.10 
freq.     608.70  E(vib)   ...       0.10 
freq.     615.14  E(vib)   ...       0.10 
freq.     628.03  E(vib)   ...       0.09 
freq.     642.84  E(vib)   ...       0.09 
freq.     650.75  E(vib)   ...       0.08 
freq.     657.48  E(vib)   ...       0.08 
freq.     675.36  E(vib)   ...       0.08 
freq.     685.31  E(vib)   ...       0.07 
freq.     724.05  E(vib)   ...       0.06 
freq.     732.13  E(vib)   ...       0.06 
freq.     743.73  E(vib)   ...       0.06 
freq.     744.66  E(vib)   ...       0.06 
freq.     775.50  E(vib)   ...       0.05 
freq.     784.41  E(vib)   ...       0.05 
freq.     785.64  E(vib)   ...       0.05 
freq.     809.28  E(vib)   ...       0.05 
freq.     812.54  E(vib)   ...       0.05 
freq.     831.98  E(vib)   ...       0.04 
freq.     840.50  E(vib)   ...       0.04 
freq.     849.79  E(vib)   ...       0.04 
freq.     854.16  E(vib)   ...       0.04 
freq.     860.74  E(vib)   ...       0.04 
freq.     863.06  E(vib)   ...       0.04 
freq.     871.57  E(vib)   ...       0.04 
freq.     875.08  E(vib)   ...       0.04 
freq.     893.52  E(vib)   ...       0.03 
freq.     914.24  E(vib)   ...       0.03 
freq.     918.82  E(vib)   ...       0.03 
freq.     927.89  E(vib)   ...       0.03 
freq.     943.25  E(vib)   ...       0.03 
freq.     951.06  E(vib)   ...       0.03 
freq.     965.55  E(vib)   ...       0.03 
freq.     966.72  E(vib)   ...       0.03 
freq.     969.00  E(vib)   ...       0.03 
freq.     971.04  E(vib)   ...       0.03 
freq.     983.29  E(vib)   ...       0.02 
freq.    1000.83  E(vib)   ...       0.02 
freq.    1027.43  E(vib)   ...       0.02 
freq.    1035.89  E(vib)   ...       0.02 
freq.    1045.28  E(vib)   ...       0.02 
freq.    1047.86  E(vib)   ...       0.02 
freq.    1055.03  E(vib)   ...       0.02 
freq.    1057.82  E(vib)   ...       0.02 
freq.    1059.76  E(vib)   ...       0.02 
freq.    1087.07  E(vib)   ...       0.02 
freq.    1093.30  E(vib)   ...       0.02 
freq.    1095.82  E(vib)   ...       0.02 
freq.    1119.35  E(vib)   ...       0.01 
freq.    1136.50  E(vib)   ...       0.01 
freq.    1140.94  E(vib)   ...       0.01 
freq.    1144.60  E(vib)   ...       0.01 
freq.    1144.99  E(vib)   ...       0.01 
freq.    1170.45  E(vib)   ...       0.01 
freq.    1171.23  E(vib)   ...       0.01 
freq.    1171.68  E(vib)   ...       0.01 
freq.    1173.19  E(vib)   ...       0.01 
freq.    1173.24  E(vib)   ...       0.01 
freq.    1173.80  E(vib)   ...       0.01 
freq.    1178.58  E(vib)   ...       0.01 
freq.    1179.39  E(vib)   ...       0.01 
freq.    1196.11  E(vib)   ...       0.01 
freq.    1202.61  E(vib)   ...       0.01 
freq.    1204.58  E(vib)   ...       0.01 
freq.    1208.04  E(vib)   ...       0.01 
freq.    1213.25  E(vib)   ...       0.01 
freq.    1221.56  E(vib)   ...       0.01 
freq.    1224.89  E(vib)   ...       0.01 
freq.    1229.80  E(vib)   ...       0.01 
freq.    1242.91  E(vib)   ...       0.01 
freq.    1245.89  E(vib)   ...       0.01 
freq.    1249.24  E(vib)   ...       0.01 
freq.    1251.77  E(vib)   ...       0.01 
freq.    1261.96  E(vib)   ...       0.01 
freq.    1272.99  E(vib)   ...       0.01 
freq.    1278.90  E(vib)   ...       0.01 
freq.    1288.46  E(vib)   ...       0.01 
freq.    1290.24  E(vib)   ...       0.01 
freq.    1306.81  E(vib)   ...       0.01 
freq.    1308.99  E(vib)   ...       0.01 
freq.    1311.12  E(vib)   ...       0.01 
freq.    1320.72  E(vib)   ...       0.01 
freq.    1331.15  E(vib)   ...       0.01 
freq.    1343.43  E(vib)   ...       0.01 
freq.    1345.42  E(vib)   ...       0.01 
freq.    1353.85  E(vib)   ...       0.01 
freq.    1357.68  E(vib)   ...       0.01 
freq.    1366.73  E(vib)   ...       0.01 
freq.    1371.02  E(vib)   ...       0.01 
freq.    1378.54  E(vib)   ...       0.01 
freq.    1390.19  E(vib)   ...       0.00 
freq.    1392.34  E(vib)   ...       0.00 
freq.    1397.61  E(vib)   ...       0.00 
freq.    1402.90  E(vib)   ...       0.00 
freq.    1403.57  E(vib)   ...       0.00 
freq.    1408.09  E(vib)   ...       0.00 
freq.    1424.59  E(vib)   ...       0.00 
freq.    1429.00  E(vib)   ...       0.00 
freq.    1443.05  E(vib)   ...       0.00 
freq.    1453.05  E(vib)   ...       0.00 
freq.    1453.91  E(vib)   ...       0.00 
freq.    1456.50  E(vib)   ...       0.00 
freq.    1459.62  E(vib)   ...       0.00 
freq.    1477.42  E(vib)   ...       0.00 
freq.    1478.09  E(vib)   ...       0.00 
freq.    1479.26  E(vib)   ...       0.00 
freq.    1480.18  E(vib)   ...       0.00 
freq.    1481.29  E(vib)   ...       0.00 
freq.    1482.08  E(vib)   ...       0.00 
freq.    1483.85  E(vib)   ...       0.00 
freq.    1485.24  E(vib)   ...       0.00 
freq.    1487.80  E(vib)   ...       0.00 
freq.    1489.86  E(vib)   ...       0.00 
freq.    1491.47  E(vib)   ...       0.00 
freq.    1491.58  E(vib)   ...       0.00 
freq.    1492.31  E(vib)   ...       0.00 
freq.    1494.40  E(vib)   ...       0.00 
freq.    1499.54  E(vib)   ...       0.00 
freq.    1502.66  E(vib)   ...       0.00 
freq.    1507.18  E(vib)   ...       0.00 
freq.    1535.79  E(vib)   ...       0.00 
freq.    1542.32  E(vib)   ...       0.00 
freq.    1546.99  E(vib)   ...       0.00 
freq.    1627.51  E(vib)   ...       0.00 
freq.    1637.62  E(vib)   ...       0.00 
freq.    1642.90  E(vib)   ...       0.00 
freq.    1647.72  E(vib)   ...       0.00 
freq.    1648.99  E(vib)   ...       0.00 
freq.    1653.04  E(vib)   ...       0.00 
freq.    2994.33  E(vib)   ...       0.00 
freq.    2994.69  E(vib)   ...       0.00 
freq.    3010.13  E(vib)   ...       0.00 
freq.    3020.06  E(vib)   ...       0.00 
freq.    3022.14  E(vib)   ...       0.00 
freq.    3022.37  E(vib)   ...       0.00 
freq.    3023.93  E(vib)   ...       0.00 
freq.    3026.40  E(vib)   ...       0.00 
freq.    3026.49  E(vib)   ...       0.00 
freq.    3028.62  E(vib)   ...       0.00 
freq.    3035.26  E(vib)   ...       0.00 
freq.    3037.75  E(vib)   ...       0.00 
freq.    3053.19  E(vib)   ...       0.00 
freq.    3070.97  E(vib)   ...       0.00 
freq.    3074.82  E(vib)   ...       0.00 
freq.    3077.14  E(vib)   ...       0.00 
freq.    3084.55  E(vib)   ...       0.00 
freq.    3085.54  E(vib)   ...       0.00 
freq.    3088.65  E(vib)   ...       0.00 
freq.    3090.26  E(vib)   ...       0.00 
freq.    3095.12  E(vib)   ...       0.00 
freq.    3102.43  E(vib)   ...       0.00 
freq.    3140.31  E(vib)   ...       0.00 
freq.    3143.20  E(vib)   ...       0.00 
freq.    3143.48  E(vib)   ...       0.00 
freq.    3163.18  E(vib)   ...       0.00 
freq.    3170.90  E(vib)   ...       0.00 
freq.    3188.28  E(vib)   ...       0.00 
freq.    3188.70  E(vib)   ...       0.00 
freq.    3206.39  E(vib)   ...       0.00 
freq.    3209.42  E(vib)   ...       0.00 
freq.    3211.19  E(vib)   ...       0.00 
freq.    3212.92  E(vib)   ...       0.00 
freq.    3214.36  E(vib)   ...       0.00 
freq.    3548.33  E(vib)   ...       0.00 
freq.    3637.83  E(vib)   ...       0.00 
freq.    3639.34  E(vib)   ...       0.00 
freq.    3707.03  E(vib)   ...       0.00 
freq.    3724.50  E(vib)   ...       0.00 
freq.    3775.13  E(vib)   ...       0.00 

------------
INNER ENERGY
------------

The inner energy is: U= E(el) + E(ZPE) + E(vib) + E(rot) + E(trans)
    E(el)   - is the total energy from the electronic structure calculation
              = E(kin-el) + E(nuc-el) + E(el-el) + E(nuc-nuc)
    E(ZPE)  - the the zero temperature vibrational energy from the frequency calculation
    E(vib)  - the the finite temperature correction to E(ZPE) due to population
              of excited vibrational states
    E(rot)  - is the rotational thermal energy
    E(trans)- is the translational thermal energy

Summary of contributions to the inner energy U:
Electronic energy                ...  -2032.63916009 Eh
Zero point energy                ...      0.68015600 Eh     426.80 kcal/mol
Thermal vibrational correction   ...      0.03968721 Eh      24.90 kcal/mol
Thermal rotational correction    ...      0.00141627 Eh       0.89 kcal/mol
Thermal translational correction ...      0.00141627 Eh       0.89 kcal/mol
-----------------------------------------------------------------------
Total thermal energy                  -2031.91648434 Eh


Summary of corrections to the electronic energy:
(perhaps to be used in another calculation)
Total thermal correction                  0.04251975 Eh      26.68 kcal/mol
Non-thermal (ZPE) correction              0.68015600 Eh     426.80 kcal/mol
-----------------------------------------------------------------------
Total correction                          0.72267575 Eh     453.48 kcal/mol


--------
ENTHALPY
--------

The enthalpy is H = U + kB*T
                kB is Boltzmann's constant
Total thermal energy              ...  -2031.91648434 Eh 
Thermal Enthalpy correction       ...      0.00094421 Eh       0.59 kcal/mol
-----------------------------------------------------------------------
Total Enthalpy                    ...  -2031.91554014 Eh


Note: Only C1 symmetry has been detected, increase convergence thresholds 
      if your molecule has a higher symmetry. Symmetry factor of 1.0 is   
      used for the rotational entropy correction. 
 

Note: Rotational entropy computed according to Herzberg 
Infrared and Raman Spectra, Chapter V,1, Van Nostrand Reinhold, 1945 
Point Group:  C1, Symmetry Number:   1  
Rotational constants in cm-1:     0.004113     0.002215     0.001843 

Vibrational entropy computed according to the QRRHO of S. Grimme
Chem.Eur.J. 2012 18 9955 using a reference frequency of 100.0 cm-1


-------
ENTROPY
-------

The entropy contributions are T*S = T*(S(el)+S(vib)+S(rot)+S(trans))
     S(el)   - electronic entropy
     S(vib)  - vibrational entropy
     S(rot)  - rotational entropy
     S(trans)- translational entropy
The entropies will be listed as multiplied by the temperature to get
units of energy

Electronic entropy                ...      0.00000000 Eh      0.00 kcal/mol
Vibrational entropy               ...      0.07077215 Eh     44.41 kcal/mol
Rotational entropy                ...      0.01796223 Eh     11.27 kcal/mol
Translational entropy             ...      0.02138181 Eh     13.42 kcal/mol
-----------------------------------------------------------------------
Final entropy term                ...      0.11011619 Eh     69.10 kcal/mol

In case the symmetry of your molecule has not been determined correctly
or in case you have a reason to use a different symmetry number we print 
out the resulting rotational entropy values for sn=1,12:

 non-linear molecules -----------------------------------
|  sn= 1 | S(rot)=       0.01796223 Eh     11.27 kcal/mol|
|  sn= 2 | S(rot)=       0.01730777 Eh     10.86 kcal/mol|
|  sn= 3 | S(rot)=       0.01692494 Eh     10.62 kcal/mol|
|  sn= 4 | S(rot)=       0.01665331 Eh     10.45 kcal/mol|
|  sn= 5 | S(rot)=       0.01644263 Eh     10.32 kcal/mol|
|  sn= 6 | S(rot)=       0.01627048 Eh     10.21 kcal/mol|
|  sn= 7 | S(rot)=       0.01612493 Eh     10.12 kcal/mol|
|  sn= 8 | S(rot)=       0.01599886 Eh     10.04 kcal/mol|
|  sn= 9 | S(rot)=       0.01588765 Eh      9.97 kcal/mol|
|  sn=10 | S(rot)=       0.01578817 Eh      9.91 kcal/mol|
|  sn=11 | S(rot)=       0.01569818 Eh      9.85 kcal/mol|
|  sn=12 | S(rot)=       0.01561602 Eh      9.80 kcal/mol|
 linear molecules ---------------------------------------
|  Dinfh | S(rot)=       0.01127051 Eh      7.07 kcal/mol|
|  Cinfv | S(rot)=       0.01192496 Eh      7.48 kcal/mol|
 --------------------------------------------------------


-------------------
GIBBS FREE ENERGY
-------------------

The Gibbs free energy is G = H - T*S

Total enthalpy                    ...  -2031.91554014 Eh 
Total entropy correction          ...     -0.11011619 Eh    -69.10 kcal/mol
-----------------------------------------------------------------------
Final Gibbs free energy         ...  -2032.02565632 Eh

For completeness - the Gibbs free energy minus the electronic energy
G-E(el)                           ...      0.61350377 Eh    384.98 kcal/mol


Maximum memory used throughout the entire PROP-calculation: 1823.4 MB
--------------------------------------------------------------------------
WARNING: There was an error initializing an OpenFabrics device.

  Local host:   c03b01n04
  Local device: mlx5_0
--------------------------------------------------------------------------
[c03b01n04:979555] 63 more processes have sent help message help-mpi-btl-openib.txt / error in device init
[c03b01n04:979555] Set MCA parameter "orte_base_help_aggregate" to 0 to see all help / error messages

--------------------------------
SUGGESTED CITATIONS FOR THIS RUN
--------------------------------

Below you find a list of papers that are relevant to this ORCA run
We neither can nor want to force you to cite these papers, but we appreciate if you do
You receive ORCA, which is the product of decades of hard work by many enthusiastic individuals, for free
The only thing we kindly ask in return is that you cite our papers,
We deeply appreciate it, if you show your appreciation for ORCA by not just citing the generic ORCA reference.

Please note that relegating all ORCA citations to the supporting information does *not* help us.
SI sections are not indexed - citations you put there will not count into any citation statistics
But we need these citations in order to attract the funding resources that allow us to do what we are doing

Therefore, if you are a happy ORCA user, please consider citing a few of the papers listed below in the main body of your paper

In addition to the list printed below, the program has created the file opt-conf-2.bibtex that contains the list in bibtex format
You can import this file easily into all common literature databanks and citation aid programs


List of essential papers. We consider these as the minimum necessary citations

  1. Neese, F.
     Software update: the ORCA program system, version 6.0
     WIRES Comput. Molec. Sci. 2025 15(1), e70019
     doi.org/10.1002/wcms.7019

List of papers to cite with high priority. The work reported in these papers was absolutely
necessary for this run to complete.
Our perspective: the developers of density functionals and basis sets usually get cited in chemistry papers
Good! But without the algorithms to do something with them, the functionals or basis sets would not do anything.
Hence, in our opinion, the algorithm design and method developments papers are equally worthy of getting cited

  1. Neese, F.
     An improvement of the resolution of the identity approximation for the formation of the Coulomb matrix
     J. Comp. Chem. 2003 24(14), 1740-1747
     doi.org/10.1002/jcc.10318
  2. Neese, F.; Wennmohs, F.; Hansen, A.; Becker, U.
     Efficient, approximate and parallel Hartree-Fock and hybrid DFT calculations. A 'chain-of-spheres' algorithm for the Hartree-Fock exchange
     Chem. Phys. 2009 356(1-3), 98-109
     doi.org/10.1016/j.chemphys.2008.10.036
  3. Bykov, D.; Petrenko, T.; Izsak, R.; Kossmann, S.; Becker, U.; Valeev, E.; Neese, F.
     Efficient implementation of the analytic second derivatives of Hartree-Fock and hybrid DFT energies: a detailed analysis of different approximations
     Molec. Phys. 2015 113 , 1961-1977
     doi.org/10.1080/00268976.2015.1025114
  4. Caldeweyher, E.; Bannwarth, C.; Grimme, S.
     Extension of the D3 dispersion coefficient model
     J. Chem. Phys. 2017 147 , 034112
     doi.org/10.1063/1.4993215
  5. Caldeweyher, E.; Ehlert, S.; Hansen, A.; Neugebauer, H.; Spicher, S.; Bannwarth, C.; Grimme, S.
     A generally applicable atomic-charge dependent London dispersion correction
     J. Chem. Phys. 2019 150 , 154122
     doi.org/10.1063/1.5090222
  6. Garcia-Rates, M.; Neese, F.
     Efficient implementation of the analytical second derivatives of hartree-fock and hybrid DFT energies within the framework of the conductor-like polarizable continuum model
     J. Comput. Chem. 2019 40 , 1816-1828
     doi.org/10.1002/jcc.25833
  7. Caldeweyher, E.; Mewes, J.; Ehlert, S.; Grimme, S.
     Extension and evaluation of the D4 London-dispersion model for periodic systems
     Phys. Chem. Chem. Phys. 2020 22(16), 8499-8512
     doi.org/10.1039/D0CP00502A
  8. Garcia-Rates, M.; Neese, F.
     Effect of the Solute Cavity on the Solvation Energy and its Derivatives within the Framework of the Gaussian Charge Scheme
     J. Comput. Chem. 2020 41 , 922-939
     doi.org/10.1002/jcc.26139
  9. Helmich-Paris, B.; de Souza, B.; Neese, F.; Izsák, R.
     An improved chain of spheres for exchange algorithm
     J. Chem. Phys. 2021 155(10), 104109
     doi.org/10.1063/5.0058766
 10. Neese, F.
     The SHARK Integral Generation and Digestion System
     J. Comp. Chem. 2022 44(3), 381
     doi.org/10.1002/jcc.26942
 11. Wittmann, L.; Gordiy, I.; Friede, M.; Helmich-Paris, B.; Grimme, S.; Hansen, A.; Bursch, M.
     Extension of the D3 and D4 London Dispersion Corrections to the full Actinides Series
     Phys. Chem. Chem. Phys. 2024 26(32), 21379-21394
     doi.org/10.1039/D4CP01514B

List of suggested additional citations. These are papers that are important in the 'surrounding' of 
of this run, or papers that preceded the highly important papers. If you like your results we are grateful for a citation.

  1. Izsak, R.; Neese, F.
     An overlap fitted chain of spheres exchange method
     J. Chem. Phys. 2011 135 , 144105
     doi.org/10.1063/1.3646921
  2. Izsak, R.; Hansen, A.; Neese, F.
     The resolution of identity and chain of spheres approximations for the LPNO-CCSD singles Fock term
     Molec. Phys. 2012 110 , 2413-2417
     doi.org/10.1080/00268976.2012.687466
  3. Neese, F.
     The ORCA program system
     WIRES Comput. Molec. Sci. 2012 2(1), 73-78
     doi.org/10.1002/wcms.81
  4. Izsak, R.; Neese, F.; Klopper, W.
     Robust fitting techniques in the chain of spheres approximation to the Fock exchange: The role of the complementary space
     J. Chem. Phys. 2013 139 , 
     doi.org/10.1063/1.4819264
  5. Neese, F.
     Software update: the ORCA program system, version 4.0
     WIRES Comput. Molec. Sci. 2018 8(1), 1-6
     doi.org/10.1002/wcms.1327
  6. Neese, F.; Wennmohs, F.; Becker, U.; Riplinger, C.
     The ORCA quantum chemistry program package
     J. Chem. Phys. 2020 152(22), 224108
     doi.org/10.1063/5.0004608
  7. Neese, F.
     Software update: The ORCA program system—Version 5.0
     WIRES Comput. Molec. Sci. 2022 12(1), e1606
     doi.org/10.1002/wcms.1606

List of optional additional citations

  1. Neese, F.
     Approximate second-order SCF convergence for spin unrestricted wavefunctions
     Chem. Phys. Lett. 2000 325(1-3), 93-98
     doi.org/10.1016/s0009-2614(00)00662-x

Timings for individual modules:

Sum of individual times          ...    16029.320 sec (= 267.155 min)
Startup calculation              ...     1360.661 sec (=  22.678 min)   8.5 %
SCF iterations                   ...     8122.715 sec (= 135.379 min)  50.7 %
Property integrals               ...     1552.190 sec (=  25.870 min)   9.7 %
SCF Response                     ...     3331.648 sec (=  55.527 min)  20.8 %
Property calculations            ...      764.378 sec (=  12.740 min)   4.8 %
SCF Gradient evaluation          ...      885.867 sec (=  14.764 min)   5.5 %
Geometry relaxation              ...       11.860 sec (=   0.198 min)   0.1 %
                             ****ORCA TERMINATED NORMALLY****
TOTAL RUN TIME: 0 days 4 hours 32 minutes 44 seconds 663 msec
