
                                 *****************
                                 * O   R   C   A *
                                 *****************

                                            #,                                       
                                            ###                                      
                                            ####                                     
                                            #####                                    
                                            ######                                   
                                           ########,                                 
                                     ,,################,,,,,                         
                               ,,#################################,,                 
                          ,,##########################################,,             
                       ,#########################################, ''#####,          
                    ,#############################################,,   '####,        
                  ,##################################################,,,,####,       
                ,###########''''           ''''###############################       
              ,#####''   ,,,,##########,,,,          '''####'''          '####       
            ,##' ,,,,###########################,,,                        '##       
           ' ,,###''''                  '''############,,,                           
         ,,##''                                '''############,,,,        ,,,,,,###''
      ,#''                                            '''#######################'''  
     '                                                          ''''####''''         
             ,#######,   #######,   ,#######,      ##                                
            ,#'     '#,  ##    ##  ,#'     '#,    #''#        ,####,    ,#,          
            ##       ##  ##   ,#'  ##            #'  '#       #'       ,# #          
            ##       ##  #######   ##           ,######,      #####,      #          
            '#,     ,#'  ##    ##  '#,     ,#' ,#      #,     #,   #      #          
             '#######'   ##     ##  '#######'  #'      '#     '####' #    #          



                #########################################################
                #                        -***-                          #
                #          Department of theory and spectroscopy        #
                #                                                       #
                #                      Frank Neese                      #
                #                                                       #
                #     Directorship, Architecture, Infrastructure        #
                #                    SHARK, DRIVERS                     #
                #        Core code/Algorithms in most modules           #
                #                                                       #
                #        Max Planck Institute fuer Kohlenforschung      #
                #                Kaiser Wilhelm Platz 1                 #
                #                 D-45470 Muelheim/Ruhr                 #
                #                      Germany                          #
                #                                                       #
                #                  All rights reserved                  #
                #                        -***-                          #
                #########################################################


                         Program Version 6.1.0-f.0  -   RELEASE   -


 With contributions from (in alphabetic order):
[Max-Planck-Institut fuer Kohlenforschung]                               
  Daniel Aravena         : Magnetic Suceptibility                        
  Michael Atanasov       : Ab Initio Ligand Field Theory (pilot matlab implementation)
  Alexander A. Auer      : GIAO ZORA, VPT2 properties, NMR spectrum      
  Ute Becker             : All parallelization in ORCA, NUMFREQ, NUMCALC 
  Giovanni Bistoni       : ED, misc. LED, open-shell LED, HFLD           
  Dmytro Bykov           : pre 5.0 version of the SCF Hessian            
  Marcos Casanova-Páez   : Triplet and SCS-CIS(D). UHF-(DLPNO)-IP/EA/STEOM-CCSD. UHF-CVS-IP/STEOM-CCSD   
  Vijay G. Chilkuri      : MRCI spin determinant printing, contributions to CSF-ICE 
  Pauline Colinet        : FMM embedding                                 
  Dipayan Datta          : RHF DLPNO-CCSD density                        
  Achintya Kumar Dutta   : EOM-CC, STEOM-CC                              
  Nicolas Foglia         : Exact transition moments, OPA infrastructure, MCD improvements    
  Dmitry Ganyushin       : Spin-Orbit,Spin-Spin,Magnetic field MRCI      
  Miquel Garcia-Rates    : C-PCM and meta-GGA Hessian, CCSD/C-PCM, Gaussian charge scheme 
  Tiago L. C. Gouveia    : GS-ROHF, GS-ROCIS                             
  Yang Guo               : DLPNO-NEVPT2, F12-NEVPT2, CIM, IAO-localization        
  Andreas Hansen         : Spin unrestricted coupled pair/coupled cluster methods 
  Ingolf Harden          : AUTO-CI MPn and infrastructure                
  Benjamin Helmich-Paris : MC-RPA, TRAH-(SCF,CASSCF), AVAS, COSX integrals, SCF dyn. polar., MC-PDFT, srDFT 
  Lee Huntington         : MR-EOM, pCC                                   
  Robert Izsak           : Overlap fitted RIJCOSX, COSX-SCS-MP3, EOM     
  Riya Kayal             : Wick's Theorem for AUTO-CI, AUTO-CI UHF-CCSDT 
  Emily Kempfer          : AUTO-CI RHF CISDT and CCSDT, approximate NEVPT4
  Christian Kollmar      : KDIIS, OOCD, Brueckner-CCSD(T), CCSD density, CASPT2, CASPT2-K, improved NEVPT2 
  Axel Koslowski         : Symmetry handling                             
  Simone Kossmann        : meta-GGA functionals, TD-DFT gradient, OOMP2, (MP2 Hessian; deprecated post 5.0) 
  Lucas Lang             : DCDCAS, Hyperfine gauge corrections, ICE-SOC+SSC
  Marvin Lechner         : AUTO-CI (C++ implementation), FIC-MRCC        
  Spencer Leger          : CASSCF response                               
  Dagmar Lenk            : GEPOL surface, SMD, ORCA-2-JSON               
  Dimitrios Liakos       : Extrapolation schemes; Compound Job, Property file
  Dimitrios Manganas     : Further ROCIS development; embedding schemes. LFT, Crystal Embedding 
  Dimitrios Pantazis     : SARC Basis sets                               
  Anastasios Papadopoulos: AUTO-CI, single reference methods and gradients 
  Taras Petrenko         : pre 6.0 DFT Hessian and TD-DFT gradient,  ECA, NRVS 
  Petra Pikulova         : Analytic Raman intensities                    
  Peter Pinski           : DLPNO-MP2, DLPNO-MP2 Gradient                 
  Shashank Vittal Rao    : ES-AILFT, MagRelax                            
  Christoph Reimann      : Effective Core Potentials                     
  Marius Retegan         : Local ZFS, SOC                                
  Christoph Riplinger    : Optimizer, TS searches, QM/MM, DLPNO-CCSD(T), (RO)-DLPNO pert. Triples 
  Michael Roemelt        : Original ROCIS implementation, recursive CI coupling coefficients
  Masaaki Saitow         : Open-shell DLPNO-CCSD energy and density      
  Barbara Sandhoefer     : DKH picture change effects                    
  Yorick L. A. Schmerwitz: GMF and freeze-and-release deltaSCF, NEB S-IDPP initial path                    
  Kantharuban Sivalingam : CASSCF convergence/infrastructure, NEVPT2, NEVPT3, NEVPT4(SD), FIC-MRCI and CEPA variants
  Bernardo de Souza      : ESD, SOC TD-DFT                               
  Georgi L. Stoychev     : AutoAux, RI-MP2 NMR, DLPNO-MP2 response, X2C  
  Van Anh Tran           : RI-MP2 g-tensors                              
  Willem Van den Heuvel  : Paramagnetic NMR                              
  Zikuan Wang            : NOTCH, Electric field optimization            
  Frank Wennmohs         : Technical directorship and infrastructure     
  Hang Xu                : AUTO-CI-Response properties                   
                                                                         
[FACCTs GmbH]                                                            
  Markus Bursch, Nicolas Foglia, Miquel Garcia-Rates, Ingolf Harden, Hagen Neugebauer, Anastasios Papadopoulos, 
  Christoph Riplinger, Bernardo de Souza, Georgi L. Stoychev                                                    
                                                                 
  APM, various basis sets, CI-OPT, improved COSX, DLPNO-Multilevel,           
  DOCKER, DRACO, updates on ESD, Fragmentator, GOAT, IRC, LR-CPCM, L-BFGS, MBIS, meta-GGA TD-DFT gradient, ML-optimized integration grids, 
  MM, NACMEs, nearIR, NEB, NEB-TS, NL-DFT gradient (VV10), 2- and 3-layer-ONIOM, interface openCOSMO-RS, QMMM,   
  Crystal-QMMM, RESP, rigid body optimization, SF, symmetry and pop. for TD-DFT, various functionals, SOLVATOR                                   
                                                                         
[Other institutions]                                                     
  V. Asgeirsson          : NEB                                           
  Christoph Bannwarth    : sTDA-DFT, sTD-DFT, PBEh-3c, B97-3c, D3        
  Giovanni Bistoni       : ETS/NOCV, ADLD/ADEX, COVALED                  
  Martin Brehm           : Molecular dynamics                            
  Ronald Cardenas        : ETS/NOCV                                      
  Martina Colucci        : COVALED                                       
  Sebastian Ehlert       : rSCAN, r2SCAN, r2SCAN-3c, D4, dhf basis sets  
  Marvin Friede          : D4 for Fr, Ra, Ac-Lr                          
  Lars Goerigk           : TD-DFT with DH, B97 family of functionals     
  Stefan Grimme          : VdW corrections, initial TS optimization, DFT functionals, gCP, sTDA/sTD-DF 
  Waldemar Hujo          : DFT-NL                                        
  H. Jonsson             : NEB                                           
  Holger Kruse           : gCP                                           
  Marcel Mueller         : wB97X-3c, vDZP basis set                      
  Hagen Neugebauer       : wr2SCAN, Native XTB                           
  Gianluca Regni         : ADLD/ADEX                                     
  Tobias Risthaus        : pre 6.0 range-separated hybrid DFT and stability analysis
  Lukas Wittmann         : regularized MP2, r2SCAN double-hybrids, wr2SCAN        
                                                                         
We gratefully acknowledge several colleagues who have allowed us to      
interface, adapt or use parts of their codes:                            
  Ed Valeev, F. Pavosevic, A. Kumar             : LibInt (2-el integral package), F12 methods 
  Garnet Chan, S. Sharma, J. Yang, R. Olivares  : DMRG                   
  Ulf Ekstrom                                   : XCFun DFT Library      
  Mihaly Kallay                                 : mrcc  (arbitrary order and MRCC methods)
  Frank Weinhold                                : gennbo (NPA and NBO analysis)           
  Simon Mueller                                 : openCOSMO-RS                            
  Christopher J. Cramer and Donald G. Truhlar   : smd solvation model                     
  S Lehtola, MJT Oliveira, MAL Marques          : LibXC Library                           
  Liviu Ungur et al                             : ANISO software                          


 Your calculation uses the libint2 library for the computation of 2-el integrals
 For citations please refer to: http://libint.valeyev.net

 Your ORCA version has been built with support for libXC version: 7.0.0
 For citations please refer to: https://libxc.gitlab.io

 This ORCA versions uses:
   CBLAS   interface :  Fast vector & matrix operations
   LAPACKE interface :  Fast linear algebra routines
   SCALAPACK package :  Parallel linear algebra routines
   Shared memory     :  Shared parallel matrices
   BLAS/LAPACK       :  OpenBLAS 0.3.29  USE64BITINT DYNAMIC_ARCH NO_AFFINITY Cooperlake SINGLE_THREADED
        Core in use  :  Cooperlake
   Copyright (c) 2011-2014, The OpenBLAS Project


  ***********************************
  * Starting time: Sat Feb 28 14:56:59 2026
  * Host name:     c03b01n01
  * Process ID:    3737137
  * Working dir.:  /lustre1/jiangy/jiangy_liuxy/NMR/B9D7C2-SRSS
  ***********************************

NOTE: MaxCore=6000 MB was set to SCF,MP2,MDCI,CIPSI,MRCI,RASCI and CIS
      => If you want to overwrite this, your respective input block should be placed after the MaxCore statement


***************************************
The coordinates will be read from file: conf-10.xyz
***************************************


Your calculation utilizes the atom-pairwise dispersion correction
based on EEQ partial charges (D4)


Warning: RI is on but no J-basis has been assigned. Assigning Def2/J (nothing to worry about!)
================================================================================

----- Orbital basis set information -----
Your calculation utilizes the basis: def2-TZVP
   F. Weigend and R. Ahlrichs, Phys. Chem. Chem. Phys. 7, 3297 (2005).

----- AuxJ basis set information -----
Your calculation utilizes the auxiliary basis: def2/J
   H-Rn: F. Weigend, Phys. Chem. Chem. Phys. 8, 1057 (2006).
   Fr-Lr: K. Eichkorn, F. Weigend, O. Treutler, R. Ahlrichs; Theor. Chem. Acc. 97, 119 (1997).

================================================================================
                                        WARNINGS
                       Please study these warnings very carefully!
================================================================================


WARNING: Geometry Optimization
  ===> : Switching off AutoStart
         For restart on a previous wavefunction, please use MOREAD

================================================================================
                                       INPUT FILE
================================================================================
NAME = opt-conf-10.inp
|  1> ! B3LYP OPT FREQ DEF2-TZVP D4 CPCM(Methanol) 
|  2> ! TightOpt
|  3> %pal nprocs 64 end
|  4> %maxcore 6000
|  5> 
|  6> %cpcm
|  7> end
|  8> 
|  9> %freq
| 10>    Temp 298.15
| 11> end
| 12> 
| 13> * xyzfile 0 1 conf-10.xyz
| 14> 
| 15> 
| 16>                          ****END OF INPUT****
================================================================================

                       *****************************
                       * Geometry Optimization Run *
                       *****************************

Geometry optimization settings:
Update method            Update   .... BFGS
Choice of coordinates    CoordSys .... (2022) Redundant Internals
Initial Hessian          InHess   .... Almloef's Model
Max. no of cycles        MaxIter  .... 246

Convergence Tolerances:
Energy Change            TolE     ....  1.0000e-06 Eh
Max. Gradient            TolMAXG  ....  1.0000e-04 Eh/bohr
RMS Gradient             TolRMSG  ....  3.0000e-05 Eh/bohr
Max. Displacement        TolMAXD  ....  1.0000e-03 bohr
RMS Displacement         TolRMSD  ....  6.0000e-04 bohr
Strict Convergence                .... False

------------------------------------------------------------------------------
                        ORCA OPTIMIZATION COORDINATE SETUP
------------------------------------------------------------------------------

The optimization will be done in redundant internal coordinates (2022)
Making redundant internal coordinates   ...  (2022 redundants) done
Evaluating the initial hessian          ...  (Almloef) done
Evaluating the coordinates              ...  done
Calculating the B-matrix                .... done
Calculating the G-matrix                .... done
The number of degrees of freedom        ....  406

    -----------------------------------------------------------------
                    Redundant Internal Coordinates


    -----------------------------------------------------------------
         Definition                    Initial Value    Approx d2E/dq
    -----------------------------------------------------------------
      1. B(C   1,C   0)                  1.4019         0.597972   
      2. B(C   2,C   1)                  1.4001         0.602043   
      3. B(C   3,C   2)                  1.3885         0.628250   
      4. B(C   4,C   3)                  1.3861         0.633857   
      5. B(C   5,C   4)                  1.3860         0.634006   
      6. B(C   5,C   0)                  1.3867         0.632476   
      7. B(C   6,C   4)                  1.5038         0.411370   
      8. B(C   7,C   6)                  1.5369         0.364161   
      9. B(C   8,C   7)                  1.5411         0.358693   
     10. B(C   9,C   8)                  1.5368         0.364416   
     11. B(C  10,C   9)                  1.5027         0.412918   
     12. B(C  11,C  10)                  1.3937         0.616468   
     13. B(C  12,C  11)                  1.3811         0.645656   
     14. B(C  13,C  12)                  1.4051         0.591040   
     15. B(C  14,C  13)                  1.3822         0.643026   
     16. B(C  15,C  10)                  1.3854         0.635447   
     17. B(C  15,C  14)                  1.3866         0.632631   
     18. B(C  16,C   7)                  1.5361         0.365253   
     19. B(C  17,C   8)                  1.5407         0.359133   
     20. B(O  18,C   2)                  1.3652         0.613084   
     21. B(O  19,C   0)                  1.3673         0.608155   
     22. B(O  20,C   1)                  1.3764         0.588237   
     23. B(O  21,C  13)                  1.3620         0.620127   
     24. B(O  22,C  12)                  1.3798         0.581057   
     25. B(C  23,O  20)                  1.4242         0.493487   
     26. B(C  24,C  23)                  1.5503         0.346739   
     27. B(C  25,C  24)                  1.5168         0.392196   
     28. B(C  26,C  23)                  1.5330         0.369437   
     29. B(O  27,C  26)                  1.4017         0.536106   
     30. B(C  28,C  25)                  1.3928         0.618379   
     31. B(C  29,C  28)                  1.3812         0.645370   
     32. B(C  30,C  29)                  1.4036         0.594343   
     33. B(C  31,C  30)                  1.3811         0.645454   
     34. B(C  32,C  31)                  1.3847         0.636986   
     35. B(C  32,C  25)                  1.3831         0.640810   
     36. B(C  33,O  19)                  1.4070         0.525695   
     37. B(C  34,O  18)                  1.4088         0.522268   
     38. B(C  35,O  22)                  1.4081         0.523567   
     39. B(O  36,C  24)                  1.3999         0.539674   
     40. B(O  37,C  16)                  1.4038         0.532019   
     41. B(O  38,C  17)                  1.4075         0.524750   
     42. B(O  39,C  29)                  1.3741         0.593206   
     43. B(O  40,C  30)                  1.3687         0.605162   
     44. B(C  41,O  39)                  1.4088         0.522271   
     45. B(H  42,C   3)                  1.0778         0.376669   
     46. B(H  43,C   5)                  1.0780         0.376342   
     47. B(H  44,C   6)                  1.0914         0.358198   
     48. B(H  45,C   6)                  1.0923         0.357079   
     49. B(H  46,C   7)                  1.0967         0.351383   
     50. B(H  47,C   8)                  1.0950         0.353560   
     51. B(H  48,C   9)                  1.0937         0.355248   
     52. B(H  49,C   9)                  1.0909         0.358864   
     53. B(H  50,C  11)                  1.0773         0.377235   
     54. B(H  51,C  14)                  1.0786         0.375460   
     55. B(H  52,C  15)                  1.0804         0.373083   
     56. B(H  53,C  16)                  1.0988         0.348665   
     57. B(H  54,C  16)                  1.0935         0.355440   
     58. B(H  55,C  17)                  1.0935         0.355523   
     59. B(H  56,C  17)                  1.0979         0.349761   
     60. B(H  57,O  21)                  0.9672         0.506446   
     61. B(H  57,O  22)                  2.1103         0.010000   
     62. B(H  58,C  23)                  1.0941         0.354774   
     63. B(H  59,C  24)                  1.0975         0.350288   
     64. B(H  60,C  26)                  1.0917         0.357906   
     65. B(H  61,C  26)                  1.0986         0.348875   
     66. B(H  62,O  20)                  2.3103         0.010000   
     67. B(H  62,O  27)                  0.9656         0.509357   
     68. B(H  63,C  28)                  1.0781         0.376154   
     69. B(H  64,C  31)                  1.0780         0.376278   
     70. B(H  65,C  32)                  1.0783         0.375900   
     71. B(H  66,C  33)                  1.0888         0.361724   
     72. B(H  67,C  33)                  1.0940         0.354782   
     73. B(H  68,C  33)                  1.0946         0.354055   
     74. B(H  69,C  34)                  1.0944         0.354373   
     75. B(H  70,C  34)                  1.0941         0.354715   
     76. B(H  71,C  34)                  1.0893         0.360962   
     77. B(H  72,C  35)                  1.0888         0.361700   
     78. B(H  73,H  64)                  4.8854         0.010000   
     79. B(H  73,C  35)                  1.0939         0.355012   
     80. B(H  74,C  35)                  1.0939         0.354997   
     81. B(H  75,O  20)                  2.2529         0.010000   
     82. B(H  75,O  19)                  2.0899         0.010000   
     83. B(H  75,O  36)                  0.9731         0.495494   
     84. B(H  76,O  40)                  1.9613         0.013135   
     85. B(H  76,O  37)                  0.9703         0.500594   
     86. B(H  77,O  38)                  0.9624         0.515461   
     87. B(H  78,O  39)                  2.1044         0.010000   
     88. B(H  78,O  40)                  0.9687         0.503665   
     89. B(H  79,C  41)                  1.0943         0.354484   
     90. B(H  80,O  21)                  2.3754         0.010000   
     91. B(H  80,C  41)                  1.0886         0.361938   
     92. B(H  81,H  69)                  2.4941         0.010000   
     93. B(H  81,C  41)                  1.0929         0.356245   
     94. A(C   1,C   0,O  19)          114.6623         0.426957   
     95. A(C   5,C   0,O  19)          124.9490         0.431276   
     96. A(C   1,C   0,C   5)          120.3866         0.432799   
     97. A(C   0,C   1,O  20)          116.2048         0.424420   
     98. A(C   0,C   1,C   2)          119.4646         0.428983   
     99. A(C   2,C   1,O  20)          124.1655         0.424935   
    100. A(C   3,C   2,O  18)          123.8097         0.431382   
    101. A(C   1,C   2,C   3)          119.1805         0.432805   
    102. A(C   1,C   2,O  18)          117.0094         0.428096   
    103. A(C   4,C   3,H  42)          118.5166         0.356947   
    104. A(C   2,C   3,H  42)          120.3013         0.356409   
    105. A(C   2,C   3,C   4)          121.1737         0.436836   
    106. A(C   5,C   4,C   6)          121.3240         0.405063   
    107. A(C   3,C   4,C   6)          118.9412         0.405046   
    108. A(C   3,C   4,C   5)          119.7318         0.437555   
    109. A(C   4,C   5,H  43)          119.3643         0.356908   
    110. A(C   0,C   5,H  43)          120.6384         0.356762   
    111. A(C   0,C   5,C   4)          119.9973         0.437383   
    112. A(C   4,C   6,H  44)          107.9695         0.329220   
    113. A(C   7,C   6,H  45)          109.8119         0.322518   
    114. A(C   4,C   6,C   7)          111.2008         0.367787   
    115. A(H  44,C   6,H  45)          109.4993         0.290214   
    116. A(C   4,C   6,H  45)          109.5639         0.329050   
    117. A(C   7,C   6,H  44)          108.7566         0.322683   
    118. A(C   6,C   7,C  16)          110.5801         0.360384   
    119. A(C   8,C   7,C  16)          110.1827         0.359456   
    120. A(C  16,C   7,H  46)          106.6092         0.321827   
    121. A(C   8,C   7,H  46)          106.5641         0.320874   
    122. A(C   6,C   7,H  46)          107.4308         0.321669   
    123. A(C   6,C   7,C   8)          115.0186         0.359273   
    124. A(C   7,C   8,C  17)          115.3378         0.358424   
    125. A(C  17,C   8,H  47)          105.5684         0.321263   
    126. A(C   7,C   8,C   9)          112.0537         0.359316   
    127. A(C   9,C   8,H  47)          108.7438         0.322032   
    128. A(C   7,C   8,H  47)          105.1589         0.321198   
    129. A(C   9,C   8,C  17)          109.5060         0.359391   
    130. A(H  48,C   9,H  49)          106.8917         0.290064   
    131. A(C  10,C   9,H  48)          109.0241         0.328975   
    132. A(C  10,C   9,H  49)          109.5609         0.329525   
    133. A(C   8,C   9,C  10)          113.8367         0.368068   
    134. A(C   8,C   9,H  48)          107.8419         0.322283   
    135. A(C   8,C   9,H  49)          109.4418         0.322818   
    136. A(C   9,C  10,C  11)          120.0798         0.403330   
    137. A(C  11,C  10,C  15)          118.7718         0.435545   
    138. A(C   9,C  10,C  15)          121.1414         0.405495   
    139. A(C  10,C  11,C  12)          120.7217         0.436797   
    140. A(C  10,C  11,H  50)          119.1288         0.355356   
    141. A(C  12,C  11,H  50)          120.1492         0.358159   
    142. A(C  11,C  12,C  13)          119.9815         0.433497   
    143. A(C  13,C  12,O  22)          114.5392         0.422607   
    144. A(C  11,C  12,O  22)          125.4793         0.429348   
    145. A(C  12,C  13,O  21)          120.1637         0.427557   
    146. A(C  12,C  13,C  14)          119.2914         0.433179   
    147. A(C  14,C  13,O  21)          120.5445         0.434079   
    148. A(C  13,C  14,H  51)          118.6512         0.357624   
    149. A(C  13,C  14,C  15)          120.1460         0.438518   
    150. A(C  15,C  14,H  51)          121.1982         0.356635   
    151. A(C  14,C  15,H  52)          119.1503         0.356250   
    152. A(C  10,C  15,H  52)          119.7805         0.356519   
    153. A(C  10,C  15,C  14)          121.0546         0.437581   
    154. A(O  37,C  16,H  54)          105.6905         0.341082   
    155. A(C   7,C  16,H  54)          110.8096         0.322433   
    156. A(O  37,C  16,H  53)          110.7975         0.339987   
    157. A(C   7,C  16,H  53)          108.6930         0.321418   
    158. A(C   7,C  16,O  37)          112.4106         0.382264   
    159. A(H  53,C  16,H  54)          108.3554         0.288781   
    160. A(O  38,C  17,H  56)          110.5754         0.339384   
    161. A(C   8,C  17,O  38)          115.4597         0.380236   
    162. A(H  55,C  17,H  56)          107.7908         0.288933   
    163. A(C   8,C  17,H  56)          109.7197         0.320695   
    164. A(O  38,C  17,H  55)          104.4900         0.340312   
    165. A(C   8,C  17,H  55)          108.4113         0.321554   
    166. A(C   2,O  18,C  34)          118.2453         0.414657   
    167. A(C   0,O  19,C  33)          118.4570         0.414545   
    168. A(C   1,O  20,C  23)          119.1697         0.407510   
    169. A(C  13,O  21,H  57)          107.4364         0.368459   
    170. A(C  12,O  22,C  35)          118.0393         0.410908   
    171. A(C  26,C  23,H  58)          109.6496         0.322936   
    172. A(C  24,C  23,H  58)          110.9049         0.319603   
    173. A(O  20,C  23,H  58)          110.2169         0.336724   
    174. A(C  24,C  23,C  26)          111.1360         0.358082   
    175. A(O  20,C  23,C  26)          104.7962         0.378060   
    176. A(O  20,C  23,C  24)          109.9727         0.373941   
    177. A(C  23,C  24,O  36)          109.8364         0.379770   
    178. A(O  36,C  24,H  59)          106.2292         0.341064   
    179. A(C  25,C  24,H  59)          109.0577         0.325441   
    180. A(C  23,C  24,H  59)          108.2528         0.318939   
    181. A(C  25,C  24,O  36)          113.3118         0.387992   
    182. A(C  23,C  24,C  25)          109.9716         0.361748   
    183. A(C  28,C  25,C  32)          119.4717         0.436448   
    184. A(C  24,C  25,C  32)          121.4098         0.402423   
    185. A(C  24,C  25,C  28)          119.1175         0.399906   
    186. A(O  27,C  26,H  61)          110.9605         0.340456   
    187. A(H  60,C  26,H  61)          109.0932         0.289121   
    188. A(C  23,C  26,H  61)          108.5191         0.322050   
    189. A(O  27,C  26,H  60)          106.7684         0.341915   
    190. A(C  23,C  26,H  60)          109.9812         0.323402   
    191. A(C  23,C  26,O  27)          111.4892         0.383531   
    192. A(C  26,O  27,H  62)          106.8894         0.359751   
    193. A(C  29,C  28,H  63)          120.3704         0.357958   
    194. A(C  25,C  28,H  63)          119.2395         0.355369   
    195. A(C  25,C  28,C  29)          120.3895         0.437006   
    196. A(C  30,C  29,O  39)          114.7193         0.424596   
    197. A(C  28,C  29,O  39)          125.6734         0.430911   
    198. A(C  28,C  29,C  30)          119.6072         0.433898   
    199. A(C  31,C  30,O  40)          120.4158         0.432469   
    200. A(C  29,C  30,O  40)          119.7898         0.426115   
    201. A(C  29,C  30,C  31)          119.7879         0.433908   
    202. A(C  32,C  31,H  64)          120.8230         0.357183   
    203. A(C  30,C  31,H  64)          119.0967         0.357985   
    204. A(C  30,C  31,C  32)          120.0770         0.439359   
    205. A(C  31,C  32,H  65)          119.9505         0.357122   
    206. A(C  25,C  32,H  65)          119.5146         0.357485   
    207. A(C  25,C  32,C  31)          120.5276         0.438787   
    208. A(H  67,C  33,H  68)          109.4972         0.289392   
    209. A(H  66,C  33,H  68)          109.3567         0.290272   
    210. A(O  19,C  33,H  68)          111.4893         0.340179   
    211. A(H  66,C  33,H  67)          109.2911         0.290366   
    212. A(O  19,C  33,H  67)          111.5184         0.340295   
    213. A(O  19,C  33,H  66)          105.5888         0.341400   
    214. A(H  69,C  34,H  71)          109.7796         0.290217   
    215. A(O  18,C  34,H  71)          105.5017         0.340906   
    216. A(H  69,C  34,H  70)          109.3312         0.289424   
    217. A(O  18,C  34,H  70)          111.3446         0.339913   
    218. A(O  18,C  34,H  69)          111.7037         0.339858   
    219. A(H  70,C  34,H  71)          109.0899         0.290261   
    220. A(H  73,C  35,H  74)          109.6604         0.289542   
    221. A(H  72,C  35,H  74)          109.3192         0.290391   
    222. A(O  22,C  35,H  74)          111.2882         0.340099   
    223. A(H  72,C  35,H  73)          109.4906         0.290392   
    224. A(O  22,C  35,H  73)          111.3997         0.340102   
    225. A(O  22,C  35,H  72)          105.5843         0.341165   
    226. A(C  24,O  36,H  75)          107.3599         0.358470   
    227. A(C  16,O  37,H  76)          108.1187         0.358223   
    228. A(C  17,O  38,H  77)          109.0906         0.359170   
    229. A(C  29,O  39,C  41)          118.2446         0.412237   
    230. A(C  30,O  40,H  78)          107.4502         0.366572   
    231. A(H  80,C  41,H  81)          109.2724         0.290580   
    232. A(H  79,C  41,H  81)          109.4192         0.289633   
    233. A(O  39,C  41,H  81)          111.5662         0.340158   
    234. A(H  79,C  41,H  80)          110.0523         0.290354   
    235. A(O  39,C  41,H  80)          105.3823         0.341061   
    236. A(O  39,C  41,H  79)          111.0712         0.339876   
    237. D(O  20,C   1,C   0,O  19)     -7.3972         0.024641   
    238. D(C   2,C   1,C   0,O  19)    177.0788         0.024641   
    239. D(C   2,C   1,C   0,C   5)     -2.4278         0.024641   
    240. D(O  20,C   1,C   0,C   5)    173.0962         0.024641   
    241. D(O  18,C   2,C   1,C   0)   -179.5075         0.024996   
    242. D(C   3,C   2,C   1,C   0)      0.7052         0.024996   
    243. D(C   3,C   2,C   1,O  20)   -174.4403         0.024996   
    244. D(O  18,C   2,C   1,O  20)      5.3470         0.024996   
    245. D(C   4,C   3,C   2,C   1)      1.6061         0.027357   
    246. D(H  42,C   3,C   2,O  18)      0.7642         0.027357   
    247. D(C   4,C   3,C   2,O  18)   -178.1658         0.027357   
    248. D(H  42,C   3,C   2,C   1)   -179.4639         0.027357   
    249. D(C   6,C   4,C   3,H  42)     -0.5248         0.027879   
    250. D(C   5,C   4,C   3,H  42)    178.8468         0.027879   
    251. D(C   5,C   4,C   3,C   2)     -2.2046         0.027879   
    252. D(C   6,C   4,C   3,C   2)    178.4238         0.027879   
    253. D(H  43,C   5,C   4,C   6)     -0.1556         0.027893   
    254. D(H  43,C   5,C   4,C   3)   -179.5119         0.027893   
    255. D(C   0,C   5,C   4,C   3)      0.4551         0.027893   
    256. D(C   4,C   5,C   0,O  19)   -177.6028         0.027750   
    257. D(H  43,C   5,C   0,C   1)   -178.1833         0.027750   
    258. D(H  43,C   5,C   0,O  19)      2.3637         0.027750   
    259. D(C   0,C   5,C   4,C   6)    179.8114         0.027893   
    260. D(C   4,C   5,C   0,C   1)      1.8501         0.027750   
    261. D(H  45,C   6,C   4,C   3)   -161.9813         0.012530   
    262. D(H  44,C   6,C   4,C   5)    137.8452         0.012530   
    263. D(H  44,C   6,C   4,C   3)    -42.7936         0.012530   
    264. D(C   7,C   6,C   4,C   5)   -102.9205         0.012530   
    265. D(C   7,C   6,C   4,C   3)     76.4407         0.012530   
    266. D(C   8,C   7,C   6,H  44)    -40.5096         0.010623   
    267. D(C   8,C   7,C   6,C   4)   -159.2726         0.010623   
    268. D(C  16,C   7,C   6,H  45)    -46.2923         0.010623   
    269. D(C  16,C   7,C   6,H  44)   -166.0961         0.010623   
    270. D(C   8,C   7,C   6,H  45)     79.2942         0.010623   
    271. D(C  16,C   7,C   6,C   4)     75.1409         0.010623   
    272. D(C  17,C   8,C   7,H  46)   -168.3195         0.010327   
    273. D(C  17,C   8,C   7,C  16)     76.3994         0.010327   
    274. D(C  17,C   8,C   7,C   6)    -49.3926         0.010327   
    275. D(C   9,C   8,C   7,C  16)   -157.4127         0.010327   
    276. D(C   9,C   8,C   7,H  46)    -42.1316         0.010327   
    277. D(C   9,C   8,C   7,C   6)     76.7953         0.010327   
    278. D(H  48,C   9,C   8,C  17)    -56.4386         0.010637   
    279. D(H  48,C   9,C   8,C   7)    174.2631         0.010637   
    280. D(C  10,C   9,C   8,H  47)    -62.6514         0.010637   
    281. D(C  10,C   9,C   8,C  17)   -177.5416         0.010637   
    282. D(H  48,C   9,C   8,H  47)     58.4516         0.010637   
    283. D(C  10,C   9,C   8,C   7)     53.1601         0.010637   
    284. D(C  15,C  10,C   9,H  48)    112.2400         0.012622   
    285. D(C  15,C  10,C   9,C   8)   -127.3187         0.012622   
    286. D(C  11,C  10,C   9,H  49)    176.5558         0.012622   
    287. D(C  11,C  10,C   9,H  48)    -66.7847         0.012622   
    288. D(C  11,C  10,C   9,C   8)     53.6566         0.012622   
    289. D(H  50,C  11,C  10,C  15)    179.8864         0.026279   
    290. D(H  50,C  11,C  10,C   9)     -1.0659         0.026279   
    291. D(C  12,C  11,C  10,C  15)      0.0890         0.026279   
    292. D(C  12,C  11,C  10,C   9)    179.1367         0.026279   
    293. D(O  22,C  12,C  11,H  50)     -1.5117         0.028998   
    294. D(C  13,C  12,C  11,H  50)    178.5654         0.028998   
    295. D(O  22,C  12,C  11,C  10)    178.2836         0.028998   
    296. D(C  13,C  12,C  11,C  10)     -1.6393         0.028998   
    297. D(O  21,C  13,C  12,C  11)   -177.8431         0.024044   
    298. D(C  14,C  13,C  12,O  22)   -178.0074         0.024044   
    299. D(C  14,C  13,C  12,C  11)      1.9235         0.024044   
    300. D(O  21,C  13,C  12,O  22)      2.2260         0.024044   
    301. D(H  51,C  14,C  13,O  21)     -0.1287         0.028747   
    302. D(H  51,C  14,C  13,C  12)   -179.8944         0.028747   
    303. D(C  15,C  14,C  13,O  21)    179.0962         0.028747   
    304. D(C  15,C  14,C  13,C  12)     -0.6695         0.028747   
    305. D(H  52,C  15,C  14,H  51)     -0.2915         0.027764   
    306. D(H  52,C  15,C  14,C  13)   -179.4963         0.027764   
    307. D(C  10,C  15,C  14,H  51)    178.3120         0.027764   
    308. D(C  10,C  15,C  14,C  13)     -0.8927         0.027764   
    309. D(H  52,C  15,C  10,C  11)    179.7816         0.028028   
    310. D(H  52,C  15,C  10,C   9)      0.7445         0.028028   
    311. D(C  14,C  15,C  10,C  11)      1.1868         0.028028   
    312. D(C  14,C  15,C  10,C   9)   -177.8504         0.028028   
    313. D(H  53,C  16,C   7,H  46)     70.1531         0.010682   
    314. D(H  53,C  16,C   7,C   8)   -174.5943         0.010682   
    315. D(H  53,C  16,C   7,C   6)    -46.3281         0.010682   
    316. D(O  37,C  16,C   7,H  46)    -52.8709         0.010682   
    317. D(O  37,C  16,C   7,C   8)     62.3817         0.010682   
    318. D(O  37,C  16,C   7,C   6)   -169.3521         0.010682   
    319. D(H  55,C  17,C   8,H  47)    -47.0547         0.010351   
    320. D(H  55,C  17,C   8,C   9)     69.8546         0.010351   
    321. D(H  55,C  17,C   8,C   7)   -162.6666         0.010351   
    322. D(O  38,C  17,C   8,H  47)   -163.8343         0.010351   
    323. D(O  38,C  17,C   8,C   9)    -46.9249         0.010351   
    324. D(O  38,C  17,C   8,C   7)     80.5539         0.010351   
    325. D(C  34,O  18,C   2,C   3)      2.9981         0.027533   
    326. D(C  34,O  18,C   2,C   1)   -176.7784         0.027533   
    327. D(C  33,O  19,C   0,C   5)      0.6581         0.029861   
    328. D(C  33,O  19,C   0,C   1)   -178.8226         0.029861   
    329. D(C  23,O  20,C   1,C   2)    -58.7851         0.030221   
    330. D(C  23,O  20,C   1,C   0)    125.9253         0.030221   
    331. D(H  57,O  21,C  13,C  14)   -178.5465         0.031141   
    332. D(H  57,O  21,C  13,C  12)      1.2171         0.031141   
    333. D(C  35,O  22,C  12,C  13)   -179.9968         0.027086   
    334. D(C  35,O  22,C  12,C  11)      0.0766         0.027086   
    335. D(H  58,C  23,O  20,C   1)     55.4040         0.022398   
    336. D(C  26,C  23,O  20,C   1)    173.3025         0.022398   
    337. D(C  24,C  23,O  20,C   1)    -67.1719         0.022398   
    338. D(O  36,C  24,C  23,H  58)   -172.8552         0.010000   
    339. D(O  36,C  24,C  23,C  26)     64.8968         0.010000   
    340. D(O  36,C  24,C  23,O  20)    -50.6864         0.010000   
    341. D(C  25,C  24,C  23,H  58)    -47.4951         0.010000   
    342. D(C  25,C  24,C  23,C  26)   -169.7432         0.010000   
    343. D(C  25,C  24,C  23,O  20)     74.6736         0.010000   
    344. D(C  32,C  25,C  24,O  36)      3.2956         0.011437   
    345. D(C  32,C  25,C  24,C  23)   -120.0537         0.011437   
    346. D(C  28,C  25,C  24,H  59)    -58.9906         0.011437   
    347. D(C  28,C  25,C  24,O  36)   -177.0789         0.011437   
    348. D(C  28,C  25,C  24,C  23)     59.5719         0.011437   
    349. D(H  60,C  26,C  23,H  58)    -61.0856         0.010913   
    350. D(H  60,C  26,C  23,C  24)     61.8874         0.010913   
    351. D(H  60,C  26,C  23,O  20)   -179.3696         0.010913   
    352. D(O  27,C  26,C  23,H  58)     57.1477         0.010913   
    353. D(O  27,C  26,C  23,C  24)   -179.8793         0.010913   
    354. D(O  27,C  26,C  23,O  20)    -61.1363         0.010913   
    355. D(H  62,O  27,C  26,H  61)    -71.2514         0.022848   
    356. D(H  62,O  27,C  26,H  60)    169.9804         0.022848   
    357. D(H  62,O  27,C  26,C  23)     49.8364         0.022848   
    358. D(H  63,C  28,C  25,C  32)   -176.4177         0.026452   
    359. D(H  63,C  28,C  25,C  24)      3.9494         0.026452   
    360. D(C  29,C  28,C  25,C  32)      3.8747         0.026452   
    361. D(C  29,C  28,C  25,C  24)   -175.7582         0.026452   
    362. D(C  30,C  29,C  28,H  63)    178.5170         0.028971   
    363. D(C  30,C  29,C  28,C  25)     -1.7787         0.028971   
    364. D(O  39,C  29,C  28,H  63)     -1.3722         0.028971   
    365. D(O  39,C  29,C  28,C  25)    178.3321         0.028971   
    366. D(O  40,C  30,C  29,O  39)     -0.8379         0.024327   
    367. D(O  40,C  30,C  29,C  28)    179.2612         0.024327   
    368. D(C  31,C  30,C  29,O  39)    178.2403         0.024327   
    369. D(C  31,C  30,C  29,C  28)     -1.6605         0.024327   
    370. D(H  64,C  31,C  30,O  40)      2.7197         0.028979   
    371. D(H  64,C  31,C  30,C  29)   -176.3526         0.028979   
    372. D(C  32,C  31,C  30,O  40)   -177.9384         0.028979   
    373. D(C  32,C  31,C  30,C  29)      2.9892         0.028979   
    374. D(H  65,C  32,C  31,H  64)     -0.5629         0.028173   
    375. D(H  65,C  32,C  31,C  30)   -179.8931         0.028173   
    376. D(C  25,C  32,C  31,H  64)    178.4487         0.028173   
    377. D(C  25,C  32,C  31,C  30)     -0.8816         0.028173   
    378. D(H  65,C  32,C  25,C  28)    176.4692         0.028535   
    379. D(H  65,C  32,C  25,C  24)     -3.9066         0.028535   
    380. D(C  31,C  32,C  25,C  28)     -2.5467         0.028535   
    381. D(C  31,C  32,C  25,C  24)    177.0776         0.028535   
    382. D(H  68,C  33,O  19,C   0)     59.5740         0.023806   
    383. D(H  67,C  33,O  19,C   0)    -63.1639         0.023806   
    384. D(H  66,C  33,O  19,C   0)    178.2366         0.023806   
    385. D(H  71,C  34,O  18,C   2)    178.7899         0.021633   
    386. D(H  70,C  34,O  18,C   2)     60.5752         0.021633   
    387. D(H  69,C  34,O  18,C   2)    -61.9767         0.021633   
    388. D(H  74,C  35,O  22,C  12)     62.3672         0.023605   
    389. D(H  73,C  35,O  22,C  12)    -60.3517         0.023605   
    390. D(H  72,C  35,O  22,C  12)   -179.1246         0.023605   
    391. D(H  75,O  36,C  24,H  59)    162.9964         0.023168   
    392. D(H  75,O  36,C  24,C  25)    -77.2856         0.023168   
    393. D(H  75,O  36,C  24,C  23)     46.1379         0.023168   
    394. D(H  76,O  37,C  16,H  54)   -177.2220         0.022485   
    395. D(H  76,O  37,C  16,H  53)    -60.0547         0.022485   
    396. D(H  76,O  37,C  16,C   7)     61.7803         0.022485   
    397. D(H  77,O  38,C  17,H  56)     55.7857         0.021848   
    398. D(H  77,O  38,C  17,H  55)    171.5134         0.021848   
    399. D(H  77,O  38,C  17,C   8)    -69.5173         0.021848   
    400. D(C  41,O  39,C  29,C  30)   -173.4905         0.028309   
    401. D(C  41,O  39,C  29,C  28)      6.4034         0.028309   
    402. D(H  78,O  40,C  30,C  31)   -176.8327         0.029546   
    403. D(H  78,O  40,C  30,C  29)      2.2396         0.029546   
    404. D(H  81,C  41,O  39,C  29)    -59.1800         0.023482   
    405. D(H  80,C  41,O  39,C  29)   -177.6585         0.023482   
    406. D(H  79,C  41,O  39,C  29)     63.1914         0.023482   
    -----------------------------------------------------------------

Number of atoms                         .... 82
Number of degrees of freedom            .... 406


         *************************************************************
         *                GEOMETRY OPTIMIZATION CYCLE   1            *
         *************************************************************
---------------------------------
CARTESIAN COORDINATES (ANGSTROEM)
---------------------------------
  C     10.610465   -7.880131   -1.971270
  C     11.237970   -9.055374   -2.407724
  C     10.574524  -10.280980   -2.273539
  C      9.299998  -10.304152   -1.723104
  C      8.663989   -9.134805   -1.336661
  C      9.323320   -7.921616   -1.457069
  C      7.269641   -9.214839   -0.779255
  C      7.279552   -9.718936    0.672638
  C      5.943727  -10.306704    1.167598
  C      5.699766  -11.723136    0.623699
  C      6.832736  -12.676131    0.881413
  C      7.315245  -12.853655    2.176766
  C      8.344018  -13.739193    2.431277
  C      8.892477  -14.498191    1.383673
  C      8.418615  -14.317768    0.097866
  C      7.403036  -13.406412   -0.148528
  C      7.757035   -8.612413    1.625171
  C      4.701629   -9.433747    0.904933
  O     11.235817  -11.394462   -2.705378
  O     11.369989   -6.749468   -2.091133
  O     12.452360   -8.898551   -3.036354
  O      9.877085  -15.404369    1.637736
  O      8.918119  -13.966544    3.665152
  C     13.581515   -9.620961   -2.555167
  C     13.977408   -9.108028   -1.146773
  C     12.989224   -9.615361   -0.113979
  C     14.689644   -9.341369   -3.576963
  O     14.338124   -9.799890   -4.854022
  C     12.825039  -10.988751    0.049619
  C     11.870852  -11.479681    0.919202
  C     11.089717  -10.585804    1.668141
  C     11.304604   -9.226144    1.555386
  C     12.244946   -8.744024    0.660500
  C     10.827101   -5.527557   -1.653080
  C     10.565999  -12.632440   -2.646641
  C      8.424110  -13.244169    4.768292
  O     14.093061   -7.713058   -1.164442
  O      8.009697   -9.092879    2.919717
  O      4.172052   -9.511065   -0.396847
  O     11.595022  -12.807672    1.139594
  O     10.132726  -11.067819    2.519697
  C     12.426276  -13.770636    0.534278
  H      8.776256  -11.238460   -1.603450
  H      8.826042   -7.016711   -1.147347
  H      6.702266   -9.918341   -1.391149
  H      6.799971   -8.229783   -0.825941
  H      8.018716  -10.526677    0.734901
  H      6.040476  -10.359941    2.257005
  H      4.792783  -12.111654    1.095504
  H      5.502436  -11.671588   -0.448003
  H      6.877178  -12.287326    2.981777
  H      8.845785  -14.907063   -0.698186
  H      7.039222  -13.284197   -1.158418
  H      8.656179   -8.145466    1.199934
  H      6.990222   -7.841324    1.740333
  H      3.891398   -9.782625    1.551086
  H      4.918405   -8.391093    1.172012
  H     10.044143  -15.391390    2.590277
  H     13.363276  -10.692804   -2.533169
  H     14.976052   -9.495610   -0.907943
  H     15.601428   -9.869987   -3.292460
  H     14.889260   -8.261096   -3.588421
  H     13.454449   -9.458613   -5.041224
  H     13.448133  -11.664438   -0.513906
  H     10.739475   -8.552581    2.179171
  H     12.412286   -7.682184    0.575370
  H     11.607942   -4.786048   -1.813961
  H      9.941300   -5.251236   -2.232690
  H     10.571849   -5.560648   -0.589163
  H     10.306749  -12.903943   -1.618678
  H      9.659145  -12.623992   -3.258690
  H     11.264880  -13.361285   -3.055337
  H      9.022451  -13.564778    5.619567
  H      8.541965  -12.166192    4.624639
  H      7.372178  -13.477481    4.956937
  H     13.314056   -7.363009   -1.630891
  H      8.720214   -9.751352    2.863870
  H      4.784058   -9.093358   -1.010943
  H     10.176455  -12.034986    2.488268
  H     13.452332  -13.694761    0.906968
  H     11.999720  -14.733851    0.808774
  H     12.426966  -13.673476   -0.554325

----------------------------
CARTESIAN COORDINATES (A.U.)
----------------------------
  NO LB      ZA    FRAG     MASS         X           Y           Z
   0 C     6.0000    0    12.011   20.050873  -14.891289   -3.725161
   1 C     6.0000    0    12.011   21.236685  -17.112177   -4.549939
   2 C     6.0000    0    12.011   19.982954  -19.428236   -4.296366
   3 C     6.0000    0    12.011   17.574450  -19.472025   -3.256195
   4 C     6.0000    0    12.011   16.372566  -17.262279   -2.525923
   5 C     6.0000    0    12.011   17.618522  -14.969684   -2.753461
   6 C     6.0000    0    12.011   13.737632  -17.413521   -1.472579
   7 C     6.0000    0    12.011   13.756359  -18.366127    1.271102
   8 C     6.0000    0    12.011   11.232017  -19.476849    2.206440
   9 C     6.0000    0    12.011   10.770996  -22.153516    1.178621
  10 C     6.0000    0    12.011   12.912000  -23.954417    1.665629
  11 C     6.0000    0    12.011   13.823809  -24.289888    4.113491
  12 C     6.0000    0    12.011   15.767909  -25.963311    4.594448
  13 C     6.0000    0    12.011   16.804347  -27.397610    2.614763
  14 C     6.0000    0    12.011   15.908877  -27.056660    0.184940
  15 C     6.0000    0    12.011   13.989711  -25.334446   -0.280678
  16 C     6.0000    0    12.011   14.658672  -16.275102    3.071129
  17 C     6.0000    0    12.011    8.884792  -17.827198    1.710075
  18 O     8.0000    0    15.999   21.232618  -21.532413   -5.112423
  19 O     8.0000    0    15.999   21.486166  -12.754646   -3.951668
  20 O     8.0000    0    15.999   23.531550  -16.815824   -5.737878
  21 O     8.0000    0    15.999   18.664985  -29.110038    3.094873
  22 O     8.0000    0    15.999   16.852803  -26.392944    6.926133
  23 C     6.0000    0    12.011   25.665344  -18.180982   -4.828567
  24 C     6.0000    0    12.011   26.413473  -17.211679   -2.167087
  25 C     6.0000    0    12.011   24.546077  -18.170399   -0.215390
  26 C     6.0000    0    12.011   27.759404  -17.652630   -6.759480
  27 O     8.0000    0    15.999   27.095127  -18.519108   -9.172773
  28 C     6.0000    0    12.011   24.235812  -20.765730    0.093766
  29 C     6.0000    0    12.011   22.432660  -21.693453    1.737040
  30 C     6.0000    0    12.011   20.956528  -20.004270    3.152329
  31 C     6.0000    0    12.011   21.362605  -17.434886    2.939254
  32 C     6.0000    0    12.011   23.139594  -16.523811    1.248163
  33 C     6.0000    0    12.011   20.460256  -10.445570   -3.123868
  34 C     6.0000    0    12.011   19.966844  -23.871853   -5.001427
  35 C     6.0000    0    12.011   15.919262  -25.027852    9.010767
  36 O     8.0000    0    15.999   26.632026  -14.575567   -2.200476
  37 O     8.0000    0    15.999   15.136135  -17.183050    5.517465
  38 O     8.0000    0    15.999    7.884036  -17.973309   -0.749932
  39 O     8.0000    0    15.999   21.911416  -24.202993    2.153521
  40 O     8.0000    0    15.999   19.148078  -20.915146    4.761536
  41 C     6.0000    0    12.011   23.482259  -26.022731    1.009639
  42 H     1.0000    0     1.008   16.584720  -21.237611   -3.030082
  43 H     1.0000    0     1.008   16.678802  -13.259663   -2.168171
  44 H     1.0000    0     1.008   12.665447  -18.742948   -2.628890
  45 H     1.0000    0     1.008   12.850082  -15.552035   -1.560802
  46 H     1.0000    0     1.008   15.153178  -19.892537    1.388762
  47 H     1.0000    0     1.008   11.414846  -19.577450    4.265121
  48 H     1.0000    0     1.008    9.057046  -22.887709    2.070202
  49 H     1.0000    0     1.008   10.398097  -22.056105   -0.846602
  50 H     1.0000    0     1.008   12.995983  -23.219681    5.634742
  51 H     1.0000    0     1.008   16.716110  -28.170267   -1.319380
  52 H     1.0000    0     1.008   13.302202  -25.103494   -2.189093
  53 H     1.0000    0     1.008   16.357807  -15.392700    2.267546
  54 H     1.0000    0     1.008   13.209606  -14.817955    3.288752
  55 H     1.0000    0     1.008    7.353677  -18.486482    2.931127
  56 H     1.0000    0     1.008    9.294438  -15.856867    2.214783
  57 H     1.0000    0     1.008   18.980680  -29.085511    4.894914
  58 H     1.0000    0     1.008   25.252931  -20.206471   -4.786996
  59 H     1.0000    0     1.008   28.300638  -17.944103   -1.715764
  60 H     1.0000    0     1.008   29.482427  -18.651573   -6.221847
  61 H     1.0000    0     1.008   28.136623  -15.611209   -6.781134
  62 H     1.0000    0     1.008   25.425224  -17.874188   -9.526533
  63 H     1.0000    0     1.008   25.413288  -22.042593   -0.971141
  64 H     1.0000    0     1.008   20.294666  -16.162037    4.118037
  65 H     1.0000    0     1.008   23.455822  -14.517223    1.087292
  66 H     1.0000    0     1.008   21.935832   -9.044320   -3.427890
  67 H     1.0000    0     1.008   18.786335   -9.923398   -4.219173
  68 H     1.0000    0     1.008   19.977899  -10.508102   -1.113357
  69 H     1.0000    0     1.008   19.476932  -24.384918   -3.058858
  70 H     1.0000    0     1.008   18.253138  -23.855888   -6.158031
  71 H     1.0000    0     1.008   21.287538  -25.249170   -5.773750
  72 H     1.0000    0     1.008   17.049962  -25.633716   10.619442
  73 H     1.0000    0     1.008   16.141974  -22.990771    8.739301
  74 H     1.0000    0     1.008   13.931397  -25.468747    9.367253
  75 H     1.0000    0     1.008   25.159920  -13.914070   -3.081937
  76 H     1.0000    0     1.008   16.478817  -18.427385    5.411930
  77 H     1.0000    0     1.008    9.040558  -17.183956   -1.910404
  78 H     1.0000    0     1.008   19.230714  -22.742827    4.702145
  79 H     1.0000    0     1.008   25.421224  -25.879347    1.713922
  80 H     1.0000    0     1.008   22.676184  -27.842943    1.528362
  81 H     1.0000    0     1.008   23.483562  -25.839125   -1.047522

--------------------------------
INTERNAL COORDINATES (ANGSTROEM)
--------------------------------
 C      0   0   0     0.000000000000     0.00000000     0.00000000
 C      1   0   0     1.401945340315     0.00000000     0.00000000
 C      2   1   0     1.400098085277   119.46461820     0.00000000
 C      3   2   1     1.388499401924   119.18050136     0.70520972
 C      4   3   2     1.386080678364   121.17373348     1.60609637
 C      5   4   3     1.386017076534   119.73180131   357.79544435
 C      5   4   3     1.503765671173   118.94117643   178.42382312
 C      7   5   4     1.536947415189   111.20079667    76.44074224
 C      8   7   5     1.541066044720   115.01855812   200.72741422
 C      9   8   7     1.536756533678   112.05367774    76.79533720
 C     10   9   8     1.502743433072   113.83673146    53.16006640
 C     11  10   9     1.393652826021   120.07981253    53.65656898
 C     12  11  10     1.381060482833   120.72171007   179.13665991
 C     13  12  11     1.405119257102   119.98147803   358.36071689
 C     14  13  12     1.382171252213   119.29136514     1.92354381
 C     11  10   9     1.385398933253   121.14136527   232.68126995
 C      8   7   5     1.536131963677   110.58009552    75.14093652
 C      9   8   7     1.540731960202   115.33775037   310.60742570
 O      3   2   1     1.365151228854   117.00939600   180.49251385
 O      1   2   3     1.367348765729   114.66234214   177.07878700
 O      2   1   3     1.376413149382   116.20475013   175.52401215
 O     14  13  12     1.362041801894   120.16368264   182.15692147
 O     13  12  11     1.379756123993   125.47929528   178.28359182
 C     21   2   1     1.424222227145   119.16972115   125.92530365
 C     24  21   2     1.550291921756   109.97265865   292.82813723
 C     25  24  21     1.516758390498   109.97164115    74.67363756
 C     24  21   2     1.533031881378   104.79620475   173.30250907
 O     27  24  21     1.401673733266   111.48921564   298.86367013
 C     26  25  24     1.392810486487   119.11747118    59.57188182
 C     29  26  25     1.381180768025   120.38947185   184.24176575
 C     30  29  26     1.403602020530   119.60723894   358.22125839
 C     31  30  29     1.381145677057   119.78787199   358.33947536
 C     26  25  24     1.383111093487   121.40976502   239.94631753
 C     20   1   2     1.407012097045   118.45702608   181.17735151
 C     19   3   2     1.408792554053   118.24527882   183.22155656
 C     23  13  12     1.408116064728   118.03929892     0.07662077
 O     25  24  21     1.399867953946   109.83643445   309.31360710
 O     17   8   7     1.403756687591   112.41064648   190.64785629
 O     18   9   8     1.407501659488   115.45971375    80.55385785
 O     30  29  26     1.374123389414   125.67335884   178.33211769
 O     31  30  29     1.368691422457   119.78982826   179.26123529
 C     40  30  29     1.408790813275   118.24458225     6.40336764
 H      4   3   2     1.077754448899   120.30128182   180.53613030
 H      6   5   4     1.077991361975   119.36432668   180.48813089
 H      7   5   4     1.091441377409   107.96950558   317.20642832
 H      7   5   4     1.092293604579   109.56394887   198.01871123
 H      8   7   5     1.096670858616   107.43076813   319.17018418
 H      9   8   7     1.094989481293   105.15888177   194.76207238
 H     10   9   8     1.093692960806   107.84191575   174.26305445
 H     10   9   8     1.090936166689   109.44184288   290.19576371
 H     12  11  10     1.077346090452   119.12881524   358.93405471
 H     15  14  13     1.078629890397   118.65119746   180.10563393
 H     16  11  10     1.080358552335   119.78051964     0.74445533
 H     17   8   7     1.098784043107   108.69302256   313.67185853
 H     17   8   7     1.093545834210   110.80957646    72.63442444
 H     18   9   8     1.093482194573   108.41130012   197.33342068
 H     18   9   8     1.097930277246   109.71970707   314.81106770
 H     22  14  13     0.967166351411   107.43640613     1.21711634
 H     24  21   2     1.094056413944   110.21694729    55.40397627
 H     25  24  21     1.097520330768   108.25277378   193.73023465
 H     27  24  21     1.091663667443   109.98118278   180.63039580
 H     27  24  21     1.098620755531   108.51911541    61.36489814
 H     28  27  24     0.965606258136   106.88935766    49.83641181
 H     29  26  25     1.078127053354   119.23952309     3.94938180
 H     32  31  30     1.078037495966   119.09669396   183.64736136
 H     33  26  25     1.078311243206   119.51455418   356.09343576
 H     34  20   1     1.088775413559   105.58876536   178.23657678
 H     34  20   1     1.094049880935   111.51841025   296.83605726
 H     34  20   1     1.094608430567   111.48932398    59.57396266
 H     35  19   3     1.094363988882   111.70372731   298.02328283
 H     35  19   3     1.094101665457   111.34460790    60.57521440
 H     35  19   3     1.089349404047   105.50167171   178.78994715
 H     36  23  13     1.088792997180   105.58430021   180.87543747
 H     36  23  13     1.093873738896   111.39972757   299.64826893
 H     36  23  13     1.093884743370   111.28820250    62.36716265
 H     37  25  24     0.973117596112   107.35994110    46.13789413
 H     38  17   8     0.970330248670   108.11874110    61.78030222
 H     39  18   9     0.962363369023   109.09064993   290.48269646
 H     41  31  30     0.968665146730   107.45018831     2.23963022
 H     42  40  30     1.094279120023   111.07123021    63.19144418
 H     42  40  30     1.088614182641   105.38226978   182.34150470
 H     42  40  30     1.092930098423   111.56618438   300.81996440

---------------------------
INTERNAL COORDINATES (A.U.)
---------------------------
 C      0   0   0     0.000000000000     0.00000000     0.00000000
 C      1   0   0     2.649292747923     0.00000000     0.00000000
 C      2   1   0     2.645801941802   119.46461820     0.00000000
 C      3   2   1     2.623883606751   119.18050136     0.70520972
 C      4   3   2     2.619312881629   121.17373348     1.60609637
 C      5   4   3     2.619192691588   119.73180131   357.79544435
 C      5   4   3     2.841705288110   118.94117643   178.42382312
 C      7   5   4     2.904409696946   111.20079667    76.44074224
 C      8   7   5     2.912192778807   115.01855812   200.72741422
 C      9   8   7     2.904048983165   112.05367774    76.79533720
 C     10   9   8     2.839773538055   113.83673146    53.16006640
 C     11  10   9     2.633622166944   120.07981253    53.65656898
 C     12  11  10     2.609826086936   120.72171007   179.13665991
 C     13  12  11     2.655290581422   119.98147803   358.36071689
 C     14  13  12     2.611925136861   119.29136514     1.92354381
 C     11  10   9     2.618024570075   121.14136527   232.68126995
 C      8   7   5     2.902868716912   110.58009552    75.14093652
 C      9   8   7     2.911561450562   115.33775037   310.60742570
 O      3   2   1     2.579761953920   117.00939600   180.49251385
 O      1   2   3     2.583914696784   114.66234214   177.07878700
 O      2   1   3     2.601043899460   116.20475013   175.52401215
 O     14  13  12     2.573885988532   120.16368264   182.15692147
 O     13  12  11     2.607361205947   125.47929528   178.28359182
 C     21   2   1     2.691389963147   119.16972115   125.92530365
 C     24  21   2     2.929627159750   109.97265865   292.82813723
 C     25  24  21     2.866257969368   109.97164115    74.67363756
 C     24  21   2     2.897010410375   104.79620475   173.30250907
 O     27  24  21     2.648779484983   111.48921564   298.86367013
 C     26  25  24     2.632030375914   119.11747118    59.57188182
 C     29  26  25     2.610053393006   120.38947185   184.24176575
 C     30  29  26     2.652423419820   119.60723894   358.22125839
 C     31  30  29     2.609987080686   119.78787199   358.33947536
 C     26  25  24     2.613701179478   121.40976502   239.94631753
 C     20   1   2     2.658867530529   118.45702608   181.17735151
 C     19   3   2     2.662232106667   118.24527882   183.22155656
 C     23  13  12     2.660953727112   118.03929892     0.07662077
 O     25  24  21     2.645367056611   109.83643445   309.31360710
 O     17   8   7     2.652715698207   112.41064648   190.64785629
 O     18   9   8     2.659792669473   115.45971375    80.55385785
 O     30  29  26     2.596716880208   125.67335884   178.33211769
 O     31  30  29     2.586451950292   119.78982826   179.26123529
 C     40  30  29     2.662228817075   118.24458225     6.40336764
 H      4   3   2     2.036660748034   120.30128182   180.53613030
 H      6   5   4     2.037108448865   119.36432668   180.48813089
 H      7   5   4     2.062525294534   107.96950558   317.20642832
 H      7   5   4     2.064135770488   109.56394887   198.01871123
 H      8   7   5     2.072407581837   107.43076813   319.17018418
 H      9   8   7     2.069230239169   105.15888177   194.76207238
 H     10   9   8     2.066780170521   107.84191575   174.26305445
 H     10   9   8     2.061570584633   109.44184288   290.19576371
 H     12  11  10     2.035889062406   119.12881524   358.93405471
 H     15  14  13     2.038315092713   118.65119746   180.10563393
 H     16  11  10     2.041581790354   119.78051964     0.74445533
 H     17   8   7     2.076400921794   108.69302256   313.67185853
 H     17   8   7     2.066502141548   110.80957646    72.63442444
 H     18   9   8     2.066381880061   108.41130012   197.33342068
 H     18   9   8     2.074787538134   109.71970707   314.81106770
 H     22  14  13     1.827679530110   107.43640613     1.21711634
 H     24  21   2     2.067466997414   110.21694729    55.40397627
 H     25  24  21     2.074012851562   108.25277378   193.73023465
 H     27  24  21     2.062945361820   109.98118278   180.63039580
 H     27  24  21     2.076092352996   108.51911541    61.36489814
 H     28  27  24     1.824731381078   106.88935766    49.83641181
 H     29  26  25     2.037364868410   119.23952309     3.94938180
 H     32  31  30     2.037195629474   119.09669396   183.64736136
 H     33  26  25     2.037712936787   119.51455418   356.09343576
 H     34  20   1     2.057487352973   105.58876536   178.23657678
 H     34  20   1     2.067454651817   111.51841025   296.83605726
 H     34  20   1     2.068510157653   111.48932398    59.57396266
 H     35  19   3     2.068048229813   111.70372731   298.02328283
 H     35  19   3     2.067552510381   111.34460790    60.57521440
 H     35  19   3     2.058572037800   105.50167171   178.78994715
 H     36  23  13     2.057520581201   105.58430021   180.87543747
 H     36  23  13     2.067121791602   111.39972757   299.64826893
 H     36  23  13     2.067142587044   111.28820250    62.36716265
 H     37  25  24     1.838925752752   107.35994110    46.13789413
 H     38  17   8     1.833658429446   108.11874110    61.78030222
 H     39  18   9     1.818603208771   109.09064993   290.48269646
 H     41  31  30     1.830511842795   107.45018831     2.23963022
 H     42  40  30     2.067887850912   111.07123021    63.19144418
 H     42  40  30     2.057182670694   105.38226978   182.34150470
 H     42  40  30     2.065338569539   111.56618438   300.81996440

---------------------
BASIS SET INFORMATION
---------------------
There are 3 groups of distinct atoms

 Group   1 Type C   : 11s6p2d1f contracted to 5s3p2d1f pattern {62111/411/11/1}
 Group   2 Type O   : 11s6p2d1f contracted to 5s3p2d1f pattern {62111/411/11/1}
 Group   3 Type H   : 5s1p contracted to 3s1p pattern {311/1}

Atom   0C    basis set group =>   1
Atom   1C    basis set group =>   1
Atom   2C    basis set group =>   1
Atom   3C    basis set group =>   1
Atom   4C    basis set group =>   1
Atom   5C    basis set group =>   1
Atom   6C    basis set group =>   1
Atom   7C    basis set group =>   1
Atom   8C    basis set group =>   1
Atom   9C    basis set group =>   1
Atom  10C    basis set group =>   1
Atom  11C    basis set group =>   1
Atom  12C    basis set group =>   1
Atom  13C    basis set group =>   1
Atom  14C    basis set group =>   1
Atom  15C    basis set group =>   1
Atom  16C    basis set group =>   1
Atom  17C    basis set group =>   1
Atom  18O    basis set group =>   2
Atom  19O    basis set group =>   2
Atom  20O    basis set group =>   2
Atom  21O    basis set group =>   2
Atom  22O    basis set group =>   2
Atom  23C    basis set group =>   1
Atom  24C    basis set group =>   1
Atom  25C    basis set group =>   1
Atom  26C    basis set group =>   1
Atom  27O    basis set group =>   2
Atom  28C    basis set group =>   1
Atom  29C    basis set group =>   1
Atom  30C    basis set group =>   1
Atom  31C    basis set group =>   1
Atom  32C    basis set group =>   1
Atom  33C    basis set group =>   1
Atom  34C    basis set group =>   1
Atom  35C    basis set group =>   1
Atom  36O    basis set group =>   2
Atom  37O    basis set group =>   2
Atom  38O    basis set group =>   2
Atom  39O    basis set group =>   2
Atom  40O    basis set group =>   2
Atom  41C    basis set group =>   1
Atom  42H    basis set group =>   3
Atom  43H    basis set group =>   3
Atom  44H    basis set group =>   3
Atom  45H    basis set group =>   3
Atom  46H    basis set group =>   3
Atom  47H    basis set group =>   3
Atom  48H    basis set group =>   3
Atom  49H    basis set group =>   3
Atom  50H    basis set group =>   3
Atom  51H    basis set group =>   3
Atom  52H    basis set group =>   3
Atom  53H    basis set group =>   3
Atom  54H    basis set group =>   3
Atom  55H    basis set group =>   3
Atom  56H    basis set group =>   3
Atom  57H    basis set group =>   3
Atom  58H    basis set group =>   3
Atom  59H    basis set group =>   3
Atom  60H    basis set group =>   3
Atom  61H    basis set group =>   3
Atom  62H    basis set group =>   3
Atom  63H    basis set group =>   3
Atom  64H    basis set group =>   3
Atom  65H    basis set group =>   3
Atom  66H    basis set group =>   3
Atom  67H    basis set group =>   3
Atom  68H    basis set group =>   3
Atom  69H    basis set group =>   3
Atom  70H    basis set group =>   3
Atom  71H    basis set group =>   3
Atom  72H    basis set group =>   3
Atom  73H    basis set group =>   3
Atom  74H    basis set group =>   3
Atom  75H    basis set group =>   3
Atom  76H    basis set group =>   3
Atom  77H    basis set group =>   3
Atom  78H    basis set group =>   3
Atom  79H    basis set group =>   3
Atom  80H    basis set group =>   3
Atom  81H    basis set group =>   3
---------------------------------
AUXILIARY/J BASIS SET INFORMATION
---------------------------------
There are 3 groups of distinct atoms

 Group   1 Type C   : 12s5p4d2f1g contracted to 6s4p3d1f1g pattern {711111/2111/211/2/1}
 Group   2 Type O   : 12s5p4d2f1g contracted to 6s4p3d1f1g pattern {711111/2111/211/2/1}
 Group   3 Type H   : 5s2p1d contracted to 3s1p1d pattern {311/2/1}

Atom   0C    basis set group =>   1
Atom   1C    basis set group =>   1
Atom   2C    basis set group =>   1
Atom   3C    basis set group =>   1
Atom   4C    basis set group =>   1
Atom   5C    basis set group =>   1
Atom   6C    basis set group =>   1
Atom   7C    basis set group =>   1
Atom   8C    basis set group =>   1
Atom   9C    basis set group =>   1
Atom  10C    basis set group =>   1
Atom  11C    basis set group =>   1
Atom  12C    basis set group =>   1
Atom  13C    basis set group =>   1
Atom  14C    basis set group =>   1
Atom  15C    basis set group =>   1
Atom  16C    basis set group =>   1
Atom  17C    basis set group =>   1
Atom  18O    basis set group =>   2
Atom  19O    basis set group =>   2
Atom  20O    basis set group =>   2
Atom  21O    basis set group =>   2
Atom  22O    basis set group =>   2
Atom  23C    basis set group =>   1
Atom  24C    basis set group =>   1
Atom  25C    basis set group =>   1
Atom  26C    basis set group =>   1
Atom  27O    basis set group =>   2
Atom  28C    basis set group =>   1
Atom  29C    basis set group =>   1
Atom  30C    basis set group =>   1
Atom  31C    basis set group =>   1
Atom  32C    basis set group =>   1
Atom  33C    basis set group =>   1
Atom  34C    basis set group =>   1
Atom  35C    basis set group =>   1
Atom  36O    basis set group =>   2
Atom  37O    basis set group =>   2
Atom  38O    basis set group =>   2
Atom  39O    basis set group =>   2
Atom  40O    basis set group =>   2
Atom  41C    basis set group =>   1
Atom  42H    basis set group =>   3
Atom  43H    basis set group =>   3
Atom  44H    basis set group =>   3
Atom  45H    basis set group =>   3
Atom  46H    basis set group =>   3
Atom  47H    basis set group =>   3
Atom  48H    basis set group =>   3
Atom  49H    basis set group =>   3
Atom  50H    basis set group =>   3
Atom  51H    basis set group =>   3
Atom  52H    basis set group =>   3
Atom  53H    basis set group =>   3
Atom  54H    basis set group =>   3
Atom  55H    basis set group =>   3
Atom  56H    basis set group =>   3
Atom  57H    basis set group =>   3
Atom  58H    basis set group =>   3
Atom  59H    basis set group =>   3
Atom  60H    basis set group =>   3
Atom  61H    basis set group =>   3
Atom  62H    basis set group =>   3
Atom  63H    basis set group =>   3
Atom  64H    basis set group =>   3
Atom  65H    basis set group =>   3
Atom  66H    basis set group =>   3
Atom  67H    basis set group =>   3
Atom  68H    basis set group =>   3
Atom  69H    basis set group =>   3
Atom  70H    basis set group =>   3
Atom  71H    basis set group =>   3
Atom  72H    basis set group =>   3
Atom  73H    basis set group =>   3
Atom  74H    basis set group =>   3
Atom  75H    basis set group =>   3
Atom  76H    basis set group =>   3
Atom  77H    basis set group =>   3
Atom  78H    basis set group =>   3
Atom  79H    basis set group =>   3
Atom  80H    basis set group =>   3
Atom  81H    basis set group =>   3
--------------------------------------------------------------------------
WARNING: There was an error initializing an OpenFabrics device.

  Local host:   c03b01n01
  Local device: mlx5_0
--------------------------------------------------------------------------
--------------------------------------------------------------------------
WARNING: There is at least one non-excluded one OpenFabrics device found,
but there are no active ports detected (or Open MPI was unable to use
them).  This is most certainly not what you wanted.  Check your
cables, subnet manager configuration, etc.  The openib BTL will be
ignored for this job.

  Local host: c03b01n01
--------------------------------------------------------------------------
[c03b01n01:3737140] 56 more processes have sent help message help-mpi-btl-openib.txt / error in device init
[c03b01n01:3737140] Set MCA parameter "orte_base_help_aggregate" to 0 to see all help / error messages
[c03b01n01:3737140] 6 more processes have sent help message help-mpi-btl-openib.txt / no active ports found


           ************************************************************
           *        Program running with 64 parallel MPI-processes    *
           *              working on a common directory               *
           ************************************************************
------------------------------------------------------------------------------
                             ORCA STARTUP CALCULATIONS
                           -- RI-GTO INTEGRALS CHOSEN --
------------------------------------------------------------------------------
------------------------------------------------------------------------------
                   ___                                                        
                  /   \      - P O W E R E D   B Y -                         
                 /     \                                                     
                 |  |  |   _    _      __       _____    __    __             
                 |  |  |  | |  | |    /  \     |  _  \  |  |  /  |          
                  \  \/   | |  | |   /    \    | | | |  |  | /  /          
                 / \  \   | |__| |  /  /\  \   | |_| |  |  |/  /          
                |  |  |   |  __  | /  /__\  \  |    /   |      \           
                |  |  |   | |  | | |   __   |  |    \   |  |\   \          
                \     /   | |  | | |  |  |  |  | |\  \  |  | \   \       
                 \___/    |_|  |_| |__|  |__|  |_| \__\ |__|  \__/        
                                                                              
                      - O R C A' S   B I G   F R I E N D -                    
                                      &                                       
                       - I N T E G R A L  F E E D E R -                       
                                                                              
 v1 FN, 2020, v2 2021, v3 2022-2024                                           
------------------------------------------------------------------------------


----------------------
SHARK INTEGRAL PACKAGE
----------------------

Number of atoms                             ...     82
Number of basis functions                   ...   1542
Number of shells                            ...    622
Maximum angular momentum                    ...      3
Integral batch strategy                     ... SHARK/LIBINT Hybrid
RI-J (if used) integral strategy            ... SPLIT-RIJ (Revised 2003 algorithm where possible)
Printlevel                                  ...      1
Contraction scheme used                     ... SEGMENTED contraction
Prescreening option                         ... SCHWARTZ
   Thresh                                   ... 2.500e-11
   Tcut                                     ... 2.500e-12
   Tpresel                                  ... 2.500e-12 
Coulomb Range Separation                    ... NOT USED
Exchange Range Separation                   ... NOT USED
Multipole approximations                    ... NOT USED
Finite Nucleus Model                        ... NOT USED
CABS basis                                  ... NOT available
Auxiliary Coulomb fitting basis             ... AVAILABLE
   # of basis functions in Aux-J            ...   2498
   # of shells in Aux-J                     ...    830
   Maximum angular momentum in Aux-J        ...      4
Auxiliary J/K fitting basis                 ... NOT available
Auxiliary Correlation fitting basis         ... NOT available
Auxiliary 'external' fitting basis          ... NOT available

Checking pre-screening integrals            ... done (  0.4 sec) Dimension = 622
   => SHARK Basis and OBASIS are compatible. Storing Pre-screening
Shell pair information
Shell pair cut-off parameter TPreSel        ...   2.5e-12
Total number of shell pairs                 ...    193753
Shell pairs after pre-screening             ...    117157
Total number of primitive shell pairs       ...    584784
Primitive shell pairs kept                  ...    221008
          la=0 lb=0:  32567 shell pairs
          la=1 lb=0:  34954 shell pairs
          la=1 lb=1:   9469 shell pairs
          la=2 lb=0:  15887 shell pairs
          la=2 lb=1:   8746 shell pairs
          la=2 lb=2:   2012 shell pairs
          la=3 lb=0:   7246 shell pairs
          la=3 lb=1:   4062 shell pairs
          la=3 lb=2:   1786 shell pairs
          la=3 lb=3:    428 shell pairs

Checking whether 4 symmetric matrices of dimension 1542 fit in memory
:Max Core in MB      =   6000.00
 MB in use           =    140.41
 MB left             =   5859.59
 MB needed           =     36.31
 Data fit in memory  = YES
Calculating RI/J V-Matrix + Cholesky decomp.... done (  5.2 sec)
Calculating Nuclear repulsion               ... done (  0.0 sec) ENN=   5791.043536963644 Eh

Diagonalization of the overlap matrix:
Smallest eigenvalue                        ... 3.102e-06
Time for diagonalization                   ...   73.510 sec
Threshold for overlap eigenvalues          ... 1.000e-07
Number of eigenvalues below threshold      ... 0
Time for construction of square roots      ...    5.361 sec
Total time needed                          ...   79.269 sec

-------------------
DFT GRID GENERATION
-------------------

General Integration Accuracy     IntAcc      ... 4.388
Radial Grid Type                 RadialGrid  ... OptM3 with GC (2021)
Angular Grid (max. ang.)         AngularGrid ... 4 (Lebedev-302)
Angular grid pruning method      GridPruning ... 4 (adaptive)
Weight generation scheme         WeightScheme... mBecke (2022)
Basis function cutoff            BFCut       ... 1.0000e-11
Integration weight cutoff        WCut        ... 1.0000e-14
Partially contracted basis set               ... off
Rotationally invariant grid construction     ... off
Angular grids for H and He will be reduced by one unit

Total number of grid points                  ...   373332
Total number of batches                      ...     5871
Average number of points per batch           ...       63
Average number of grid points per atom       ...     4553

--------------------
COSX GRID GENERATION
--------------------

GRIDX 1
-------
General Integration Accuracy     IntAcc      ... 3.816
Radial Grid Type                 RadialGrid  ... OptM3 with GC (2021)
Angular Grid (max. ang.)         AngularGrid ... 1 (Lebedev-50)
Angular grid pruning method      GridPruning ... 4 (adaptive)
Weight generation scheme         WeightScheme... mBecke (2022)
Basis function cutoff            BFCut       ... 1.0000e-11
Integration weight cutoff        WCut        ... 1.0000e-14
Partially contracted basis set               ... on
Rotationally invariant grid construction     ... off
Angular grids for H and He will be reduced by one unit

Total number of grid points                  ...    47190
Total number of batches                      ...      409
Average number of points per batch           ...      115
Average number of grid points per atom       ...      575
UseSFitting                                  ... on

GRIDX 2
-------
General Integration Accuracy     IntAcc      ... 4.020
Radial Grid Type                 RadialGrid  ... OptM3 with GC (2021)
Angular Grid (max. ang.)         AngularGrid ... 2 (Lebedev-110)
Angular grid pruning method      GridPruning ... 4 (adaptive)
Weight generation scheme         WeightScheme... mBecke (2022)
Basis function cutoff            BFCut       ... 1.0000e-11
Integration weight cutoff        WCut        ... 1.0000e-14
[...]
freq.     633.13  E(vib)   ...       0.09 
freq.     657.36  E(vib)   ...       0.08 
freq.     666.18  E(vib)   ...       0.08 
freq.     693.80  E(vib)   ...       0.07 
freq.     729.35  E(vib)   ...       0.06 
freq.     735.38  E(vib)   ...       0.06 
freq.     746.80  E(vib)   ...       0.06 
freq.     760.68  E(vib)   ...       0.06 
freq.     765.59  E(vib)   ...       0.06 
freq.     772.19  E(vib)   ...       0.05 
freq.     779.16  E(vib)   ...       0.05 
freq.     800.67  E(vib)   ...       0.05 
freq.     809.97  E(vib)   ...       0.05 
freq.     813.45  E(vib)   ...       0.05 
freq.     834.69  E(vib)   ...       0.04 
freq.     848.91  E(vib)   ...       0.04 
freq.     852.47  E(vib)   ...       0.04 
freq.     856.22  E(vib)   ...       0.04 
freq.     873.18  E(vib)   ...       0.04 
freq.     877.03  E(vib)   ...       0.04 
freq.     882.19  E(vib)   ...       0.04 
freq.     896.69  E(vib)   ...       0.03 
freq.     904.33  E(vib)   ...       0.03 
freq.     916.06  E(vib)   ...       0.03 
freq.     918.96  E(vib)   ...       0.03 
freq.     928.55  E(vib)   ...       0.03 
freq.     948.89  E(vib)   ...       0.03 
freq.     953.95  E(vib)   ...       0.03 
freq.     960.24  E(vib)   ...       0.03 
freq.     961.35  E(vib)   ...       0.03 
freq.     967.40  E(vib)   ...       0.03 
freq.     996.34  E(vib)   ...       0.02 
freq.    1012.33  E(vib)   ...       0.02 
freq.    1027.86  E(vib)   ...       0.02 
freq.    1038.43  E(vib)   ...       0.02 
freq.    1045.94  E(vib)   ...       0.02 
freq.    1047.79  E(vib)   ...       0.02 
freq.    1056.83  E(vib)   ...       0.02 
freq.    1064.47  E(vib)   ...       0.02 
freq.    1065.59  E(vib)   ...       0.02 
freq.    1072.04  E(vib)   ...       0.02 
freq.    1100.93  E(vib)   ...       0.02 
freq.    1102.35  E(vib)   ...       0.02 
freq.    1113.70  E(vib)   ...       0.01 
freq.    1130.77  E(vib)   ...       0.01 
freq.    1142.19  E(vib)   ...       0.01 
freq.    1142.63  E(vib)   ...       0.01 
freq.    1144.40  E(vib)   ...       0.01 
freq.    1169.93  E(vib)   ...       0.01 
freq.    1171.30  E(vib)   ...       0.01 
freq.    1171.60  E(vib)   ...       0.01 
freq.    1172.17  E(vib)   ...       0.01 
freq.    1172.99  E(vib)   ...       0.01 
freq.    1173.13  E(vib)   ...       0.01 
freq.    1178.18  E(vib)   ...       0.01 
freq.    1185.44  E(vib)   ...       0.01 
freq.    1201.03  E(vib)   ...       0.01 
freq.    1204.38  E(vib)   ...       0.01 
freq.    1206.04  E(vib)   ...       0.01 
freq.    1208.20  E(vib)   ...       0.01 
freq.    1213.60  E(vib)   ...       0.01 
freq.    1220.57  E(vib)   ...       0.01 
freq.    1224.91  E(vib)   ...       0.01 
freq.    1225.19  E(vib)   ...       0.01 
freq.    1228.91  E(vib)   ...       0.01 
freq.    1243.12  E(vib)   ...       0.01 
freq.    1247.30  E(vib)   ...       0.01 
freq.    1250.24  E(vib)   ...       0.01 
freq.    1264.52  E(vib)   ...       0.01 
freq.    1274.29  E(vib)   ...       0.01 
freq.    1276.72  E(vib)   ...       0.01 
freq.    1282.15  E(vib)   ...       0.01 
freq.    1286.91  E(vib)   ...       0.01 
freq.    1287.39  E(vib)   ...       0.01 
freq.    1294.77  E(vib)   ...       0.01 
freq.    1315.97  E(vib)   ...       0.01 
freq.    1323.29  E(vib)   ...       0.01 
freq.    1329.48  E(vib)   ...       0.01 
freq.    1339.91  E(vib)   ...       0.01 
freq.    1346.95  E(vib)   ...       0.01 
freq.    1347.90  E(vib)   ...       0.01 
freq.    1356.13  E(vib)   ...       0.01 
freq.    1365.18  E(vib)   ...       0.01 
freq.    1369.95  E(vib)   ...       0.01 
freq.    1376.06  E(vib)   ...       0.01 
freq.    1384.71  E(vib)   ...       0.00 
freq.    1385.31  E(vib)   ...       0.00 
freq.    1398.35  E(vib)   ...       0.00 
freq.    1401.17  E(vib)   ...       0.00 
freq.    1408.82  E(vib)   ...       0.00 
freq.    1411.07  E(vib)   ...       0.00 
freq.    1416.38  E(vib)   ...       0.00 
freq.    1426.74  E(vib)   ...       0.00 
freq.    1427.66  E(vib)   ...       0.00 
freq.    1440.58  E(vib)   ...       0.00 
freq.    1453.85  E(vib)   ...       0.00 
freq.    1455.57  E(vib)   ...       0.00 
freq.    1459.39  E(vib)   ...       0.00 
freq.    1478.13  E(vib)   ...       0.00 
freq.    1479.19  E(vib)   ...       0.00 
freq.    1479.50  E(vib)   ...       0.00 
freq.    1480.28  E(vib)   ...       0.00 
freq.    1481.26  E(vib)   ...       0.00 
freq.    1481.98  E(vib)   ...       0.00 
freq.    1483.67  E(vib)   ...       0.00 
freq.    1483.76  E(vib)   ...       0.00 
freq.    1488.25  E(vib)   ...       0.00 
freq.    1489.66  E(vib)   ...       0.00 
freq.    1489.89  E(vib)   ...       0.00 
freq.    1491.54  E(vib)   ...       0.00 
freq.    1491.66  E(vib)   ...       0.00 
freq.    1493.70  E(vib)   ...       0.00 
freq.    1498.38  E(vib)   ...       0.00 
freq.    1499.36  E(vib)   ...       0.00 
freq.    1507.95  E(vib)   ...       0.00 
freq.    1536.29  E(vib)   ...       0.00 
freq.    1541.81  E(vib)   ...       0.00 
freq.    1546.06  E(vib)   ...       0.00 
freq.    1628.70  E(vib)   ...       0.00 
freq.    1637.47  E(vib)   ...       0.00 
freq.    1642.90  E(vib)   ...       0.00 
freq.    1647.59  E(vib)   ...       0.00 
freq.    1648.63  E(vib)   ...       0.00 
freq.    1652.56  E(vib)   ...       0.00 
freq.    3006.51  E(vib)   ...       0.00 
freq.    3017.12  E(vib)   ...       0.00 
freq.    3018.75  E(vib)   ...       0.00 
freq.    3021.92  E(vib)   ...       0.00 
freq.    3022.75  E(vib)   ...       0.00 
freq.    3023.21  E(vib)   ...       0.00 
freq.    3024.10  E(vib)   ...       0.00 
freq.    3026.37  E(vib)   ...       0.00 
freq.    3026.62  E(vib)   ...       0.00 
freq.    3027.64  E(vib)   ...       0.00 
freq.    3029.40  E(vib)   ...       0.00 
freq.    3033.21  E(vib)   ...       0.00 
freq.    3064.31  E(vib)   ...       0.00 
freq.    3068.86  E(vib)   ...       0.00 
freq.    3075.68  E(vib)   ...       0.00 
freq.    3082.72  E(vib)   ...       0.00 
freq.    3084.88  E(vib)   ...       0.00 
freq.    3089.15  E(vib)   ...       0.00 
freq.    3089.81  E(vib)   ...       0.00 
freq.    3090.49  E(vib)   ...       0.00 
freq.    3093.33  E(vib)   ...       0.00 
freq.    3102.51  E(vib)   ...       0.00 
freq.    3140.58  E(vib)   ...       0.00 
freq.    3142.91  E(vib)   ...       0.00 
freq.    3142.95  E(vib)   ...       0.00 
freq.    3164.98  E(vib)   ...       0.00 
freq.    3170.35  E(vib)   ...       0.00 
freq.    3187.40  E(vib)   ...       0.00 
freq.    3187.75  E(vib)   ...       0.00 
freq.    3204.31  E(vib)   ...       0.00 
freq.    3208.41  E(vib)   ...       0.00 
freq.    3211.46  E(vib)   ...       0.00 
freq.    3213.52  E(vib)   ...       0.00 
freq.    3214.81  E(vib)   ...       0.00 
freq.    3598.81  E(vib)   ...       0.00 
freq.    3632.36  E(vib)   ...       0.00 
freq.    3716.24  E(vib)   ...       0.00 
freq.    3722.85  E(vib)   ...       0.00 
freq.    3761.94  E(vib)   ...       0.00 
freq.    3796.93  E(vib)   ...       0.00 

------------
INNER ENERGY
------------

The inner energy is: U= E(el) + E(ZPE) + E(vib) + E(rot) + E(trans)
    E(el)   - is the total energy from the electronic structure calculation
              = E(kin-el) + E(nuc-el) + E(el-el) + E(nuc-nuc)
    E(ZPE)  - the the zero temperature vibrational energy from the frequency calculation
    E(vib)  - the the finite temperature correction to E(ZPE) due to population
              of excited vibrational states
    E(rot)  - is the rotational thermal energy
    E(trans)- is the translational thermal energy

Summary of contributions to the inner energy U:
Electronic energy                ...  -2032.63833672 Eh
Zero point energy                ...      0.67930770 Eh     426.27 kcal/mol
Thermal vibrational correction   ...      0.04024444 Eh      25.25 kcal/mol
Thermal rotational correction    ...      0.00141627 Eh       0.89 kcal/mol
Thermal translational correction ...      0.00141627 Eh       0.89 kcal/mol
-----------------------------------------------------------------------
Total thermal energy                  -2031.91595203 Eh


Summary of corrections to the electronic energy:
(perhaps to be used in another calculation)
Total thermal correction                  0.04307698 Eh      27.03 kcal/mol
Non-thermal (ZPE) correction              0.67930770 Eh     426.27 kcal/mol
-----------------------------------------------------------------------
Total correction                          0.72238468 Eh     453.30 kcal/mol


--------
ENTHALPY
--------

The enthalpy is H = U + kB*T
                kB is Boltzmann's constant
Total thermal energy              ...  -2031.91595203 Eh 
Thermal Enthalpy correction       ...      0.00094421 Eh       0.59 kcal/mol
-----------------------------------------------------------------------
Total Enthalpy                    ...  -2031.91500782 Eh


Note: Only C1 symmetry has been detected, increase convergence thresholds 
      if your molecule has a higher symmetry. Symmetry factor of 1.0 is   
      used for the rotational entropy correction. 
 

Note: Rotational entropy computed according to Herzberg 
Infrared and Raman Spectra, Chapter V,1, Van Nostrand Reinhold, 1945 
Point Group:  C1, Symmetry Number:   1  
Rotational constants in cm-1:     0.003961     0.002247     0.001892 

Vibrational entropy computed according to the QRRHO of S. Grimme
Chem.Eur.J. 2012 18 9955 using a reference frequency of 100.0 cm-1


-------
ENTROPY
-------

The entropy contributions are T*S = T*(S(el)+S(vib)+S(rot)+S(trans))
     S(el)   - electronic entropy
     S(vib)  - vibrational entropy
     S(rot)  - rotational entropy
     S(trans)- translational entropy
The entropies will be listed as multiplied by the temperature to get
units of energy

Electronic entropy                ...      0.00000000 Eh      0.00 kcal/mol
Vibrational entropy               ...      0.07215315 Eh     45.28 kcal/mol
Rotational entropy                ...      0.01796104 Eh     11.27 kcal/mol
Translational entropy             ...      0.02138181 Eh     13.42 kcal/mol
-----------------------------------------------------------------------
Final entropy term                ...      0.11149600 Eh     69.96 kcal/mol

In case the symmetry of your molecule has not been determined correctly
or in case you have a reason to use a different symmetry number we print 
out the resulting rotational entropy values for sn=1,12:

 non-linear molecules -----------------------------------
|  sn= 1 | S(rot)=       0.01796104 Eh     11.27 kcal/mol|
|  sn= 2 | S(rot)=       0.01730658 Eh     10.86 kcal/mol|
|  sn= 3 | S(rot)=       0.01692375 Eh     10.62 kcal/mol|
|  sn= 4 | S(rot)=       0.01665213 Eh     10.45 kcal/mol|
|  sn= 5 | S(rot)=       0.01644144 Eh     10.32 kcal/mol|
|  sn= 6 | S(rot)=       0.01626930 Eh     10.21 kcal/mol|
|  sn= 7 | S(rot)=       0.01612375 Eh     10.12 kcal/mol|
|  sn= 8 | S(rot)=       0.01599767 Eh     10.04 kcal/mol|
|  sn= 9 | S(rot)=       0.01588646 Eh      9.97 kcal/mol|
|  sn=10 | S(rot)=       0.01578698 Eh      9.91 kcal/mol|
|  sn=11 | S(rot)=       0.01569699 Eh      9.85 kcal/mol|
|  sn=12 | S(rot)=       0.01561484 Eh      9.80 kcal/mol|
 linear molecules ---------------------------------------
|  Dinfh | S(rot)=       0.01124592 Eh      7.06 kcal/mol|
|  Cinfv | S(rot)=       0.01190038 Eh      7.47 kcal/mol|
 --------------------------------------------------------


-------------------
GIBBS FREE ENERGY
-------------------

The Gibbs free energy is G = H - T*S

Total enthalpy                    ...  -2031.91500782 Eh 
Total entropy correction          ...     -0.11149600 Eh    -69.96 kcal/mol
-----------------------------------------------------------------------
Final Gibbs free energy         ...  -2032.02650382 Eh

For completeness - the Gibbs free energy minus the electronic energy
G-E(el)                           ...      0.61183289 Eh    383.93 kcal/mol


Maximum memory used throughout the entire PROP-calculation: 1823.2 MB
--------------------------------------------------------------------------
WARNING: There was an error initializing an OpenFabrics device.

  Local host:   c03b01n01
  Local device: mlx5_0
--------------------------------------------------------------------------
--------------------------------------------------------------------------
WARNING: There is at least one non-excluded one OpenFabrics device found,
but there are no active ports detected (or Open MPI was unable to use
them).  This is most certainly not what you wanted.  Check your
cables, subnet manager configuration, etc.  The openib BTL will be
ignored for this job.

  Local host: c03b01n01
--------------------------------------------------------------------------
[c03b01n01:3817655] 59 more processes have sent help message help-mpi-btl-openib.txt / error in device init
[c03b01n01:3817655] Set MCA parameter "orte_base_help_aggregate" to 0 to see all help / error messages
[c03b01n01:3817655] 3 more processes have sent help message help-mpi-btl-openib.txt / no active ports found

--------------------------------
SUGGESTED CITATIONS FOR THIS RUN
--------------------------------

Below you find a list of papers that are relevant to this ORCA run
We neither can nor want to force you to cite these papers, but we appreciate if you do
You receive ORCA, which is the product of decades of hard work by many enthusiastic individuals, for free
The only thing we kindly ask in return is that you cite our papers,
We deeply appreciate it, if you show your appreciation for ORCA by not just citing the generic ORCA reference.

Please note that relegating all ORCA citations to the supporting information does *not* help us.
SI sections are not indexed - citations you put there will not count into any citation statistics
But we need these citations in order to attract the funding resources that allow us to do what we are doing

Therefore, if you are a happy ORCA user, please consider citing a few of the papers listed below in the main body of your paper

In addition to the list printed below, the program has created the file opt-conf-10.bibtex that contains the list in bibtex format
You can import this file easily into all common literature databanks and citation aid programs


List of essential papers. We consider these as the minimum necessary citations

  1. Neese, F.
     Software update: the ORCA program system, version 6.0
     WIRES Comput. Molec. Sci. 2025 15(1), e70019
     doi.org/10.1002/wcms.7019

List of papers to cite with high priority. The work reported in these papers was absolutely
necessary for this run to complete.
Our perspective: the developers of density functionals and basis sets usually get cited in chemistry papers
Good! But without the algorithms to do something with them, the functionals or basis sets would not do anything.
Hence, in our opinion, the algorithm design and method developments papers are equally worthy of getting cited

  1. Neese, F.
     An improvement of the resolution of the identity approximation for the formation of the Coulomb matrix
     J. Comp. Chem. 2003 24(14), 1740-1747
     doi.org/10.1002/jcc.10318
  2. Neese, F.; Wennmohs, F.; Hansen, A.; Becker, U.
     Efficient, approximate and parallel Hartree-Fock and hybrid DFT calculations. A 'chain-of-spheres' algorithm for the Hartree-Fock exchange
     Chem. Phys. 2009 356(1-3), 98-109
     doi.org/10.1016/j.chemphys.2008.10.036
  3. Bykov, D.; Petrenko, T.; Izsak, R.; Kossmann, S.; Becker, U.; Valeev, E.; Neese, F.
     Efficient implementation of the analytic second derivatives of Hartree-Fock and hybrid DFT energies: a detailed analysis of different approximations
     Molec. Phys. 2015 113 , 1961-1977
     doi.org/10.1080/00268976.2015.1025114
  4. Caldeweyher, E.; Bannwarth, C.; Grimme, S.
     Extension of the D3 dispersion coefficient model
     J. Chem. Phys. 2017 147 , 034112
     doi.org/10.1063/1.4993215
  5. Caldeweyher, E.; Ehlert, S.; Hansen, A.; Neugebauer, H.; Spicher, S.; Bannwarth, C.; Grimme, S.
     A generally applicable atomic-charge dependent London dispersion correction
     J. Chem. Phys. 2019 150 , 154122
     doi.org/10.1063/1.5090222
  6. Garcia-Rates, M.; Neese, F.
     Efficient implementation of the analytical second derivatives of hartree-fock and hybrid DFT energies within the framework of the conductor-like polarizable continuum model
     J. Comput. Chem. 2019 40 , 1816-1828
     doi.org/10.1002/jcc.25833
  7. Caldeweyher, E.; Mewes, J.; Ehlert, S.; Grimme, S.
     Extension and evaluation of the D4 London-dispersion model for periodic systems
     Phys. Chem. Chem. Phys. 2020 22(16), 8499-8512
     doi.org/10.1039/D0CP00502A
  8. Garcia-Rates, M.; Neese, F.
     Effect of the Solute Cavity on the Solvation Energy and its Derivatives within the Framework of the Gaussian Charge Scheme
     J. Comput. Chem. 2020 41 , 922-939
     doi.org/10.1002/jcc.26139
  9. Helmich-Paris, B.; de Souza, B.; Neese, F.; Izsák, R.
     An improved chain of spheres for exchange algorithm
     J. Chem. Phys. 2021 155(10), 104109
     doi.org/10.1063/5.0058766
 10. Neese, F.
     The SHARK Integral Generation and Digestion System
     J. Comp. Chem. 2022 44(3), 381
     doi.org/10.1002/jcc.26942
 11. Wittmann, L.; Gordiy, I.; Friede, M.; Helmich-Paris, B.; Grimme, S.; Hansen, A.; Bursch, M.
     Extension of the D3 and D4 London Dispersion Corrections to the full Actinides Series
     Phys. Chem. Chem. Phys. 2024 26(32), 21379-21394
     doi.org/10.1039/D4CP01514B

List of suggested additional citations. These are papers that are important in the 'surrounding' of 
of this run, or papers that preceded the highly important papers. If you like your results we are grateful for a citation.

  1. Izsak, R.; Neese, F.
     An overlap fitted chain of spheres exchange method
     J. Chem. Phys. 2011 135 , 144105
     doi.org/10.1063/1.3646921
  2. Izsak, R.; Hansen, A.; Neese, F.
     The resolution of identity and chain of spheres approximations for the LPNO-CCSD singles Fock term
     Molec. Phys. 2012 110 , 2413-2417
     doi.org/10.1080/00268976.2012.687466
  3. Neese, F.
     The ORCA program system
     WIRES Comput. Molec. Sci. 2012 2(1), 73-78
     doi.org/10.1002/wcms.81
  4. Izsak, R.; Neese, F.; Klopper, W.
     Robust fitting techniques in the chain of spheres approximation to the Fock exchange: The role of the complementary space
     J. Chem. Phys. 2013 139 , 
     doi.org/10.1063/1.4819264
  5. Neese, F.
     Software update: the ORCA program system, version 4.0
     WIRES Comput. Molec. Sci. 2018 8(1), 1-6
     doi.org/10.1002/wcms.1327
  6. Neese, F.; Wennmohs, F.; Becker, U.; Riplinger, C.
     The ORCA quantum chemistry program package
     J. Chem. Phys. 2020 152(22), 224108
     doi.org/10.1063/5.0004608
  7. Neese, F.
     Software update: The ORCA program system—Version 5.0
     WIRES Comput. Molec. Sci. 2022 12(1), e1606
     doi.org/10.1002/wcms.1606

List of optional additional citations

  1. Neese, F.
     Approximate second-order SCF convergence for spin unrestricted wavefunctions
     Chem. Phys. Lett. 2000 325(1-3), 93-98
     doi.org/10.1016/s0009-2614(00)00662-x

Timings for individual modules:

Sum of individual times          ...    19230.766 sec (= 320.513 min)
Startup calculation              ...     1678.077 sec (=  27.968 min)   8.7 %
SCF iterations                   ...    10583.962 sec (= 176.399 min)  55.0 %
Property integrals               ...     1574.337 sec (=  26.239 min)   8.2 %
SCF Response                     ...     3528.224 sec (=  58.804 min)  18.3 %
Property calculations            ...      804.133 sec (=  13.402 min)   4.2 %
SCF Gradient evaluation          ...     1051.003 sec (=  17.517 min)   5.5 %
Geometry relaxation              ...       11.031 sec (=   0.184 min)   0.1 %
                             ****ORCA TERMINATED NORMALLY****
TOTAL RUN TIME: 0 days 5 hours 26 minutes 57 seconds 456 msec
