
                                 *****************
                                 * O   R   C   A *
                                 *****************

                                            #,                                       
                                            ###                                      
                                            ####                                     
                                            #####                                    
                                            ######                                   
                                           ########,                                 
                                     ,,################,,,,,                         
                               ,,#################################,,                 
                          ,,##########################################,,             
                       ,#########################################, ''#####,          
                    ,#############################################,,   '####,        
                  ,##################################################,,,,####,       
                ,###########''''           ''''###############################       
              ,#####''   ,,,,##########,,,,          '''####'''          '####       
            ,##' ,,,,###########################,,,                        '##       
           ' ,,###''''                  '''############,,,                           
         ,,##''                                '''############,,,,        ,,,,,,###''
      ,#''                                            '''#######################'''  
     '                                                          ''''####''''         
             ,#######,   #######,   ,#######,      ##                                
            ,#'     '#,  ##    ##  ,#'     '#,    #''#        ,####,    ,#,          
            ##       ##  ##   ,#'  ##            #'  '#       #'       ,# #          
            ##       ##  #######   ##           ,######,      #####,      #          
            '#,     ,#'  ##    ##  '#,     ,#' ,#      #,     #,   #      #          
             '#######'   ##     ##  '#######'  #'      '#     '####' #    #          



                #########################################################
                #                        -***-                          #
                #          Department of theory and spectroscopy        #
                #                                                       #
                #                      Frank Neese                      #
                #                                                       #
                #     Directorship, Architecture, Infrastructure        #
                #                    SHARK, DRIVERS                     #
                #        Core code/Algorithms in most modules           #
                #                                                       #
                #        Max Planck Institute fuer Kohlenforschung      #
                #                Kaiser Wilhelm Platz 1                 #
                #                 D-45470 Muelheim/Ruhr                 #
                #                      Germany                          #
                #                                                       #
                #                  All rights reserved                  #
                #                        -***-                          #
                #########################################################


                         Program Version 6.1.0-f.0  -   RELEASE   -


 With contributions from (in alphabetic order):
[Max-Planck-Institut fuer Kohlenforschung]                               
  Daniel Aravena         : Magnetic Suceptibility                        
  Michael Atanasov       : Ab Initio Ligand Field Theory (pilot matlab implementation)
  Alexander A. Auer      : GIAO ZORA, VPT2 properties, NMR spectrum      
  Ute Becker             : All parallelization in ORCA, NUMFREQ, NUMCALC 
  Giovanni Bistoni       : ED, misc. LED, open-shell LED, HFLD           
  Dmytro Bykov           : pre 5.0 version of the SCF Hessian            
  Marcos Casanova-Páez   : Triplet and SCS-CIS(D). UHF-(DLPNO)-IP/EA/STEOM-CCSD. UHF-CVS-IP/STEOM-CCSD   
  Vijay G. Chilkuri      : MRCI spin determinant printing, contributions to CSF-ICE 
  Pauline Colinet        : FMM embedding                                 
  Dipayan Datta          : RHF DLPNO-CCSD density                        
  Achintya Kumar Dutta   : EOM-CC, STEOM-CC                              
  Nicolas Foglia         : Exact transition moments, OPA infrastructure, MCD improvements    
  Dmitry Ganyushin       : Spin-Orbit,Spin-Spin,Magnetic field MRCI      
  Miquel Garcia-Rates    : C-PCM and meta-GGA Hessian, CCSD/C-PCM, Gaussian charge scheme 
  Tiago L. C. Gouveia    : GS-ROHF, GS-ROCIS                             
  Yang Guo               : DLPNO-NEVPT2, F12-NEVPT2, CIM, IAO-localization        
  Andreas Hansen         : Spin unrestricted coupled pair/coupled cluster methods 
  Ingolf Harden          : AUTO-CI MPn and infrastructure                
  Benjamin Helmich-Paris : MC-RPA, TRAH-(SCF,CASSCF), AVAS, COSX integrals, SCF dyn. polar., MC-PDFT, srDFT 
  Lee Huntington         : MR-EOM, pCC                                   
  Robert Izsak           : Overlap fitted RIJCOSX, COSX-SCS-MP3, EOM     
  Riya Kayal             : Wick's Theorem for AUTO-CI, AUTO-CI UHF-CCSDT 
  Emily Kempfer          : AUTO-CI RHF CISDT and CCSDT, approximate NEVPT4
  Christian Kollmar      : KDIIS, OOCD, Brueckner-CCSD(T), CCSD density, CASPT2, CASPT2-K, improved NEVPT2 
  Axel Koslowski         : Symmetry handling                             
  Simone Kossmann        : meta-GGA functionals, TD-DFT gradient, OOMP2, (MP2 Hessian; deprecated post 5.0) 
  Lucas Lang             : DCDCAS, Hyperfine gauge corrections, ICE-SOC+SSC
  Marvin Lechner         : AUTO-CI (C++ implementation), FIC-MRCC        
  Spencer Leger          : CASSCF response                               
  Dagmar Lenk            : GEPOL surface, SMD, ORCA-2-JSON               
  Dimitrios Liakos       : Extrapolation schemes; Compound Job, Property file
  Dimitrios Manganas     : Further ROCIS development; embedding schemes. LFT, Crystal Embedding 
  Dimitrios Pantazis     : SARC Basis sets                               
  Anastasios Papadopoulos: AUTO-CI, single reference methods and gradients 
  Taras Petrenko         : pre 6.0 DFT Hessian and TD-DFT gradient,  ECA, NRVS 
  Petra Pikulova         : Analytic Raman intensities                    
  Peter Pinski           : DLPNO-MP2, DLPNO-MP2 Gradient                 
  Shashank Vittal Rao    : ES-AILFT, MagRelax                            
  Christoph Reimann      : Effective Core Potentials                     
  Marius Retegan         : Local ZFS, SOC                                
  Christoph Riplinger    : Optimizer, TS searches, QM/MM, DLPNO-CCSD(T), (RO)-DLPNO pert. Triples 
  Michael Roemelt        : Original ROCIS implementation, recursive CI coupling coefficients
  Masaaki Saitow         : Open-shell DLPNO-CCSD energy and density      
  Barbara Sandhoefer     : DKH picture change effects                    
  Yorick L. A. Schmerwitz: GMF and freeze-and-release deltaSCF, NEB S-IDPP initial path                    
  Kantharuban Sivalingam : CASSCF convergence/infrastructure, NEVPT2, NEVPT3, NEVPT4(SD), FIC-MRCI and CEPA variants
  Bernardo de Souza      : ESD, SOC TD-DFT                               
  Georgi L. Stoychev     : AutoAux, RI-MP2 NMR, DLPNO-MP2 response, X2C  
  Van Anh Tran           : RI-MP2 g-tensors                              
  Willem Van den Heuvel  : Paramagnetic NMR                              
  Zikuan Wang            : NOTCH, Electric field optimization            
  Frank Wennmohs         : Technical directorship and infrastructure     
  Hang Xu                : AUTO-CI-Response properties                   
                                                                         
[FACCTs GmbH]                                                            
  Markus Bursch, Nicolas Foglia, Miquel Garcia-Rates, Ingolf Harden, Hagen Neugebauer, Anastasios Papadopoulos, 
  Christoph Riplinger, Bernardo de Souza, Georgi L. Stoychev                                                    
                                                                 
  APM, various basis sets, CI-OPT, improved COSX, DLPNO-Multilevel,           
  DOCKER, DRACO, updates on ESD, Fragmentator, GOAT, IRC, LR-CPCM, L-BFGS, MBIS, meta-GGA TD-DFT gradient, ML-optimized integration grids, 
  MM, NACMEs, nearIR, NEB, NEB-TS, NL-DFT gradient (VV10), 2- and 3-layer-ONIOM, interface openCOSMO-RS, QMMM,   
  Crystal-QMMM, RESP, rigid body optimization, SF, symmetry and pop. for TD-DFT, various functionals, SOLVATOR                                   
                                                                         
[Other institutions]                                                     
  V. Asgeirsson          : NEB                                           
  Christoph Bannwarth    : sTDA-DFT, sTD-DFT, PBEh-3c, B97-3c, D3        
  Giovanni Bistoni       : ETS/NOCV, ADLD/ADEX, COVALED                  
  Martin Brehm           : Molecular dynamics                            
  Ronald Cardenas        : ETS/NOCV                                      
  Martina Colucci        : COVALED                                       
  Sebastian Ehlert       : rSCAN, r2SCAN, r2SCAN-3c, D4, dhf basis sets  
  Marvin Friede          : D4 for Fr, Ra, Ac-Lr                          
  Lars Goerigk           : TD-DFT with DH, B97 family of functionals     
  Stefan Grimme          : VdW corrections, initial TS optimization, DFT functionals, gCP, sTDA/sTD-DF 
  Waldemar Hujo          : DFT-NL                                        
  H. Jonsson             : NEB                                           
  Holger Kruse           : gCP                                           
  Marcel Mueller         : wB97X-3c, vDZP basis set                      
  Hagen Neugebauer       : wr2SCAN, Native XTB                           
  Gianluca Regni         : ADLD/ADEX                                     
  Tobias Risthaus        : pre 6.0 range-separated hybrid DFT and stability analysis
  Lukas Wittmann         : regularized MP2, r2SCAN double-hybrids, wr2SCAN        
                                                                         
We gratefully acknowledge several colleagues who have allowed us to      
interface, adapt or use parts of their codes:                            
  Ed Valeev, F. Pavosevic, A. Kumar             : LibInt (2-el integral package), F12 methods 
  Garnet Chan, S. Sharma, J. Yang, R. Olivares  : DMRG                   
  Ulf Ekstrom                                   : XCFun DFT Library      
  Mihaly Kallay                                 : mrcc  (arbitrary order and MRCC methods)
  Frank Weinhold                                : gennbo (NPA and NBO analysis)           
  Simon Mueller                                 : openCOSMO-RS                            
  Christopher J. Cramer and Donald G. Truhlar   : smd solvation model                     
  S Lehtola, MJT Oliveira, MAL Marques          : LibXC Library                           
  Liviu Ungur et al                             : ANISO software                          


 Your calculation uses the libint2 library for the computation of 2-el integrals
 For citations please refer to: http://libint.valeyev.net

 Your ORCA version has been built with support for libXC version: 7.0.0
 For citations please refer to: https://libxc.gitlab.io

 This ORCA versions uses:
   CBLAS   interface :  Fast vector & matrix operations
   LAPACKE interface :  Fast linear algebra routines
   SCALAPACK package :  Parallel linear algebra routines
   Shared memory     :  Shared parallel matrices
   BLAS/LAPACK       :  OpenBLAS 0.3.29  USE64BITINT DYNAMIC_ARCH NO_AFFINITY Cooperlake SINGLE_THREADED
        Core in use  :  Cooperlake
   Copyright (c) 2011-2014, The OpenBLAS Project


  ***********************************
  * Starting time: Sat Feb 28 13:53:42 2026
  * Host name:     c09b01n01
  * Process ID:    1646266
  * Working dir.:  /lustre1/jiangy/jiangy_liuxy/NMR/B9D7C2-SRSS
  ***********************************

NOTE: MaxCore=6000 MB was set to SCF,MP2,MDCI,CIPSI,MRCI,RASCI and CIS
      => If you want to overwrite this, your respective input block should be placed after the MaxCore statement


***************************************
The coordinates will be read from file: conf-3.xyz
***************************************


Your calculation utilizes the atom-pairwise dispersion correction
based on EEQ partial charges (D4)


Warning: RI is on but no J-basis has been assigned. Assigning Def2/J (nothing to worry about!)
================================================================================

----- Orbital basis set information -----
Your calculation utilizes the basis: def2-TZVP
   F. Weigend and R. Ahlrichs, Phys. Chem. Chem. Phys. 7, 3297 (2005).

----- AuxJ basis set information -----
Your calculation utilizes the auxiliary basis: def2/J
   H-Rn: F. Weigend, Phys. Chem. Chem. Phys. 8, 1057 (2006).
   Fr-Lr: K. Eichkorn, F. Weigend, O. Treutler, R. Ahlrichs; Theor. Chem. Acc. 97, 119 (1997).

================================================================================
                                        WARNINGS
                       Please study these warnings very carefully!
================================================================================


WARNING: Geometry Optimization
  ===> : Switching off AutoStart
         For restart on a previous wavefunction, please use MOREAD

================================================================================
                                       INPUT FILE
================================================================================
NAME = opt-conf-3.inp
|  1> ! B3LYP OPT FREQ DEF2-TZVP D4 CPCM(Methanol) 
|  2> ! TightOpt
|  3> %pal nprocs 64 end
|  4> %maxcore 6000
|  5> 
|  6> %cpcm
|  7> end
|  8> 
|  9> %freq
| 10>    Temp 298.15
| 11> end
| 12> 
| 13> * xyzfile 0 1 conf-3.xyz
| 14> 
| 15> 
| 16>                          ****END OF INPUT****
================================================================================

                       *****************************
                       * Geometry Optimization Run *
                       *****************************

Geometry optimization settings:
Update method            Update   .... BFGS
Choice of coordinates    CoordSys .... (2022) Redundant Internals
Initial Hessian          InHess   .... Almloef's Model
Max. no of cycles        MaxIter  .... 246

Convergence Tolerances:
Energy Change            TolE     ....  1.0000e-06 Eh
Max. Gradient            TolMAXG  ....  1.0000e-04 Eh/bohr
RMS Gradient             TolRMSG  ....  3.0000e-05 Eh/bohr
Max. Displacement        TolMAXD  ....  1.0000e-03 bohr
RMS Displacement         TolRMSD  ....  6.0000e-04 bohr
Strict Convergence                .... False

------------------------------------------------------------------------------
                        ORCA OPTIMIZATION COORDINATE SETUP
------------------------------------------------------------------------------

The optimization will be done in redundant internal coordinates (2022)
Making redundant internal coordinates   ...  (2022 redundants) done
Evaluating the initial hessian          ...  (Almloef) done
Evaluating the coordinates              ...  done
Calculating the B-matrix                .... done
Calculating the G-matrix                .... done
The number of degrees of freedom        ....  406

    -----------------------------------------------------------------
                    Redundant Internal Coordinates


    -----------------------------------------------------------------
         Definition                    Initial Value    Approx d2E/dq
    -----------------------------------------------------------------
      1. B(C   1,C   0)                  1.4028         0.596123   
      2. B(C   2,C   1)                  1.4005         0.601184   
      3. B(C   3,C   2)                  1.3883         0.628681   
      4. B(C   4,C   3)                  1.3862         0.633500   
      5. B(C   5,C   4)                  1.3858         0.634573   
      6. B(C   5,C   0)                  1.3864         0.633015   
      7. B(C   6,C   4)                  1.5027         0.412945   
      8. B(C   7,C   6)                  1.5366         0.364645   
      9. B(C   8,C   7)                  1.5378         0.362969   
     10. B(C   9,C   8)                  1.5363         0.365087   
     11. B(C  10,C   9)                  1.5030         0.412461   
     12. B(C  11,C  10)                  1.3934         0.616991   
     13. B(C  12,C  11)                  1.3816         0.644291   
     14. B(C  13,C  12)                  1.4049         0.591573   
     15. B(C  14,C  13)                  1.3822         0.642900   
     16. B(C  15,C  10)                  1.3859         0.634342   
     17. B(C  15,C  14)                  1.3861         0.633858   
     18. B(C  16,C   7)                  1.5359         0.365547   
     19. B(C  17,C   8)                  1.5347         0.367216   
     20. B(O  18,C   2)                  1.3673         0.608179   
     21. B(O  19,C   0)                  1.3682         0.606332   
     22. B(O  20,C   1)                  1.3747         0.591929   
     23. B(O  21,C  13)                  1.3622         0.619688   
     24. B(O  22,C  12)                  1.3795         0.581655   
     25. B(C  23,O  20)                  1.4163         0.508108   
     26. B(C  24,C  23)                  1.5552         0.340571   
     27. B(C  25,C  24)                  1.5154         0.394124   
     28. B(C  26,C  23)                  1.5368         0.364360   
     29. B(O  27,C  26)                  1.3971         0.545112   
     30. B(C  28,C  25)                  1.3930         0.617862   
     31. B(C  29,C  28)                  1.3811         0.645576   
     32. B(C  30,C  29)                  1.4037         0.594111   
     33. B(C  31,C  30)                  1.3809         0.646113   
     34. B(C  32,C  31)                  1.3848         0.636879   
     35. B(C  32,C  25)                  1.3832         0.640595   
     36. B(C  33,O  19)                  1.4068         0.526021   
     37. B(C  34,O  18)                  1.4086         0.522657   
     38. B(C  35,O  22)                  1.4078         0.524246   
     39. B(O  36,C  24)                  1.4065         0.526624   
     40. B(O  37,C  16)                  1.4048         0.530048   
     41. B(O  38,C  17)                  1.4086         0.522722   
     42. B(O  39,C  29)                  1.3733         0.595034   
     43. B(O  40,C  30)                  1.3684         0.605739   
     44. B(C  41,O  39)                  1.4085         0.522787   
     45. B(H  42,C   3)                  1.0776         0.376916   
     46. B(H  43,C   5)                  1.0778         0.376540   
     47. B(H  44,C   6)                  1.0905         0.359448   
     48. B(H  45,C   6)                  1.0904         0.359570   
     49. B(H  46,C   7)                  1.0966         0.351475   
     50. B(H  47,C   8)                  1.0968         0.351166   
     51. B(H  48,C   9)                  1.0939         0.354935   
     52. B(H  49,C   9)                  1.0917         0.357893   
     53. B(H  50,C  11)                  1.0772         0.377424   
     54. B(H  51,C  14)                  1.0786         0.375504   
     55. B(H  52,C  15)                  1.0803         0.373133   
     56. B(H  53,C  16)                  1.0983         0.349299   
     57. B(H  54,C  16)                  1.0933         0.355714   
     58. B(H  55,C  17)                  1.0985         0.349022   
     59. B(H  56,C  17)                  1.0919         0.357633   
     60. B(H  57,O  21)                  0.9671         0.506615   
     61. B(H  57,O  22)                  2.1128         0.010000   
     62. B(H  58,C  23)                  1.0949         0.353711   
     63. B(H  59,C  24)                  1.0980         0.349633   
     64. B(H  60,C  26)                  1.0936         0.355350   
     65. B(H  61,C  26)                  1.1037         0.342480   
     66. B(H  62,O  36)                  1.9385         0.014281   
     67. B(H  62,O  27)                  0.9714         0.498676   
     68. B(H  63,C  28)                  1.0782         0.375985   
     69. B(H  64,C  31)                  1.0780         0.376302   
     70. B(H  65,C  32)                  1.0783         0.375921   
     71. B(H  66,C  33)                  1.0950         0.353593   
     72. B(H  67,C  33)                  1.0888         0.361686   
     73. B(H  68,C  33)                  1.0936         0.355310   
     74. B(H  69,C  34)                  1.0940         0.354811   
     75. B(H  70,C  34)                  1.0895         0.360735   
     76. B(H  71,C  34)                  1.0947         0.353971   
     77. B(H  72,C  35)                  1.0888         0.361707   
     78. B(H  73,H  64)                  4.9134         0.010000   
     79. B(H  73,C  35)                  1.0940         0.354856   
     80. B(H  74,C  35)                  1.0940         0.354862   
     81. B(H  75,O  20)                  2.2480         0.010000   
     82. B(H  75,O  19)                  2.0269         0.010322   
     83. B(H  75,O  36)                  0.9759         0.490500   
     84. B(H  76,O  40)                  1.9519         0.013598   
     85. B(H  76,O  37)                  0.9704         0.500480   
     86. B(H  77,O  38)                  0.9640         0.512354   
     87. B(H  78,O  39)                  2.1011         0.010000   
     88. B(H  78,O  40)                  0.9688         0.503483   
     89. B(H  79,H  71)                  2.4973         0.010000   
     90. B(H  79,C  41)                  1.0931         0.355959   
     91. B(H  80,C  41)                  1.0943         0.354467   
     92. B(H  81,O  21)                  2.3665         0.010000   
     93. B(H  81,C  41)                  1.0887         0.361875   
     94. A(C   1,C   0,O  19)          114.5562         0.426491   
     95. A(C   5,C   0,O  19)          124.8588         0.431109   
     96. A(C   1,C   0,C   5)          120.5748         0.432624   
     97. A(C   0,C   1,O  20)          116.2378         0.424660   
     98. A(C   0,C   1,C   2)          119.2419         0.428635   
     99. A(C   2,C   1,O  20)          124.3717         0.425302   
    100. A(C   3,C   2,O  18)          123.6483         0.430813   
    101. A(C   1,C   2,C   3)          119.2167         0.432748   
    102. A(C   1,C   2,O  18)          117.1349         0.427370   
    103. A(C   4,C   3,H  42)          118.3823         0.356952   
    104. A(C   2,C   3,H  42)          120.3018         0.356490   
    105. A(C   2,C   3,C   4)          121.3086         0.436845   
    106. A(C   5,C   4,C   6)          121.4172         0.405401   
    107. A(C   3,C   4,C   6)          118.9544         0.405280   
    108. A(C   3,C   4,C   5)          119.6121         0.437581   
    109. A(C   4,C   5,H  43)          119.2764         0.356995   
    110. A(C   0,C   5,H  43)          120.7467         0.356845   
    111. A(C   0,C   5,C   4)          119.9767         0.437520   
    112. A(C   4,C   6,H  44)          108.6538         0.329618   
    113. A(C   7,C   6,H  45)          109.8019         0.322956   
    114. A(C   4,C   6,C   7)          110.8080         0.368112   
    115. A(H  44,C   6,H  45)          108.2408         0.290689   
    116. A(C   4,C   6,H  45)          110.3325         0.329636   
    117. A(C   7,C   6,H  44)          108.9444         0.322938   
    118. A(C   6,C   7,C  16)          110.6679         0.360515   
    119. A(C   8,C   7,C  16)          110.3371         0.360232   
    120. A(C  16,C   7,H  46)          106.7174         0.321883   
    121. A(C   8,C   7,H  46)          106.7998         0.321511   
    122. A(C   6,C   7,H  46)          107.8030         0.321753   
    123. A(C   6,C   7,C   8)          114.1397         0.360080   
    124. A(C   7,C   8,C  17)          113.6031         0.360512   
    125. A(C  17,C   8,H  47)          107.0327         0.322077   
    126. A(C   7,C   8,C   9)          111.9875         0.360155   
    127. A(C   9,C   8,H  47)          108.5765         0.321771   
    128. A(C   7,C   8,H  47)          105.9552         0.321464   
    129. A(C   9,C   8,C  17)          109.4012         0.360869   
    130. A(H  48,C   9,H  49)          107.0906         0.289901   
    131. A(C  10,C   9,H  48)          109.3598         0.328867   
    132. A(C  10,C   9,H  49)          109.1019         0.329318   
    133. A(C   8,C   9,C  10)          114.0555         0.368114   
    134. A(C   8,C   9,H  48)          107.7604         0.322334   
    135. A(C   8,C   9,H  49)          109.2408         0.322772   
    136. A(C   9,C  10,C  11)          120.5379         0.403312   
    137. A(C  11,C  10,C  15)          118.6743         0.435475   
    138. A(C   9,C  10,C  15)          120.7828         0.405291   
    139. A(C  10,C  11,C  12)          120.7625         0.436698   
    140. A(C  10,C  11,H  50)          119.3063         0.355437   
    141. A(C  12,C  11,H  50)          119.9312         0.358061   
    142. A(C  11,C  12,C  13)          119.9868         0.433403   
    143. A(C  13,C  12,O  22)          114.5361         0.422753   
    144. A(C  11,C  12,O  22)          125.4771         0.429264   
    145. A(C  12,C  13,O  21)          120.2169         0.427572   
    146. A(C  12,C  13,C  14)          119.2681         0.433234   
    147. A(C  14,C  13,O  21)          120.5149         0.434008   
    148. A(C  13,C  14,H  51)          118.6604         0.357619   
    149. A(C  13,C  14,C  15)          120.1418         0.438655   
    150. A(C  15,C  14,H  51)          121.1945         0.356759   
    151. A(C  14,C  15,H  52)          119.0980         0.356376   
    152. A(C  10,C  15,H  52)          119.7546         0.356422   
    153. A(C  10,C  15,C  14)          121.1338         0.437596   
    154. A(O  37,C  16,H  54)          105.7975         0.340914   
    155. A(C   7,C  16,H  54)          110.7083         0.322516   
    156. A(O  37,C  16,H  53)          110.8611         0.339879   
    157. A(C   7,C  16,H  53)          108.7073         0.321556   
    158. A(C   7,C  16,O  37)          112.3943         0.382071   
    159. A(H  53,C  16,H  54)          108.2857         0.288898   
    160. A(O  38,C  17,H  56)          105.1069         0.340428   
    161. A(C   8,C  17,O  38)          112.2069         0.381450   
    162. A(H  55,C  17,H  56)          108.4040         0.289105   
    163. A(C   8,C  17,H  56)          110.8705         0.323042   
    164. A(O  38,C  17,H  55)          110.0782         0.339045   
    165. A(C   8,C  17,H  55)          110.0149         0.321754   
    166. A(C   2,O  18,C  34)          118.1454         0.414121   
    167. A(C   0,O  19,C  33)          118.5411         0.414369   
    168. A(C   1,O  20,C  23)          118.8207         0.410076   
    169. A(C  13,O  21,H  57)          107.5174         0.368435   
    170. A(C  12,O  22,C  35)          118.0614         0.411077   
    171. A(C  26,C  23,H  58)          108.1965         0.322046   
    172. A(C  24,C  23,H  58)          110.0429         0.318512   
    173. A(O  20,C  23,H  58)          110.7002         0.338197   
    174. A(C  24,C  23,C  26)          111.1997         0.356153   
    175. A(O  20,C  23,C  26)          107.2889         0.379067   
    176. A(O  20,C  23,C  24)          109.3774         0.374667   
    177. A(C  23,C  24,O  36)          109.5783         0.376991   
    178. A(O  36,C  24,H  59)          106.1594         0.339565   
    179. A(C  25,C  24,H  59)          108.9179         0.325603   
    180. A(C  23,C  24,H  59)          108.5135         0.317910   
    181. A(C  25,C  24,O  36)          113.1060         0.386670   
    182. A(C  23,C  24,C  25)          110.3867         0.360944   
    183. A(C  28,C  25,C  32)          119.4741         0.436356   
    184. A(C  24,C  25,C  32)          121.4310         0.402748   
    185. A(C  24,C  25,C  28)          119.0945         0.400192   
    186. A(O  27,C  26,H  61)          110.5122         0.340351   
    187. A(H  60,C  26,H  61)          108.5763         0.287962   
    188. A(C  23,C  26,H  61)          107.4283         0.320350   
    189. A(O  27,C  26,H  60)          106.6957         0.342459   
    190. A(C  23,C  26,H  60)          108.8141         0.322290   
    191. A(C  23,C  26,O  27)          114.6751         0.383719   
    192. A(C  26,O  27,H  62)          108.0577         0.359473   
    193. A(C  29,C  28,H  63)          120.3131         0.357950   
    194. A(C  25,C  28,H  63)          119.3112         0.355292   
    195. A(C  25,C  28,C  29)          120.3750         0.436965   
    196. A(C  30,C  29,O  39)          114.6447         0.424800   
    197. A(C  28,C  29,O  39)          125.7337         0.431174   
    198. A(C  28,C  29,C  30)          119.6212         0.433892   
    199. A(C  31,C  30,O  40)          120.4583         0.432623   
    200. A(C  29,C  30,O  40)          119.7456         0.426158   
    201. A(C  29,C  30,C  31)          119.7891         0.433957   
    202. A(C  32,C  31,H  64)          120.8008         0.357176   
    203. A(C  30,C  31,H  64)          119.1125         0.358051   
    204. A(C  30,C  31,C  32)          120.0839         0.439427   
    205. A(C  31,C  32,H  65)          119.7570         0.357115   
    206. A(C  25,C  32,H  65)          119.7101         0.357468   
    207. A(C  25,C  32,C  31)          120.5260         0.438748   
    208. A(H  67,C  33,H  68)          109.3049         0.290429   
    209. A(H  66,C  33,H  68)          109.4793         0.289400   
    210. A(O  19,C  33,H  68)          111.4850         0.340415   
    211. A(H  66,C  33,H  67)          109.3926         0.290208   
    212. A(O  19,C  33,H  67)          105.5793         0.341429   
    213. A(O  19,C  33,H  66)          111.5027         0.340140   
    214. A(H  69,C  34,H  71)          109.3548         0.289385   
    215. A(O  18,C  34,H  71)          111.7133         0.339836   
    216. A(H  69,C  34,H  70)          109.0804         0.290245   
    217. A(O  18,C  34,H  70)          105.5408         0.340913   
    218. A(O  18,C  34,H  69)          111.3645         0.339971   
    219. A(H  70,C  34,H  71)          109.6940         0.290137   
    220. A(H  73,C  35,H  74)          109.6984         0.289504   
    221. A(H  72,C  35,H  74)          109.2889         0.290374   
    222. A(O  22,C  35,H  74)          111.3079         0.340151   
    223. A(H  72,C  35,H  73)          109.4779         0.290373   
    224. A(O  22,C  35,H  73)          111.3706         0.340150   
    225. A(O  22,C  35,H  72)          105.5962         0.341240   
    226. A(C  24,O  36,H  75)          107.1975         0.356367   
    227. A(C  16,O  37,H  76)          108.0271         0.357983   
    228. A(C  17,O  38,H  77)          108.4280         0.358564   
    229. A(C  29,O  39,C  41)          118.3324         0.412535   
    230. A(C  30,O  40,H  78)          107.4766         0.366609   
    231. A(H  80,C  41,H  81)          109.9558         0.290344   
    232. A(H  79,C  41,H  81)          109.4273         0.290536   
    233. A(O  39,C  41,H  81)          105.3341         0.341107   
    234. A(H  79,C  41,H  80)          109.4339         0.289595   
    235. A(O  39,C  41,H  80)          111.0992         0.339930   
    236. A(O  39,C  41,H  79)          111.5124         0.340168   
    237. D(O  20,C   1,C   0,O  19)     -7.9682         0.024481   
    238. D(C   2,C   1,C   0,O  19)    176.2696         0.024481   
    239. D(C   2,C   1,C   0,C   5)     -2.6265         0.024481   
    240. D(O  20,C   1,C   0,C   5)    173.1357         0.024481   
    241. D(O  18,C   2,C   1,C   0)   -178.9198         0.024921   
    242. D(C   3,C   2,C   1,C   0)      0.9630         0.024921   
    243. D(C   3,C   2,C   1,O  20)   -174.4309         0.024921   
    244. D(O  18,C   2,C   1,O  20)      5.6863         0.024921   
    245. D(C   4,C   3,C   2,C   1)      1.4345         0.027397   
    246. D(H  42,C   3,C   2,O  18)      0.3097         0.027397   
    247. D(C   4,C   3,C   2,O  18)   -178.6908         0.027397   
    248. D(H  42,C   3,C   2,C   1)   -179.5649         0.027397   
    249. D(C   6,C   4,C   3,H  42)      0.2404         0.027846   
    250. D(C   5,C   4,C   3,H  42)    178.7934         0.027846   
    251. D(C   5,C   4,C   3,C   2)     -2.1874         0.027846   
    252. D(C   6,C   4,C   3,C   2)    179.2596         0.027846   
    253. D(H  43,C   5,C   4,C   6)     -0.8220         0.027946   
    254. D(H  43,C   5,C   4,C   3)   -179.3384         0.027946   
    255. D(C   0,C   5,C   4,C   3)      0.5025         0.027946   
    256. D(C   4,C   5,C   0,O  19)   -176.8794         0.027800   
    257. D(H  43,C   5,C   0,C   1)   -178.2644         0.027800   
    258. D(H  43,C   5,C   0,O  19)      2.9592         0.027800   
    259. D(C   0,C   5,C   4,C   6)    179.0189         0.027946   
    260. D(C   4,C   5,C   0,C   1)      1.8970         0.027800   
    261. D(H  45,C   6,C   4,C   3)   -162.5414         0.012623   
    262. D(H  44,C   6,C   4,C   5)    137.4492         0.012623   
    263. D(H  44,C   6,C   4,C   3)    -44.0249         0.012623   
    264. D(C   7,C   6,C   4,C   5)   -102.8911         0.012623   
    265. D(C   7,C   6,C   4,C   3)     75.6349         0.012623   
    266. D(C   8,C   7,C   6,H  44)    -37.7269         0.010649   
    267. D(C   8,C   7,C   6,C   4)   -157.2123         0.010649   
    268. D(C  16,C   7,C   6,H  45)    -44.5233         0.010649   
    269. D(C  16,C   7,C   6,H  44)   -162.9036         0.010649   
    270. D(C   8,C   7,C   6,H  45)     80.6535         0.010649   
    271. D(C  16,C   7,C   6,C   4)     77.6109         0.010649   
    272. D(C  17,C   8,C   7,H  46)   -165.1685         0.010558   
    273. D(C  17,C   8,C   7,C  16)     79.2145         0.010558   
    274. D(C  17,C   8,C   7,C   6)    -46.1373         0.010558   
    275. D(C   9,C   8,C   7,C  16)   -156.2183         0.010558   
    276. D(C   9,C   8,C   7,H  46)    -40.6012         0.010558   
    277. D(C   9,C   8,C   7,C   6)     78.4300         0.010558   
    278. D(H  48,C   9,C   8,C  17)    -55.3609         0.010673   
    279. D(H  48,C   9,C   8,C   7)    177.7690         0.010673   
    280. D(C  10,C   9,C   8,H  47)    -60.4874         0.010673   
    281. D(C  10,C   9,C   8,C  17)   -176.9737         0.010673   
    282. D(H  48,C   9,C   8,H  47)     61.1253         0.010673   
    283. D(C  10,C   9,C   8,C   7)     56.1563         0.010673   
    284. D(C  15,C  10,C   9,H  48)    110.3492         0.012595   
    285. D(C  15,C  10,C   9,C   8)   -128.9259         0.012595   
    286. D(C  11,C  10,C   9,H  49)    174.3486         0.012595   
    287. D(C  11,C  10,C   9,H  48)    -68.8221         0.012595   
    288. D(C  11,C  10,C   9,C   8)     51.9028         0.012595   
    289. D(H  50,C  11,C  10,C  15)   -179.9958         0.026326   
    290. D(H  50,C  11,C  10,C   9)     -0.8072         0.026326   
    291. D(C  12,C  11,C  10,C  15)      0.1254         0.026326   
    292. D(C  12,C  11,C  10,C   9)    179.3140         0.026326   
    293. D(O  22,C  12,C  11,H  50)     -1.5902         0.028868   
    294. D(C  13,C  12,C  11,H  50)    178.4691         0.028868   
    295. D(O  22,C  12,C  11,C  10)    178.2879         0.028868   
    296. D(C  13,C  12,C  11,C  10)     -1.6528         0.028868   
    297. D(O  21,C  13,C  12,C  11)   -178.0018         0.024090   
    298. D(C  14,C  13,C  12,O  22)   -178.0577         0.024090   
    299. D(C  14,C  13,C  12,C  11)      1.8892         0.024090   
    300. D(O  21,C  13,C  12,O  22)      2.0512         0.024090   
    301. D(H  51,C  14,C  13,O  21)     -0.0702         0.028735   
    302. D(H  51,C  14,C  13,C  12)   -179.9609         0.028735   
    303. D(C  15,C  14,C  13,O  21)    179.2790         0.028735   
    304. D(C  15,C  14,C  13,C  12)     -0.6117         0.028735   
    305. D(H  52,C  15,C  14,H  51)     -0.2512         0.027879   
    306. D(H  52,C  15,C  14,C  13)   -179.5836         0.027879   
    307. D(C  10,C  15,C  14,H  51)    178.4033         0.027879   
    308. D(C  10,C  15,C  14,C  13)     -0.9291         0.027879   
    309. D(H  52,C  15,C  10,C  11)    179.8210         0.027925   
    310. D(H  52,C  15,C  10,C   9)      0.6345         0.027925   
    311. D(C  14,C  15,C  10,C  11)      1.1753         0.027925   
    312. D(C  14,C  15,C  10,C   9)   -178.0112         0.027925   
    313. D(H  53,C  16,C   7,H  46)     68.8477         0.010698   
    314. D(H  53,C  16,C   7,C   8)   -175.4836         0.010698   
    315. D(H  53,C  16,C   7,C   6)    -48.1848         0.010698   
    316. D(O  37,C  16,C   7,H  46)    -54.2565         0.010698   
    317. D(O  37,C  16,C   7,C   8)     61.4123         0.010698   
    318. D(O  37,C  16,C   7,C   6)   -171.2890         0.010698   
    319. D(H  55,C  17,C   8,H  47)     70.9026         0.010790   
    320. D(H  55,C  17,C   8,C   9)   -171.6370         0.010790   
    321. D(H  55,C  17,C   8,C   7)    -45.6876         0.010790   
    322. D(O  38,C  17,C   8,H  47)    -52.0091         0.010790   
    323. D(O  38,C  17,C   8,C   9)     65.4513         0.010790   
    324. D(O  38,C  17,C   8,C   7)   -168.5993         0.010790   
    325. D(C  34,O  18,C   2,C   3)      3.9089         0.027064   
    326. D(C  34,O  18,C   2,C   1)   -176.2140         0.027064   
    327. D(C  33,O  19,C   0,C   5)     -3.0753         0.029669   
    328. D(C  33,O  19,C   0,C   1)    178.0830         0.029669   
    329. D(C  23,O  20,C   1,C   2)    -58.4812         0.028179   
    330. D(C  23,O  20,C   1,C   0)    125.9992         0.028179   
    331. D(H  57,O  21,C  13,C  14)   -178.8289         0.031093   
    332. D(H  57,O  21,C  13,C  12)      1.0608         0.031093   
    333. D(C  35,O  22,C  12,C  13)    178.7028         0.027146   
    334. D(C  35,O  22,C  12,C  11)     -1.2408         0.027146   
    335. D(H  58,C  23,O  20,C   1)     53.3787         0.022171   
    336. D(C  26,C  23,O  20,C   1)    171.2339         0.022171   
    337. D(C  24,C  23,O  20,C   1)    -68.0393         0.022171   
    338. D(O  36,C  24,C  23,H  58)   -171.6824         0.010000   
    339. D(O  36,C  24,C  23,C  26)     68.4473         0.010000   
    340. D(O  36,C  24,C  23,O  20)    -49.8679         0.010000   
    341. D(C  25,C  24,C  23,H  58)    -46.4761         0.010000   
    342. D(C  25,C  24,C  23,C  26)   -166.3465         0.010000   
    343. D(C  25,C  24,C  23,O  20)     75.3383         0.010000   
    344. D(C  32,C  25,C  24,O  36)      2.6867         0.011544   
    345. D(C  32,C  25,C  24,C  23)   -120.4902         0.011544   
    346. D(C  28,C  25,C  24,H  59)    -59.7533         0.011544   
    347. D(C  28,C  25,C  24,O  36)   -177.5340         0.011544   
    348. D(C  28,C  25,C  24,C  23)     59.2891         0.011544   
    349. D(H  60,C  26,C  23,H  58)     62.6251         0.010633   
    350. D(H  60,C  26,C  23,C  24)   -176.4142         0.010633   
    351. D(H  60,C  26,C  23,O  20)    -56.8474         0.010633   
    352. D(O  27,C  26,C  23,H  58)   -177.9996         0.010633   
    353. D(O  27,C  26,C  23,C  24)    -57.0388         0.010633   
    354. D(O  27,C  26,C  23,O  20)     62.5280         0.010633   
    355. D(H  62,O  27,C  26,H  61)    -86.1088         0.023661   
    356. D(H  62,O  27,C  26,H  60)    156.0310         0.023661   
    357. D(H  62,O  27,C  26,C  23)     35.4790         0.023661   
    358. D(H  63,C  28,C  25,C  32)   -176.5361         0.026405   
    359. D(H  63,C  28,C  25,C  24)      3.6803         0.026405   
    360. D(C  29,C  28,C  25,C  32)      3.7665         0.026405   
    361. D(C  29,C  28,C  25,C  24)   -176.0172         0.026405   
    362. D(C  30,C  29,C  28,H  63)    178.6028         0.028991   
    363. D(C  30,C  29,C  28,C  25)     -1.7027         0.028991   
    364. D(O  39,C  29,C  28,H  63)     -1.1510         0.028991   
    365. D(O  39,C  29,C  28,C  25)    178.5434         0.028991   
    366. D(O  40,C  30,C  29,O  39)     -0.8900         0.024307   
    367. D(O  40,C  30,C  29,C  28)    179.3298         0.024307   
    368. D(C  31,C  30,C  29,O  39)    178.1596         0.024307   
    369. D(C  31,C  30,C  29,C  28)     -1.6206         0.024307   
    370. D(H  64,C  31,C  30,O  40)      2.5152         0.029042   
    371. D(H  64,C  31,C  30,C  29)   -176.5274         0.029042   
    372. D(C  32,C  31,C  30,O  40)   -178.0913         0.029042   
    373. D(C  32,C  31,C  30,C  29)      2.8660         0.029042   
    374. D(H  65,C  32,C  31,H  64)     -0.4412         0.028163   
    375. D(H  65,C  32,C  31,C  30)   -179.8243         0.028163   
    376. D(C  25,C  32,C  31,H  64)    178.5930         0.028163   
    377. D(C  25,C  32,C  31,C  30)     -0.7901         0.028163   
    378. D(H  65,C  32,C  25,C  28)    176.5119         0.028515   
    379. D(H  65,C  32,C  25,C  24)     -3.7097         0.028515   
    380. D(C  31,C  32,C  25,C  28)     -2.5229         0.028515   
    381. D(C  31,C  32,C  25,C  24)    177.2556         0.028515   
    382. D(H  68,C  33,O  19,C   0)    -60.6860         0.023838   
    383. D(H  67,C  33,O  19,C   0)   -179.2786         0.023838   
    384. D(H  66,C  33,O  19,C   0)     62.0142         0.023838   
    385. D(H  71,C  34,O  18,C   2)    -62.3992         0.021667   
    386. D(H  70,C  34,O  18,C   2)    178.4414         0.021667   
    387. D(H  69,C  34,O  18,C   2)     60.2044         0.021667   
    388. D(H  74,C  35,O  22,C  12)     63.1886         0.023669   
    389. D(H  73,C  35,O  22,C  12)    -59.5726         0.023669   
    390. D(H  72,C  35,O  22,C  12)   -178.3218         0.023669   
    391. D(H  75,O  36,C  24,H  59)    165.9849         0.023895   
    392. D(H  75,O  36,C  24,C  25)    -74.6339         0.023895   
    393. D(H  75,O  36,C  24,C  23)     48.9889         0.023895   
    394. D(H  76,O  37,C  16,H  54)   -176.5015         0.022311   
    395. D(H  76,O  37,C  16,H  53)    -59.3230         0.022311   
    396. D(H  76,O  37,C  16,C   7)     62.5648         0.022311   
    397. D(H  77,O  38,C  17,H  56)   -179.3118         0.021672   
    398. D(H  77,O  38,C  17,H  55)    -62.7702         0.021672   
    399. D(H  77,O  38,C  17,C   8)     60.1058         0.021672   
    400. D(C  41,O  39,C  29,C  30)   -174.2645         0.028496   
    401. D(C  41,O  39,C  29,C  28)      5.5001         0.028496   
    402. D(H  78,O  40,C  30,C  31)   -177.4673         0.029607   
    403. D(H  78,O  40,C  30,C  29)      1.5758         0.029607   
    404. D(H  81,C  41,O  39,C  29)   -178.3947         0.023531   
    405. D(H  80,C  41,O  39,C  29)     62.5844         0.023531   
    406. D(H  79,C  41,O  39,C  29)    -59.7879         0.023531   
    -----------------------------------------------------------------

Number of atoms                         .... 82
Number of degrees of freedom            .... 406


         *************************************************************
         *                GEOMETRY OPTIMIZATION CYCLE   1            *
         *************************************************************
---------------------------------
CARTESIAN COORDINATES (ANGSTROEM)
---------------------------------
  C     10.591607   -7.934813   -2.126956
  C     11.196606   -9.123667   -2.561026
  C     10.514917  -10.336460   -2.400418
  C      9.247581  -10.331584   -1.833630
  C      8.633829   -9.148757   -1.451693
  C      9.311466   -7.948457   -1.594720
  C      7.254103   -9.203534   -0.858786
  C      7.303557   -9.702612    0.593650
  C      5.982687  -10.309663    1.095391
  C      5.777169  -11.743232    0.582821
  C      6.898161  -12.683518    0.926888
  C      7.344388  -12.802215    2.241581
  C      8.364977  -13.675426    2.565338
  C      8.941614  -14.481592    1.569720
  C      8.503371  -14.360619    0.264402
  C      7.496892  -13.461448   -0.051370
  C      7.768297   -8.582516    1.536217
  C      4.748602   -9.464042    0.753073
  O     11.153844  -11.471001   -2.817793
  O     11.372814   -6.819091   -2.256408
  O     12.403476   -8.991199   -3.205809
  O      9.920087  -15.373243    1.891019
  O      8.903643  -13.846031    3.823785
  C     13.516209   -9.726794   -2.729826
  C     13.937062   -9.181428   -1.335539
  C     12.964655   -9.647649   -0.270845
  C     14.647363   -9.559432   -3.756583
  O     15.095121   -8.246399   -3.922279
  C     12.785313  -11.014260   -0.068946
  C     11.846648  -11.469215    0.836232
  C     11.096256  -10.545700    1.580832
  C     11.325611   -9.192711    1.427172
  C     12.250922   -8.746583    0.498516
  C     10.833567   -5.574096   -1.884375
  C     10.456560  -12.692519   -2.741545
  C      8.399383  -13.054267    4.872893
  O     14.061226   -7.781643   -1.394826
  O      8.014685   -9.047058    2.838855
  O      3.597254   -9.901474    1.436506
  O     11.559623  -12.785911    1.100505
  O     10.155872  -10.993452    2.468415
  C     12.350323  -13.778221    0.488910
  H      8.710239  -11.255345   -1.695423
  H      8.833246   -7.033153   -1.286042
  H      6.647868   -9.891451   -1.449063
  H      6.786629   -8.219104   -0.895401
  H      8.058577  -10.495891    0.650066
  H      6.059858  -10.337352    2.189161
  H      4.843567  -12.119989    1.010758
  H      5.648024  -11.722720   -0.500993
  H      6.886133  -12.202434    3.010117
  H      8.952404  -14.984801   -0.491996
  H      7.162623  -13.385536   -1.075869
  H      8.666569   -8.114688    1.111380
  H      6.995895   -7.815043    1.635022
  H      4.942690   -8.406792    0.979495
  H      4.500180   -9.549645   -0.306710
  H     10.065088  -15.314938    2.845383
  H     13.274021  -10.792163   -2.658550
  H     14.937222   -9.567135   -1.097674
  H     14.289072   -9.894885   -4.733870
  H     15.478201  -10.214664   -3.442836
  H     15.055943   -7.803654   -3.058560
  H     13.383658  -11.713800   -0.630416
  H     10.783238   -8.495320    2.044914
  H     12.427921   -7.689000    0.384892
  H     10.575935   -5.550089   -0.820423
  H     11.617251   -4.844829   -2.083126
  H      9.949916   -5.326440   -2.479259
  H      9.546432  -12.670448   -3.348237
  H     11.135979  -13.442202   -3.145798
  H     10.198075  -12.947514   -1.708844
  H      8.979613  -13.329328    5.752174
  H      8.532267  -11.988065    4.667036
  H      7.341879  -13.265233    5.057251
  H     13.252993   -7.438048   -1.820306
  H      8.737712   -9.692834    2.795653
  H      3.761612   -9.834896    2.384065
  H     10.179504  -11.961813    2.453501
  H     12.300722  -13.714826   -0.601271
  H     13.393593  -13.704471    0.810815
  H     11.926637  -14.726161    0.816149

----------------------------
CARTESIAN COORDINATES (A.U.)
----------------------------
  NO LB      ZA    FRAG     MASS         X           Y           Z
   0 C     6.0000    0    12.011   20.015237  -14.994624   -4.019364
   1 C     6.0000    0    12.011   21.158520  -17.241232   -4.839638
   2 C     6.0000    0    12.011   19.870313  -19.533079   -4.536133
   3 C     6.0000    0    12.011   17.475395  -19.523864   -3.465058
   4 C     6.0000    0    12.011   16.315572  -17.288645   -2.743303
   5 C     6.0000    0    12.011   17.596120  -15.020407   -3.013584
   6 C     6.0000    0    12.011   13.708268  -17.392160   -1.622870
   7 C     6.0000    0    12.011   13.801723  -18.335280    1.121836
   8 C     6.0000    0    12.011   11.305641  -19.482440    2.069989
   9 C     6.0000    0    12.011   10.917268  -22.191492    1.101372
  10 C     6.0000    0    12.011   13.035636  -23.968375    1.751565
  11 C     6.0000    0    12.011   13.878881  -24.192680    4.235975
  12 C     6.0000    0    12.011   15.807516  -25.842810    4.847787
  13 C     6.0000    0    12.011   16.897202  -27.366243    2.966341
  14 C     6.0000    0    12.011   16.069042  -27.137636    0.499648
  15 C     6.0000    0    12.011   14.167073  -25.438450   -0.097075
  16 C     6.0000    0    12.011   14.679954  -16.218606    2.903030
  17 C     6.0000    0    12.011    8.973558  -17.884447    1.423103
  18 O     8.0000    0    15.999   21.077711  -21.677050   -5.324858
  19 O     8.0000    0    15.999   21.491503  -12.886214   -4.263993
  20 O     8.0000    0    15.999   23.439173  -16.990904   -6.058102
  21 O     8.0000    0    15.999   18.746248  -29.051219    3.573508
  22 O     8.0000    0    15.999   16.825448  -26.165206    7.225906
  23 C     6.0000    0    12.011   25.541933  -18.380977   -5.158624
  24 C     6.0000    0    12.011   26.337231  -17.350384   -2.523803
  25 C     6.0000    0    12.011   24.499648  -18.231414   -0.511823
  26 C     6.0000    0    12.011   27.679505  -18.064708   -7.098913
  27 O     8.0000    0    15.999   28.525644  -15.583436   -7.412034
  28 C     6.0000    0    12.011   24.160739  -20.813936   -0.130288
  29 C     6.0000    0    12.011   22.386920  -21.673675    1.580249
  30 C     6.0000    0    12.011   20.968884  -19.928485    2.987340
  31 C     6.0000    0    12.011   21.402303  -17.371705    2.696963
  32 C     6.0000    0    12.011   23.150888  -16.528647    0.942058
  33 C     6.0000    0    12.011   20.472474  -10.533514   -3.560953
  34 C     6.0000    0    12.011   19.760035  -23.985384   -5.180770
  35 C     6.0000    0    12.011   15.872534  -24.668989    9.208434
  36 O     8.0000    0    15.999   26.571867  -14.705174   -2.635839
  37 O     8.0000    0    15.999   15.145560  -17.096461    5.364659
  38 O     8.0000    0    15.999    6.797826  -18.711074    2.714603
  39 O     8.0000    0    15.999   21.844521  -24.161871    2.079653
  40 O     8.0000    0    15.999   19.191817  -20.774614    4.664629
  41 C     6.0000    0    12.011   23.338728  -26.037065    0.923906
  42 H     1.0000    0     1.008   16.459967  -21.269519   -3.203885
  43 H     1.0000    0     1.008   16.692417  -13.290734   -2.430268
  44 H     1.0000    0     1.008   12.562650  -18.692133   -2.738331
  45 H     1.0000    0     1.008   12.824871  -15.531856   -1.692063
  46 H     1.0000    0     1.008   15.228504  -19.834360    1.228447
  47 H     1.0000    0     1.008   11.451472  -19.534765    4.136915
  48 H     1.0000    0     1.008    9.153015  -22.903461    1.910055
  49 H     1.0000    0     1.008   10.673218  -22.152730   -0.946739
  50 H     1.0000    0     1.008   13.012905  -23.059259    5.688296
  51 H     1.0000    0     1.008   16.917592  -28.317171   -0.929738
  52 H     1.0000    0     1.008   13.535397  -25.294997   -2.033098
  53 H     1.0000    0     1.008   16.377441  -15.334539    2.100205
  54 H     1.0000    0     1.008   13.220325  -14.768291    3.089745
  55 H     1.0000    0     1.008    9.340331  -15.886534    1.850977
  56 H     1.0000    0     1.008    8.504108  -18.046213   -0.579599
  57 H     1.0000    0     1.008   19.020259  -28.941039    5.376994
  58 H     1.0000    0     1.008   25.084265  -20.394233   -5.023932
  59 H     1.0000    0     1.008   28.227259  -18.079265   -2.074304
  60 H     1.0000    0     1.008   27.002432  -18.698624   -8.945718
  61 H     1.0000    0     1.008   29.249562  -19.302917   -6.506017
  62 H     1.0000    0     1.008   28.451610  -14.746769   -5.779840
  63 H     1.0000    0     1.008   25.291449  -22.135873   -1.191313
  64 H     1.0000    0     1.008   20.377367  -16.053828    3.864328
  65 H     1.0000    0     1.008   23.485366  -14.530104    0.727340
  66 H     1.0000    0     1.008   19.985621  -10.488149   -1.550374
  67 H     1.0000    0     1.008   21.953422   -9.155399   -3.936539
  68 H     1.0000    0     1.008   18.802616  -10.065512   -4.685120
  69 H     1.0000    0     1.008   18.040142  -23.943676   -6.327252
  70 H     1.0000    0     1.008   21.043950  -25.402081   -5.944696
  71 H     1.0000    0     1.008   19.271569  -24.467255   -3.229247
  72 H     1.0000    0     1.008   16.969010  -25.188779   10.870033
  73 H     1.0000    0     1.008   16.123649  -22.654160    8.819420
  74 H     1.0000    0     1.008   13.874140  -25.067658    9.556819
  75 H     1.0000    0     1.008   25.044527  -14.055873   -3.439879
  76 H     1.0000    0     1.008   16.511883  -18.316801    5.283018
  77 H     1.0000    0     1.008    7.108416  -18.585261    4.505230
  78 H     1.0000    0     1.008   19.236475  -22.604550    4.636445
  79 H     1.0000    0     1.008   23.244996  -25.917264   -1.136237
  80 H     1.0000    0     1.008   25.310224  -25.897698    1.532218
  81 H     1.0000    0     1.008   22.538077  -27.828411    1.542298

--------------------------------
INTERNAL COORDINATES (ANGSTROEM)
--------------------------------
 C      0   0   0     0.000000000000     0.00000000     0.00000000
 C      1   0   0     1.402787925854     0.00000000     0.00000000
 C      2   1   0     1.400486827701   119.24191589     0.00000000
 C      3   2   1     1.388312884088   119.21668735     0.96300618
 C      4   3   2     1.386234383341   121.30856974     1.43453650
 C      5   4   3     1.385773512554   119.61212748   357.81260680
 C      5   4   3     1.502725498004   118.95437692   179.25955303
 C      7   5   4     1.536585517587   110.80795632    75.63485404
 C      8   7   5     1.537839949279   114.13973085   202.78771391
 C      9   8   7     1.536256266029   111.98747241    78.42998933
 C     10   9   8     1.503044760476   114.05546615    56.15625358
 C     11  10   9     1.393421961430   120.53785920    51.90275551
 C     12  11  10     1.381636461134   120.76246126   179.31395763
 C     13  12  11     1.404873611846   119.98678328   358.34718419
 C     14  13  12     1.382224965224   119.26812609     1.88922632
 C     11  10   9     1.385872648681   120.78279412   231.07409858
 C      8   7   5     1.535913379538   110.66794249    77.61093644
 C      9   8   7     1.534673597581   113.60313642   313.86272314
 O      3   2   1     1.367337778114   117.13489754   181.08022607
 O      1   2   3     1.368165979764   114.55616087   176.26955617
 O      2   1   3     1.374710107948   116.23775444   175.76219671
 O     14  13  12     1.362235004021   120.21690173   181.99815910
 O     13  12  11     1.379476152273   125.47711278   178.28793846
 C     21   2   1     1.416274617773   118.82070083   125.99923059
 C     24  21   2     1.555178221916   109.37741786   291.96073875
 C     25  24  21     1.515424050475   110.38674799    75.33832381
 C     24  21   2     1.536798345305   107.28890690   171.23391105
 O     27  24  21     1.397139007342   114.67514644    62.52796242
 C     26  25  24     1.393038144807   119.09449237    59.28906495
 C     29  26  25     1.381094139040   120.37501984   183.98280906
 C     30  29  26     1.403708609223   119.62117895   358.29725286
 C     31  30  29     1.380867686597   119.78913576   358.37936899
 C     26  25  24     1.383202344965   121.43103539   239.50980897
 C     20   1   2     1.406843290105   118.54108585   178.08298937
 C     19   3   2     1.408589741247   118.14539941   183.78601637
 C     23  13  12     1.407763264258   118.06142802   358.75922016
 O     25  24  21     1.406531226147   109.57826721   310.13207806
 O     17   8   7     1.404767225150   112.39430042   188.71101551
 O     18   9   8     1.408555814768   112.20686577   191.40067725
 O     30  29  26     1.373285793713   125.73367944   178.54337135
 O     31  30  29     1.368432009885   119.74563185   179.32984430
 C     40  30  29     1.408521829047   118.33237586     5.50011941
 H      4   3   2     1.077576374807   120.30184656   180.43506218
 H      6   5   4     1.077848032103   119.27639898   180.66155256
 H      7   5   4     1.090493437836   108.65381492   315.97511539
 H      7   5   4     1.090401280762   110.33252305   197.45862719
 H      8   7   5     1.096599130082   107.80303303   321.24922398
 H      9   8   7     1.096838638556   105.95515122   196.64373145
 H     10   9   8     1.093932763554   107.76037890   177.76898220
 H     10   9   8     1.091673670407   109.24079370   293.78642345
 H     12  11  10     1.077209821978   119.30627737   359.19281185
 H     15  14  13     1.078598184278   118.66039100   180.03909359
 H     16  11  10     1.080322090205   119.75457825     0.63449891
 H     17   8   7     1.098290135102   108.70726435   311.81517004
 H     17   8   7     1.093336153040   110.70833439    70.64086870
 H     18   9   8     1.098505354651   110.01485288   314.31240608
 H     18   9   8     1.091871552842   110.87053984    74.21239405
 H     22  14  13     0.967075420327   107.51744191     1.06078668
 H     24  21   2     1.094872725449   110.70015083    53.37873695
 H     25  24  21     1.098029638854   108.51347286   194.62624348
 H     27  24  21     1.093614209808   108.81406746   303.15262464
 H     27  24  21     1.103656746940   107.42833653   185.78500409
 H     28  27  24     0.971375065398   108.05774358    35.47902300
 H     29  26  25     1.078249149450   119.31120545     3.68026756
 H     32  31  30     1.078020304112   119.11245700   183.47255083
 H     33  26  25     1.078295530958   119.71005917   356.29028551
 H     34  20   1     1.094963464416   111.50265221    62.01422653
 H     34  20   1     1.088803452585   105.57934106   180.72137087
 H     34  20   1     1.093645103673   111.48504892   299.31400866
 H     35  19   3     1.094027690548   111.36449654    60.20439514
 H     35  19   3     1.089520490924   105.54082067   178.44143979
 H     35  19   3     1.094672869248   111.71325853   297.60075688
 H     36  23  13     1.088788084853   105.59620392   181.67819336
 H     36  23  13     1.093993577075   111.37061673   300.42735068
 H     36  23  13     1.093988275544   111.30793478    63.18864607
 H     37  25  24     0.975874871659   107.19750128    48.98887029
 H     38  17   8     0.970392262173   108.02712219    62.56476920
 H     39  18   9     0.964009272800   108.42799630    60.10582408
 H     41  31  30     0.968763817725   107.47657105     1.57578992
 H     42  40  30     1.093148328840   111.51242721   300.21208820
 H     42  40  30     1.094292103864   111.09923383    62.58444440
 H     42  40  30     1.088661830348   105.33407006   181.60532887

---------------------------
INTERNAL COORDINATES (A.U.)
---------------------------
 C      0   0   0     0.000000000000     0.00000000     0.00000000
 C      1   0   0     2.650885003836     0.00000000     0.00000000
 C      2   1   0     2.646536558519   119.24191589     0.00000000
 C      3   2   1     2.623531139120   119.21668735     0.96300618
 C      4   3   2     2.619603341939   121.30856974     1.43453650
 C      5   4   3     2.618732422370   119.61212748   357.81260680
 C      5   4   3     2.839739645687   118.95437692   179.25955303
 C      7   5   4     2.903725809589   110.80795632    75.63485404
 C      8   7   5     2.906096341941   114.13973085   202.78771391
 C      9   8   7     2.903103614316   111.98747241    78.42998933
 C     10   9   8     2.840342964324   114.05546615    56.15625358
 C     11  10   9     2.633185896094   120.53785920    51.90275551
 C     12  11  10     2.610914528184   120.76246126   179.31395763
 C     13  12  11     2.654826379161   119.98678328   358.34718419
 C     14  13  12     2.612026639742   119.26812609     1.88922632
 C     11  10   9     2.618919762500   120.78279412   231.07409858
 C      8   7   5     2.902455652752   110.66794249    77.61093644
 C      9   8   7     2.900112804387   113.60313642   313.86272314
 O      3   2   1     2.583893933200   117.13489754   181.08022607
 O      1   2   3     2.585459007502   114.55616087   176.26955617
 O      2   1   3     2.597825617554   116.23775444   175.76219671
 O     14  13  12     2.574251087641   120.21690173   181.99815910
 O     13  12  11     2.606832136072   125.47711278   178.28793846
 C     21   2   1     2.676371158014   118.82070083   125.99923059
 C     24  21   2     2.938860928860   109.37741786   291.96073875
 C     25  24  21     2.863736432156   110.38674799    75.33832381
 C     24  21   2     2.904127995690   107.28890690   171.23391105
 O     27  24  21     2.640210094896   114.67514644    62.52796242
 C     26  25  24     2.632460587790   119.09449237    59.28906495
 C     29  26  25     2.609889687949   120.37501984   183.98280906
 C     30  29  26     2.652624843260   119.62117895   358.29725286
 C     31  30  29     2.609461754850   119.78913576   358.37936899
 C     26  25  24     2.613873619782   121.43103539   239.50980897
 C     20   1   2     2.658548531642   118.54108585   178.08298937
 C     19   3   2     2.661848846009   118.14539941   183.78601637
 C     23  13  12     2.660287030843   118.06142802   358.75922016
 O     25  24  21     2.657958816227   109.57826721   310.13207806
 O     17   8   7     2.654625337442   112.39430042   188.71101551
 O     18   9   8     2.661784734255   112.20686577   191.40067725
 O     30  29  26     2.595134053723   125.73367944   178.54337135
 O     31  30  29     2.585961731574   119.74563185   179.32984430
 C     40  30  29     2.661720510549   118.33237586     5.50011941
 H      4   3   2     2.036324236768   120.30184656   180.43506218
 H      6   5   4     2.036837594660   119.27639898   180.66155256
 H      7   5   4     2.060733948349   108.65381492   315.97511539
 H      7   5   4     2.060559796716   110.33252305   197.45862719
 H      8   7   5     2.072272034551   107.80303303   321.24922398
 H      9   8   7     2.072724639974   105.95515122   196.64373145
 H     10   9   8     2.067233332041   107.76037890   177.76898220
 H     10   9   8     2.062964264682   109.24079370   293.78642345
 H     12  11  10     2.035631552308   119.30627737   359.19281185
 H     15  14  13     2.038255176829   118.66039100   180.03909359
 H     16  11  10     2.041512886914   119.75457825     0.63449891
 H     17   8   7     2.075467570931   108.70726435   311.81517004
 H     17   8   7     2.066105901561   110.70833439    70.64086870
 H     18   9   8     2.075874276937   110.01485288   314.31240608
 H     18   9   8     2.063338208291   110.87053984    74.21239405
 H     22  14  13     1.827507695265   107.51744191     1.06078668
 H     24  21   2     2.069009602599   110.70015083    53.37873695
 H     25  24  21     2.074975304362   108.51347286   194.62624348
 H     27  24  21     2.066631352701   108.81406746   303.15262464
 H     27  24  21     2.085608997572   107.42833653   185.78500409
 H     28  27  24     1.835632846922   108.05774358    35.47902300
 H     29  26  25     2.037595596594   119.31120545     3.68026756
 H     32  31  30     2.037163141578   119.11245700   183.47255083
 H     33  26  25     2.037683244943   119.71005917   356.29028551
 H     34  20   1     2.069181074396   111.50265221    62.01422653
 H     34  20   1     2.057540339053   105.57934106   180.72137087
 H     34  20   1     2.066689733646   111.48504892   299.31400866
 H     35  19   3     2.067412718062   111.36449654    60.20439514
 H     35  19   3     2.058895345142   105.54082067   178.44143979
 H     35  19   3     2.068631929112   111.71325853   297.60075688
 H     36  23  13     2.057511298248   105.59620392   181.67819336
 H     36  23  13     2.067348252940   111.37061673   300.42735068
 H     36  23  13     2.067338234499   111.30793478    63.18864607
 H     37  25  24     1.844136248411   107.19750128    48.98887029
 H     38  17   8     1.833775617983   108.02712219    62.56476920
 H     39  18   9     1.821713516154   108.42799630    60.10582408
 H     41  31  30     1.830698303953   107.47657105     1.57578992
 H     42  40  30     2.065750965261   111.51242721   300.21208820
 H     42  40  30     2.067912386816   111.09923383    62.58444440
 H     42  40  30     2.057272711812   105.33407006   181.60532887

---------------------
BASIS SET INFORMATION
---------------------
There are 3 groups of distinct atoms

 Group   1 Type C   : 11s6p2d1f contracted to 5s3p2d1f pattern {62111/411/11/1}
 Group   2 Type O   : 11s6p2d1f contracted to 5s3p2d1f pattern {62111/411/11/1}
 Group   3 Type H   : 5s1p contracted to 3s1p pattern {311/1}

Atom   0C    basis set group =>   1
Atom   1C    basis set group =>   1
Atom   2C    basis set group =>   1
Atom   3C    basis set group =>   1
Atom   4C    basis set group =>   1
Atom   5C    basis set group =>   1
Atom   6C    basis set group =>   1
Atom   7C    basis set group =>   1
Atom   8C    basis set group =>   1
Atom   9C    basis set group =>   1
Atom  10C    basis set group =>   1
Atom  11C    basis set group =>   1
Atom  12C    basis set group =>   1
Atom  13C    basis set group =>   1
Atom  14C    basis set group =>   1
Atom  15C    basis set group =>   1
Atom  16C    basis set group =>   1
Atom  17C    basis set group =>   1
Atom  18O    basis set group =>   2
Atom  19O    basis set group =>   2
Atom  20O    basis set group =>   2
Atom  21O    basis set group =>   2
Atom  22O    basis set group =>   2
Atom  23C    basis set group =>   1
Atom  24C    basis set group =>   1
Atom  25C    basis set group =>   1
Atom  26C    basis set group =>   1
Atom  27O    basis set group =>   2
Atom  28C    basis set group =>   1
Atom  29C    basis set group =>   1
Atom  30C    basis set group =>   1
Atom  31C    basis set group =>   1
Atom  32C    basis set group =>   1
Atom  33C    basis set group =>   1
Atom  34C    basis set group =>   1
Atom  35C    basis set group =>   1
Atom  36O    basis set group =>   2
Atom  37O    basis set group =>   2
Atom  38O    basis set group =>   2
Atom  39O    basis set group =>   2
Atom  40O    basis set group =>   2
Atom  41C    basis set group =>   1
Atom  42H    basis set group =>   3
Atom  43H    basis set group =>   3
Atom  44H    basis set group =>   3
Atom  45H    basis set group =>   3
Atom  46H    basis set group =>   3
Atom  47H    basis set group =>   3
Atom  48H    basis set group =>   3
Atom  49H    basis set group =>   3
Atom  50H    basis set group =>   3
Atom  51H    basis set group =>   3
Atom  52H    basis set group =>   3
Atom  53H    basis set group =>   3
Atom  54H    basis set group =>   3
Atom  55H    basis set group =>   3
Atom  56H    basis set group =>   3
Atom  57H    basis set group =>   3
Atom  58H    basis set group =>   3
Atom  59H    basis set group =>   3
Atom  60H    basis set group =>   3
Atom  61H    basis set group =>   3
Atom  62H    basis set group =>   3
Atom  63H    basis set group =>   3
Atom  64H    basis set group =>   3
Atom  65H    basis set group =>   3
Atom  66H    basis set group =>   3
Atom  67H    basis set group =>   3
Atom  68H    basis set group =>   3
Atom  69H    basis set group =>   3
Atom  70H    basis set group =>   3
Atom  71H    basis set group =>   3
Atom  72H    basis set group =>   3
Atom  73H    basis set group =>   3
Atom  74H    basis set group =>   3
Atom  75H    basis set group =>   3
Atom  76H    basis set group =>   3
Atom  77H    basis set group =>   3
Atom  78H    basis set group =>   3
Atom  79H    basis set group =>   3
Atom  80H    basis set group =>   3
Atom  81H    basis set group =>   3
---------------------------------
AUXILIARY/J BASIS SET INFORMATION
---------------------------------
There are 3 groups of distinct atoms

 Group   1 Type C   : 12s5p4d2f1g contracted to 6s4p3d1f1g pattern {711111/2111/211/2/1}
 Group   2 Type O   : 12s5p4d2f1g contracted to 6s4p3d1f1g pattern {711111/2111/211/2/1}
 Group   3 Type H   : 5s2p1d contracted to 3s1p1d pattern {311/2/1}

Atom   0C    basis set group =>   1
Atom   1C    basis set group =>   1
Atom   2C    basis set group =>   1
Atom   3C    basis set group =>   1
Atom   4C    basis set group =>   1
Atom   5C    basis set group =>   1
Atom   6C    basis set group =>   1
Atom   7C    basis set group =>   1
Atom   8C    basis set group =>   1
Atom   9C    basis set group =>   1
Atom  10C    basis set group =>   1
Atom  11C    basis set group =>   1
Atom  12C    basis set group =>   1
Atom  13C    basis set group =>   1
Atom  14C    basis set group =>   1
Atom  15C    basis set group =>   1
Atom  16C    basis set group =>   1
Atom  17C    basis set group =>   1
Atom  18O    basis set group =>   2
Atom  19O    basis set group =>   2
Atom  20O    basis set group =>   2
Atom  21O    basis set group =>   2
Atom  22O    basis set group =>   2
Atom  23C    basis set group =>   1
Atom  24C    basis set group =>   1
Atom  25C    basis set group =>   1
Atom  26C    basis set group =>   1
Atom  27O    basis set group =>   2
Atom  28C    basis set group =>   1
Atom  29C    basis set group =>   1
Atom  30C    basis set group =>   1
Atom  31C    basis set group =>   1
Atom  32C    basis set group =>   1
Atom  33C    basis set group =>   1
Atom  34C    basis set group =>   1
Atom  35C    basis set group =>   1
Atom  36O    basis set group =>   2
Atom  37O    basis set group =>   2
Atom  38O    basis set group =>   2
Atom  39O    basis set group =>   2
Atom  40O    basis set group =>   2
Atom  41C    basis set group =>   1
Atom  42H    basis set group =>   3
Atom  43H    basis set group =>   3
Atom  44H    basis set group =>   3
Atom  45H    basis set group =>   3
Atom  46H    basis set group =>   3
Atom  47H    basis set group =>   3
Atom  48H    basis set group =>   3
Atom  49H    basis set group =>   3
Atom  50H    basis set group =>   3
Atom  51H    basis set group =>   3
Atom  52H    basis set group =>   3
Atom  53H    basis set group =>   3
Atom  54H    basis set group =>   3
Atom  55H    basis set group =>   3
Atom  56H    basis set group =>   3
Atom  57H    basis set group =>   3
Atom  58H    basis set group =>   3
Atom  59H    basis set group =>   3
Atom  60H    basis set group =>   3
Atom  61H    basis set group =>   3
Atom  62H    basis set group =>   3
Atom  63H    basis set group =>   3
Atom  64H    basis set group =>   3
Atom  65H    basis set group =>   3
Atom  66H    basis set group =>   3
Atom  67H    basis set group =>   3
Atom  68H    basis set group =>   3
Atom  69H    basis set group =>   3
Atom  70H    basis set group =>   3
Atom  71H    basis set group =>   3
Atom  72H    basis set group =>   3
Atom  73H    basis set group =>   3
Atom  74H    basis set group =>   3
Atom  75H    basis set group =>   3
Atom  76H    basis set group =>   3
Atom  77H    basis set group =>   3
Atom  78H    basis set group =>   3
Atom  79H    basis set group =>   3
Atom  80H    basis set group =>   3
Atom  81H    basis set group =>   3
--------------------------------------------------------------------------
WARNING: There is at least one non-excluded one OpenFabrics device found,
but there are no active ports detected (or Open MPI was unable to use
them).  This is most certainly not what you wanted.  Check your
cables, subnet manager configuration, etc.  The openib BTL will be
ignored for this job.

  Local host: c09b01n01
--------------------------------------------------------------------------
--------------------------------------------------------------------------
WARNING: There was an error initializing an OpenFabrics device.

  Local host:   c09b01n01
  Local device: mlx5_0
--------------------------------------------------------------------------


           ************************************************************
           *        Program running with 64 parallel MPI-processes    *
           *              working on a common directory               *
           ************************************************************
[c09b01n01:1646268] 2 more processes have sent help message help-mpi-btl-openib.txt / no active ports found
[c09b01n01:1646268] Set MCA parameter "orte_base_help_aggregate" to 0 to see all help / error messages
[c09b01n01:1646268] 60 more processes have sent help message help-mpi-btl-openib.txt / error in device init
------------------------------------------------------------------------------
                             ORCA STARTUP CALCULATIONS
                           -- RI-GTO INTEGRALS CHOSEN --
------------------------------------------------------------------------------
------------------------------------------------------------------------------
                   ___                                                        
                  /   \      - P O W E R E D   B Y -                         
                 /     \                                                     
                 |  |  |   _    _      __       _____    __    __             
                 |  |  |  | |  | |    /  \     |  _  \  |  |  /  |          
                  \  \/   | |  | |   /    \    | | | |  |  | /  /          
                 / \  \   | |__| |  /  /\  \   | |_| |  |  |/  /          
                |  |  |   |  __  | /  /__\  \  |    /   |      \           
                |  |  |   | |  | | |   __   |  |    \   |  |\   \          
                \     /   | |  | | |  |  |  |  | |\  \  |  | \   \       
                 \___/    |_|  |_| |__|  |__|  |_| \__\ |__|  \__/        
                                                                              
                      - O R C A' S   B I G   F R I E N D -                    
                                      &                                       
                       - I N T E G R A L  F E E D E R -                       
                                                                              
 v1 FN, 2020, v2 2021, v3 2022-2024                                           
------------------------------------------------------------------------------


----------------------
SHARK INTEGRAL PACKAGE
----------------------

Number of atoms                             ...     82
Number of basis functions                   ...   1542
Number of shells                            ...    622
Maximum angular momentum                    ...      3
Integral batch strategy                     ... SHARK/LIBINT Hybrid
RI-J (if used) integral strategy            ... SPLIT-RIJ (Revised 2003 algorithm where possible)
Printlevel                                  ...      1
Contraction scheme used                     ... SEGMENTED contraction
Prescreening option                         ... SCHWARTZ
   Thresh                                   ... 2.500e-11
   Tcut                                     ... 2.500e-12
   Tpresel                                  ... 2.500e-12 
Coulomb Range Separation                    ... NOT USED
Exchange Range Separation                   ... NOT USED
Multipole approximations                    ... NOT USED
Finite Nucleus Model                        ... NOT USED
CABS basis                                  ... NOT available
Auxiliary Coulomb fitting basis             ... AVAILABLE
   # of basis functions in Aux-J            ...   2498
   # of shells in Aux-J                     ...    830
   Maximum angular momentum in Aux-J        ...      4
Auxiliary J/K fitting basis                 ... NOT available
Auxiliary Correlation fitting basis         ... NOT available
Auxiliary 'external' fitting basis          ... NOT available

Checking pre-screening integrals            ... done (  0.3 sec) Dimension = 622
   => SHARK Basis and OBASIS are compatible. Storing Pre-screening
Shell pair information
Shell pair cut-off parameter TPreSel        ...   2.5e-12
Total number of shell pairs                 ...    193753
Shell pairs after pre-screening             ...    116661
Total number of primitive shell pairs       ...    584784
Primitive shell pairs kept                  ...    220111
          la=0 lb=0:  32436 shell pairs
          la=1 lb=0:  34787 shell pairs
          la=1 lb=1:   9425 shell pairs
          la=2 lb=0:  15838 shell pairs
          la=2 lb=1:   8708 shell pairs
          la=2 lb=2:   2003 shell pairs
          la=3 lb=0:   7224 shell pairs
          la=3 lb=1:   4036 shell pairs
          la=3 lb=2:   1774 shell pairs
          la=3 lb=3:    430 shell pairs

Checking whether 4 symmetric matrices of dimension 1542 fit in memory
:Max Core in MB      =   6000.00
 MB in use           =    139.83
 MB left             =   5860.17
 MB needed           =     36.31
 Data fit in memory  = YES
Calculating RI/J V-Matrix + Cholesky decomp.... done (  3.7 sec)
Calculating Nuclear repulsion               ... done (  0.0 sec) ENN=   5775.841644730798 Eh

Diagonalization of the overlap matrix:
Smallest eigenvalue                        ... 3.294e-06
Time for diagonalization                   ...   33.372 sec
Threshold for overlap eigenvalues          ... 1.000e-07
Number of eigenvalues below threshold      ... 0
Time for construction of square roots      ...    2.310 sec
Total time needed                          ...   35.943 sec

-------------------
DFT GRID GENERATION
-------------------

General Integration Accuracy     IntAcc      ... 4.388
Radial Grid Type                 RadialGrid  ... OptM3 with GC (2021)
Angular Grid (max. ang.)         AngularGrid ... 4 (Lebedev-302)
Angular grid pruning method      GridPruning ... 4 (adaptive)
Weight generation scheme         WeightScheme... mBecke (2022)
Basis function cutoff            BFCut       ... 1.0000e-11
Integration weight cutoff        WCut        ... 1.0000e-14
Partially contracted basis set               ... off
Rotationally invariant grid construction     ... off
Angular grids for H and He will be reduced by one unit

Total number of grid points                  ...   373389
Total number of batches                      ...     5876
Average number of points per batch           ...       63
Average number of grid points per atom       ...     4554

--------------------
COSX GRID GENERATION
--------------------

GRIDX 1
-------
General Integration Accuracy     IntAcc      ... 3.816
Radial Grid Type                 RadialGrid  ... OptM3 with GC (2021)
Angular Grid (max. ang.)         AngularGrid ... 1 (Lebedev-50)
Angular grid pruning method      GridPruning ... 4 (adaptive)
Weight generation scheme         WeightScheme... mBecke (2022)
Basis function cutoff            BFCut       ... 1.0000e-11
Integration weight cutoff        WCut        ... 1.0000e-14
Partially contracted basis set               ... on
Rotationally invariant grid construction     ... off
Angular grids for H and He will be reduced by one unit

Total number of grid points                  ...    47215
Total number of batches                      ...      412
Average number of points per batch           ...      114
Average number of grid points per atom       ...      576
UseSFitting                                  ... on

GRIDX 2
-------
General Integration Accuracy     IntAcc      ... 4.020
Radial Grid Type                 RadialGrid  ... OptM3 with GC (2021)
Angular Grid (max. ang.)         AngularGrid ... 2 (Lebedev-110)
Angular grid pruning method      GridPruning ... 4 (adaptive)
Weight generation scheme         WeightScheme... mBecke (2022)
Basis function cutoff            BFCut       ... 1.0000e-11
Integration weight cutoff        WCut        ... 1.0000e-14
[...]
freq.     650.86  E(vib)   ...       0.08 
freq.     656.64  E(vib)   ...       0.08 
freq.     679.25  E(vib)   ...       0.08 
freq.     698.87  E(vib)   ...       0.07 
freq.     724.81  E(vib)   ...       0.06 
freq.     730.83  E(vib)   ...       0.06 
freq.     743.83  E(vib)   ...       0.06 
freq.     747.52  E(vib)   ...       0.06 
freq.     775.64  E(vib)   ...       0.05 
freq.     785.28  E(vib)   ...       0.05 
freq.     792.67  E(vib)   ...       0.05 
freq.     809.03  E(vib)   ...       0.05 
freq.     814.18  E(vib)   ...       0.05 
freq.     833.85  E(vib)   ...       0.04 
freq.     840.30  E(vib)   ...       0.04 
freq.     849.82  E(vib)   ...       0.04 
freq.     852.96  E(vib)   ...       0.04 
freq.     859.92  E(vib)   ...       0.04 
freq.     862.39  E(vib)   ...       0.04 
freq.     872.90  E(vib)   ...       0.04 
freq.     878.67  E(vib)   ...       0.04 
freq.     893.09  E(vib)   ...       0.03 
freq.     901.09  E(vib)   ...       0.03 
freq.     918.27  E(vib)   ...       0.03 
freq.     928.05  E(vib)   ...       0.03 
freq.     941.69  E(vib)   ...       0.03 
freq.     950.84  E(vib)   ...       0.03 
freq.     959.53  E(vib)   ...       0.03 
freq.     965.87  E(vib)   ...       0.03 
freq.     966.44  E(vib)   ...       0.03 
freq.     969.78  E(vib)   ...       0.03 
freq.     970.43  E(vib)   ...       0.03 
freq.     996.85  E(vib)   ...       0.02 
freq.    1029.32  E(vib)   ...       0.02 
freq.    1038.78  E(vib)   ...       0.02 
freq.    1045.13  E(vib)   ...       0.02 
freq.    1048.28  E(vib)   ...       0.02 
freq.    1054.97  E(vib)   ...       0.02 
freq.    1058.95  E(vib)   ...       0.02 
freq.    1069.40  E(vib)   ...       0.02 
freq.    1077.86  E(vib)   ...       0.02 
freq.    1095.93  E(vib)   ...       0.02 
freq.    1103.54  E(vib)   ...       0.02 
freq.    1118.97  E(vib)   ...       0.01 
freq.    1127.37  E(vib)   ...       0.01 
freq.    1140.69  E(vib)   ...       0.01 
freq.    1143.39  E(vib)   ...       0.01 
freq.    1145.48  E(vib)   ...       0.01 
freq.    1170.35  E(vib)   ...       0.01 
freq.    1171.48  E(vib)   ...       0.01 
freq.    1171.89  E(vib)   ...       0.01 
freq.    1172.74  E(vib)   ...       0.01 
freq.    1173.42  E(vib)   ...       0.01 
freq.    1173.54  E(vib)   ...       0.01 
freq.    1177.29  E(vib)   ...       0.01 
freq.    1179.40  E(vib)   ...       0.01 
freq.    1199.58  E(vib)   ...       0.01 
freq.    1203.52  E(vib)   ...       0.01 
freq.    1205.04  E(vib)   ...       0.01 
freq.    1207.88  E(vib)   ...       0.01 
freq.    1213.53  E(vib)   ...       0.01 
freq.    1222.08  E(vib)   ...       0.01 
freq.    1225.71  E(vib)   ...       0.01 
freq.    1227.21  E(vib)   ...       0.01 
freq.    1242.49  E(vib)   ...       0.01 
freq.    1245.79  E(vib)   ...       0.01 
freq.    1249.41  E(vib)   ...       0.01 
freq.    1250.91  E(vib)   ...       0.01 
freq.    1262.06  E(vib)   ...       0.01 
freq.    1272.36  E(vib)   ...       0.01 
freq.    1278.76  E(vib)   ...       0.01 
freq.    1287.58  E(vib)   ...       0.01 
freq.    1290.40  E(vib)   ...       0.01 
freq.    1294.86  E(vib)   ...       0.01 
freq.    1306.92  E(vib)   ...       0.01 
freq.    1312.72  E(vib)   ...       0.01 
freq.    1331.18  E(vib)   ...       0.01 
freq.    1335.51  E(vib)   ...       0.01 
freq.    1342.61  E(vib)   ...       0.01 
freq.    1345.55  E(vib)   ...       0.01 
freq.    1353.68  E(vib)   ...       0.01 
freq.    1354.22  E(vib)   ...       0.01 
freq.    1365.83  E(vib)   ...       0.01 
freq.    1369.69  E(vib)   ...       0.01 
freq.    1372.78  E(vib)   ...       0.01 
freq.    1388.49  E(vib)   ...       0.00 
freq.    1390.30  E(vib)   ...       0.00 
freq.    1398.05  E(vib)   ...       0.00 
freq.    1402.84  E(vib)   ...       0.00 
freq.    1406.19  E(vib)   ...       0.00 
freq.    1410.74  E(vib)   ...       0.00 
freq.    1418.96  E(vib)   ...       0.00 
freq.    1429.73  E(vib)   ...       0.00 
freq.    1443.36  E(vib)   ...       0.00 
freq.    1453.29  E(vib)   ...       0.00 
freq.    1454.51  E(vib)   ...       0.00 
freq.    1456.86  E(vib)   ...       0.00 
freq.    1459.85  E(vib)   ...       0.00 
freq.    1477.83  E(vib)   ...       0.00 
freq.    1478.27  E(vib)   ...       0.00 
freq.    1479.26  E(vib)   ...       0.00 
freq.    1479.88  E(vib)   ...       0.00 
freq.    1481.77  E(vib)   ...       0.00 
freq.    1482.11  E(vib)   ...       0.00 
freq.    1483.34  E(vib)   ...       0.00 
freq.    1484.29  E(vib)   ...       0.00 
freq.    1488.31  E(vib)   ...       0.00 
freq.    1490.30  E(vib)   ...       0.00 
freq.    1491.22  E(vib)   ...       0.00 
freq.    1491.72  E(vib)   ...       0.00 
freq.    1493.50  E(vib)   ...       0.00 
freq.    1494.62  E(vib)   ...       0.00 
freq.    1497.88  E(vib)   ...       0.00 
freq.    1500.31  E(vib)   ...       0.00 
freq.    1506.55  E(vib)   ...       0.00 
freq.    1535.69  E(vib)   ...       0.00 
freq.    1542.23  E(vib)   ...       0.00 
freq.    1546.95  E(vib)   ...       0.00 
freq.    1627.77  E(vib)   ...       0.00 
freq.    1637.65  E(vib)   ...       0.00 
freq.    1642.86  E(vib)   ...       0.00 
freq.    1647.77  E(vib)   ...       0.00 
freq.    1648.88  E(vib)   ...       0.00 
freq.    1652.92  E(vib)   ...       0.00 
freq.    2994.78  E(vib)   ...       0.00 
freq.    3013.35  E(vib)   ...       0.00 
freq.    3020.36  E(vib)   ...       0.00 
freq.    3021.55  E(vib)   ...       0.00 
freq.    3021.63  E(vib)   ...       0.00 
freq.    3024.29  E(vib)   ...       0.00 
freq.    3025.70  E(vib)   ...       0.00 
freq.    3026.28  E(vib)   ...       0.00 
freq.    3027.06  E(vib)   ...       0.00 
freq.    3028.60  E(vib)   ...       0.00 
freq.    3035.26  E(vib)   ...       0.00 
freq.    3038.28  E(vib)   ...       0.00 
freq.    3058.66  E(vib)   ...       0.00 
freq.    3067.40  E(vib)   ...       0.00 
freq.    3070.85  E(vib)   ...       0.00 
freq.    3074.69  E(vib)   ...       0.00 
freq.    3078.09  E(vib)   ...       0.00 
freq.    3083.81  E(vib)   ...       0.00 
freq.    3084.47  E(vib)   ...       0.00 
freq.    3089.30  E(vib)   ...       0.00 
freq.    3090.23  E(vib)   ...       0.00 
freq.    3095.10  E(vib)   ...       0.00 
freq.    3140.66  E(vib)   ...       0.00 
freq.    3142.63  E(vib)   ...       0.00 
freq.    3143.67  E(vib)   ...       0.00 
freq.    3162.32  E(vib)   ...       0.00 
freq.    3169.90  E(vib)   ...       0.00 
freq.    3187.52  E(vib)   ...       0.00 
freq.    3188.19  E(vib)   ...       0.00 
freq.    3205.51  E(vib)   ...       0.00 
freq.    3209.10  E(vib)   ...       0.00 
freq.    3211.88  E(vib)   ...       0.00 
freq.    3212.66  E(vib)   ...       0.00 
freq.    3213.99  E(vib)   ...       0.00 
freq.    3548.36  E(vib)   ...       0.00 
freq.    3631.39  E(vib)   ...       0.00 
freq.    3635.93  E(vib)   ...       0.00 
freq.    3717.70  E(vib)   ...       0.00 
freq.    3723.17  E(vib)   ...       0.00 
freq.    3769.91  E(vib)   ...       0.00 

------------
INNER ENERGY
------------

The inner energy is: U= E(el) + E(ZPE) + E(vib) + E(rot) + E(trans)
    E(el)   - is the total energy from the electronic structure calculation
              = E(kin-el) + E(nuc-el) + E(el-el) + E(nuc-nuc)
    E(ZPE)  - the the zero temperature vibrational energy from the frequency calculation
    E(vib)  - the the finite temperature correction to E(ZPE) due to population
              of excited vibrational states
    E(rot)  - is the rotational thermal energy
    E(trans)- is the translational thermal energy

Summary of contributions to the inner energy U:
Electronic energy                ...  -2032.63999707 Eh
Zero point energy                ...      0.67996207 Eh     426.68 kcal/mol
Thermal vibrational correction   ...      0.03978895 Eh      24.97 kcal/mol
Thermal rotational correction    ...      0.00141627 Eh       0.89 kcal/mol
Thermal translational correction ...      0.00141627 Eh       0.89 kcal/mol
-----------------------------------------------------------------------
Total thermal energy                  -2031.91741351 Eh


Summary of corrections to the electronic energy:
(perhaps to be used in another calculation)
Total thermal correction                  0.04262149 Eh      26.75 kcal/mol
Non-thermal (ZPE) correction              0.67996207 Eh     426.68 kcal/mol
-----------------------------------------------------------------------
Total correction                          0.72258357 Eh     453.43 kcal/mol


--------
ENTHALPY
--------

The enthalpy is H = U + kB*T
                kB is Boltzmann's constant
Total thermal energy              ...  -2031.91741351 Eh 
Thermal Enthalpy correction       ...      0.00094421 Eh       0.59 kcal/mol
-----------------------------------------------------------------------
Total Enthalpy                    ...  -2031.91646930 Eh


Note: Only C1 symmetry has been detected, increase convergence thresholds 
      if your molecule has a higher symmetry. Symmetry factor of 1.0 is   
      used for the rotational entropy correction. 
 

Note: Rotational entropy computed according to Herzberg 
Infrared and Raman Spectra, Chapter V,1, Van Nostrand Reinhold, 1945 
Point Group:  C1, Symmetry Number:   1  
Rotational constants in cm-1:     0.004193     0.002147     0.001816 

Vibrational entropy computed according to the QRRHO of S. Grimme
Chem.Eur.J. 2012 18 9955 using a reference frequency of 100.0 cm-1


-------
ENTROPY
-------

The entropy contributions are T*S = T*(S(el)+S(vib)+S(rot)+S(trans))
     S(el)   - electronic entropy
     S(vib)  - vibrational entropy
     S(rot)  - rotational entropy
     S(trans)- translational entropy
The entropies will be listed as multiplied by the temperature to get
units of energy

Electronic entropy                ...      0.00000000 Eh      0.00 kcal/mol
Vibrational entropy               ...      0.07112153 Eh     44.63 kcal/mol
Rotational entropy                ...      0.01797500 Eh     11.28 kcal/mol
Translational entropy             ...      0.02138181 Eh     13.42 kcal/mol
-----------------------------------------------------------------------
Final entropy term                ...      0.11047835 Eh     69.33 kcal/mol

In case the symmetry of your molecule has not been determined correctly
or in case you have a reason to use a different symmetry number we print 
out the resulting rotational entropy values for sn=1,12:

 non-linear molecules -----------------------------------
|  sn= 1 | S(rot)=       0.01797500 Eh     11.28 kcal/mol|
|  sn= 2 | S(rot)=       0.01732055 Eh     10.87 kcal/mol|
|  sn= 3 | S(rot)=       0.01693772 Eh     10.63 kcal/mol|
|  sn= 4 | S(rot)=       0.01666609 Eh     10.46 kcal/mol|
|  sn= 5 | S(rot)=       0.01645540 Eh     10.33 kcal/mol|
|  sn= 6 | S(rot)=       0.01628326 Eh     10.22 kcal/mol|
|  sn= 7 | S(rot)=       0.01613771 Eh     10.13 kcal/mol|
|  sn= 8 | S(rot)=       0.01601163 Eh     10.05 kcal/mol|
|  sn= 9 | S(rot)=       0.01590043 Eh      9.98 kcal/mol|
|  sn=10 | S(rot)=       0.01580095 Eh      9.92 kcal/mol|
|  sn=11 | S(rot)=       0.01571096 Eh      9.86 kcal/mol|
|  sn=12 | S(rot)=       0.01562880 Eh      9.81 kcal/mol|
 linear molecules ---------------------------------------
|  Dinfh | S(rot)=       0.01128449 Eh      7.08 kcal/mol|
|  Cinfv | S(rot)=       0.01193894 Eh      7.49 kcal/mol|
 --------------------------------------------------------


-------------------
GIBBS FREE ENERGY
-------------------

The Gibbs free energy is G = H - T*S

Total enthalpy                    ...  -2031.91646930 Eh 
Total entropy correction          ...     -0.11047835 Eh    -69.33 kcal/mol
-----------------------------------------------------------------------
Final Gibbs free energy         ...  -2032.02694765 Eh

For completeness - the Gibbs free energy minus the electronic energy
G-E(el)                           ...      0.61304942 Eh    384.69 kcal/mol


Maximum memory used throughout the entire PROP-calculation: 1823.0 MB
--------------------------------------------------------------------------
WARNING: There was an error initializing an OpenFabrics device.

  Local host:   c09b01n01
  Local device: mlx5_0
--------------------------------------------------------------------------
--------------------------------------------------------------------------
WARNING: There is at least one non-excluded one OpenFabrics device found,
but there are no active ports detected (or Open MPI was unable to use
them).  This is most certainly not what you wanted.  Check your
cables, subnet manager configuration, etc.  The openib BTL will be
ignored for this job.

  Local host: c09b01n01
--------------------------------------------------------------------------
[c09b01n01:1709843] 59 more processes have sent help message help-mpi-btl-openib.txt / error in device init
[c09b01n01:1709843] Set MCA parameter "orte_base_help_aggregate" to 0 to see all help / error messages
[c09b01n01:1709843] 3 more processes have sent help message help-mpi-btl-openib.txt / no active ports found

--------------------------------
SUGGESTED CITATIONS FOR THIS RUN
--------------------------------

Below you find a list of papers that are relevant to this ORCA run
We neither can nor want to force you to cite these papers, but we appreciate if you do
You receive ORCA, which is the product of decades of hard work by many enthusiastic individuals, for free
The only thing we kindly ask in return is that you cite our papers,
We deeply appreciate it, if you show your appreciation for ORCA by not just citing the generic ORCA reference.

Please note that relegating all ORCA citations to the supporting information does *not* help us.
SI sections are not indexed - citations you put there will not count into any citation statistics
But we need these citations in order to attract the funding resources that allow us to do what we are doing

Therefore, if you are a happy ORCA user, please consider citing a few of the papers listed below in the main body of your paper

In addition to the list printed below, the program has created the file opt-conf-3.bibtex that contains the list in bibtex format
You can import this file easily into all common literature databanks and citation aid programs


List of essential papers. We consider these as the minimum necessary citations

  1. Neese, F.
     Software update: the ORCA program system, version 6.0
     WIRES Comput. Molec. Sci. 2025 15(1), e70019
     doi.org/10.1002/wcms.7019

List of papers to cite with high priority. The work reported in these papers was absolutely
necessary for this run to complete.
Our perspective: the developers of density functionals and basis sets usually get cited in chemistry papers
Good! But without the algorithms to do something with them, the functionals or basis sets would not do anything.
Hence, in our opinion, the algorithm design and method developments papers are equally worthy of getting cited

  1. Neese, F.
     An improvement of the resolution of the identity approximation for the formation of the Coulomb matrix
     J. Comp. Chem. 2003 24(14), 1740-1747
     doi.org/10.1002/jcc.10318
  2. Neese, F.; Wennmohs, F.; Hansen, A.; Becker, U.
     Efficient, approximate and parallel Hartree-Fock and hybrid DFT calculations. A 'chain-of-spheres' algorithm for the Hartree-Fock exchange
     Chem. Phys. 2009 356(1-3), 98-109
     doi.org/10.1016/j.chemphys.2008.10.036
  3. Bykov, D.; Petrenko, T.; Izsak, R.; Kossmann, S.; Becker, U.; Valeev, E.; Neese, F.
     Efficient implementation of the analytic second derivatives of Hartree-Fock and hybrid DFT energies: a detailed analysis of different approximations
     Molec. Phys. 2015 113 , 1961-1977
     doi.org/10.1080/00268976.2015.1025114
  4. Caldeweyher, E.; Bannwarth, C.; Grimme, S.
     Extension of the D3 dispersion coefficient model
     J. Chem. Phys. 2017 147 , 034112
     doi.org/10.1063/1.4993215
  5. Caldeweyher, E.; Ehlert, S.; Hansen, A.; Neugebauer, H.; Spicher, S.; Bannwarth, C.; Grimme, S.
     A generally applicable atomic-charge dependent London dispersion correction
     J. Chem. Phys. 2019 150 , 154122
     doi.org/10.1063/1.5090222
  6. Garcia-Rates, M.; Neese, F.
     Efficient implementation of the analytical second derivatives of hartree-fock and hybrid DFT energies within the framework of the conductor-like polarizable continuum model
     J. Comput. Chem. 2019 40 , 1816-1828
     doi.org/10.1002/jcc.25833
  7. Caldeweyher, E.; Mewes, J.; Ehlert, S.; Grimme, S.
     Extension and evaluation of the D4 London-dispersion model for periodic systems
     Phys. Chem. Chem. Phys. 2020 22(16), 8499-8512
     doi.org/10.1039/D0CP00502A
  8. Garcia-Rates, M.; Neese, F.
     Effect of the Solute Cavity on the Solvation Energy and its Derivatives within the Framework of the Gaussian Charge Scheme
     J. Comput. Chem. 2020 41 , 922-939
     doi.org/10.1002/jcc.26139
  9. Helmich-Paris, B.; de Souza, B.; Neese, F.; Izsák, R.
     An improved chain of spheres for exchange algorithm
     J. Chem. Phys. 2021 155(10), 104109
     doi.org/10.1063/5.0058766
 10. Neese, F.
     The SHARK Integral Generation and Digestion System
     J. Comp. Chem. 2022 44(3), 381
     doi.org/10.1002/jcc.26942
 11. Wittmann, L.; Gordiy, I.; Friede, M.; Helmich-Paris, B.; Grimme, S.; Hansen, A.; Bursch, M.
     Extension of the D3 and D4 London Dispersion Corrections to the full Actinides Series
     Phys. Chem. Chem. Phys. 2024 26(32), 21379-21394
     doi.org/10.1039/D4CP01514B

List of suggested additional citations. These are papers that are important in the 'surrounding' of 
of this run, or papers that preceded the highly important papers. If you like your results we are grateful for a citation.

  1. Izsak, R.; Neese, F.
     An overlap fitted chain of spheres exchange method
     J. Chem. Phys. 2011 135 , 144105
     doi.org/10.1063/1.3646921
  2. Izsak, R.; Hansen, A.; Neese, F.
     The resolution of identity and chain of spheres approximations for the LPNO-CCSD singles Fock term
     Molec. Phys. 2012 110 , 2413-2417
     doi.org/10.1080/00268976.2012.687466
  3. Neese, F.
     The ORCA program system
     WIRES Comput. Molec. Sci. 2012 2(1), 73-78
     doi.org/10.1002/wcms.81
  4. Izsak, R.; Neese, F.; Klopper, W.
     Robust fitting techniques in the chain of spheres approximation to the Fock exchange: The role of the complementary space
     J. Chem. Phys. 2013 139 , 
     doi.org/10.1063/1.4819264
  5. Neese, F.
     Software update: the ORCA program system, version 4.0
     WIRES Comput. Molec. Sci. 2018 8(1), 1-6
     doi.org/10.1002/wcms.1327
  6. Neese, F.; Wennmohs, F.; Becker, U.; Riplinger, C.
     The ORCA quantum chemistry program package
     J. Chem. Phys. 2020 152(22), 224108
     doi.org/10.1063/5.0004608
  7. Neese, F.
     Software update: The ORCA program system—Version 5.0
     WIRES Comput. Molec. Sci. 2022 12(1), e1606
     doi.org/10.1002/wcms.1606

List of optional additional citations

  1. Neese, F.
     Approximate second-order SCF convergence for spin unrestricted wavefunctions
     Chem. Phys. Lett. 2000 325(1-3), 93-98
     doi.org/10.1016/s0009-2614(00)00662-x

Timings for individual modules:

Sum of individual times          ...    15898.194 sec (= 264.970 min)
Startup calculation              ...     1426.504 sec (=  23.775 min)   9.0 %
SCF iterations                   ...     8109.997 sec (= 135.167 min)  51.0 %
Property integrals               ...     1465.460 sec (=  24.424 min)   9.2 %
SCF Response                     ...     3174.473 sec (=  52.908 min)  20.0 %
Property calculations            ...      814.139 sec (=  13.569 min)   5.1 %
SCF Gradient evaluation          ...      891.277 sec (=  14.855 min)   5.6 %
Geometry relaxation              ...       16.344 sec (=   0.272 min)   0.1 %
                             ****ORCA TERMINATED NORMALLY****
TOTAL RUN TIME: 0 days 4 hours 30 minutes 48 seconds 30 msec
