
                                 *****************
                                 * O   R   C   A *
                                 *****************

                                            #,                                       
                                            ###                                      
                                            ####                                     
                                            #####                                    
                                            ######                                   
                                           ########,                                 
                                     ,,################,,,,,                         
                               ,,#################################,,                 
                          ,,##########################################,,             
                       ,#########################################, ''#####,          
                    ,#############################################,,   '####,        
                  ,##################################################,,,,####,       
                ,###########''''           ''''###############################       
              ,#####''   ,,,,##########,,,,          '''####'''          '####       
            ,##' ,,,,###########################,,,                        '##       
           ' ,,###''''                  '''############,,,                           
         ,,##''                                '''############,,,,        ,,,,,,###''
      ,#''                                            '''#######################'''  
     '                                                          ''''####''''         
             ,#######,   #######,   ,#######,      ##                                
            ,#'     '#,  ##    ##  ,#'     '#,    #''#        ,####,    ,#,          
            ##       ##  ##   ,#'  ##            #'  '#       #'       ,# #          
            ##       ##  #######   ##           ,######,      #####,      #          
            '#,     ,#'  ##    ##  '#,     ,#' ,#      #,     #,   #      #          
             '#######'   ##     ##  '#######'  #'      '#     '####' #    #          



                #########################################################
                #                        -***-                          #
                #          Department of theory and spectroscopy        #
                #                                                       #
                #                      Frank Neese                      #
                #                                                       #
                #     Directorship, Architecture, Infrastructure        #
                #                    SHARK, DRIVERS                     #
                #        Core code/Algorithms in most modules           #
                #                                                       #
                #        Max Planck Institute fuer Kohlenforschung      #
                #                Kaiser Wilhelm Platz 1                 #
                #                 D-45470 Muelheim/Ruhr                 #
                #                      Germany                          #
                #                                                       #
                #                  All rights reserved                  #
                #                        -***-                          #
                #########################################################


                         Program Version 6.1.0-f.0  -   RELEASE   -


 With contributions from (in alphabetic order):
[Max-Planck-Institut fuer Kohlenforschung]                               
  Daniel Aravena         : Magnetic Suceptibility                        
  Michael Atanasov       : Ab Initio Ligand Field Theory (pilot matlab implementation)
  Alexander A. Auer      : GIAO ZORA, VPT2 properties, NMR spectrum      
  Ute Becker             : All parallelization in ORCA, NUMFREQ, NUMCALC 
  Giovanni Bistoni       : ED, misc. LED, open-shell LED, HFLD           
  Dmytro Bykov           : pre 5.0 version of the SCF Hessian            
  Marcos Casanova-Páez   : Triplet and SCS-CIS(D). UHF-(DLPNO)-IP/EA/STEOM-CCSD. UHF-CVS-IP/STEOM-CCSD   
  Vijay G. Chilkuri      : MRCI spin determinant printing, contributions to CSF-ICE 
  Pauline Colinet        : FMM embedding                                 
  Dipayan Datta          : RHF DLPNO-CCSD density                        
  Achintya Kumar Dutta   : EOM-CC, STEOM-CC                              
  Nicolas Foglia         : Exact transition moments, OPA infrastructure, MCD improvements    
  Dmitry Ganyushin       : Spin-Orbit,Spin-Spin,Magnetic field MRCI      
  Miquel Garcia-Rates    : C-PCM and meta-GGA Hessian, CCSD/C-PCM, Gaussian charge scheme 
  Tiago L. C. Gouveia    : GS-ROHF, GS-ROCIS                             
  Yang Guo               : DLPNO-NEVPT2, F12-NEVPT2, CIM, IAO-localization        
  Andreas Hansen         : Spin unrestricted coupled pair/coupled cluster methods 
  Ingolf Harden          : AUTO-CI MPn and infrastructure                
  Benjamin Helmich-Paris : MC-RPA, TRAH-(SCF,CASSCF), AVAS, COSX integrals, SCF dyn. polar., MC-PDFT, srDFT 
  Lee Huntington         : MR-EOM, pCC                                   
  Robert Izsak           : Overlap fitted RIJCOSX, COSX-SCS-MP3, EOM     
  Riya Kayal             : Wick's Theorem for AUTO-CI, AUTO-CI UHF-CCSDT 
  Emily Kempfer          : AUTO-CI RHF CISDT and CCSDT, approximate NEVPT4
  Christian Kollmar      : KDIIS, OOCD, Brueckner-CCSD(T), CCSD density, CASPT2, CASPT2-K, improved NEVPT2 
  Axel Koslowski         : Symmetry handling                             
  Simone Kossmann        : meta-GGA functionals, TD-DFT gradient, OOMP2, (MP2 Hessian; deprecated post 5.0) 
  Lucas Lang             : DCDCAS, Hyperfine gauge corrections, ICE-SOC+SSC
  Marvin Lechner         : AUTO-CI (C++ implementation), FIC-MRCC        
  Spencer Leger          : CASSCF response                               
  Dagmar Lenk            : GEPOL surface, SMD, ORCA-2-JSON               
  Dimitrios Liakos       : Extrapolation schemes; Compound Job, Property file
  Dimitrios Manganas     : Further ROCIS development; embedding schemes. LFT, Crystal Embedding 
  Dimitrios Pantazis     : SARC Basis sets                               
  Anastasios Papadopoulos: AUTO-CI, single reference methods and gradients 
  Taras Petrenko         : pre 6.0 DFT Hessian and TD-DFT gradient,  ECA, NRVS 
  Petra Pikulova         : Analytic Raman intensities                    
  Peter Pinski           : DLPNO-MP2, DLPNO-MP2 Gradient                 
  Shashank Vittal Rao    : ES-AILFT, MagRelax                            
  Christoph Reimann      : Effective Core Potentials                     
  Marius Retegan         : Local ZFS, SOC                                
  Christoph Riplinger    : Optimizer, TS searches, QM/MM, DLPNO-CCSD(T), (RO)-DLPNO pert. Triples 
  Michael Roemelt        : Original ROCIS implementation, recursive CI coupling coefficients
  Masaaki Saitow         : Open-shell DLPNO-CCSD energy and density      
  Barbara Sandhoefer     : DKH picture change effects                    
  Yorick L. A. Schmerwitz: GMF and freeze-and-release deltaSCF, NEB S-IDPP initial path                    
  Kantharuban Sivalingam : CASSCF convergence/infrastructure, NEVPT2, NEVPT3, NEVPT4(SD), FIC-MRCI and CEPA variants
  Bernardo de Souza      : ESD, SOC TD-DFT                               
  Georgi L. Stoychev     : AutoAux, RI-MP2 NMR, DLPNO-MP2 response, X2C  
  Van Anh Tran           : RI-MP2 g-tensors                              
  Willem Van den Heuvel  : Paramagnetic NMR                              
  Zikuan Wang            : NOTCH, Electric field optimization            
  Frank Wennmohs         : Technical directorship and infrastructure     
  Hang Xu                : AUTO-CI-Response properties                   
                                                                         
[FACCTs GmbH]                                                            
  Markus Bursch, Nicolas Foglia, Miquel Garcia-Rates, Ingolf Harden, Hagen Neugebauer, Anastasios Papadopoulos, 
  Christoph Riplinger, Bernardo de Souza, Georgi L. Stoychev                                                    
                                                                 
  APM, various basis sets, CI-OPT, improved COSX, DLPNO-Multilevel,           
  DOCKER, DRACO, updates on ESD, Fragmentator, GOAT, IRC, LR-CPCM, L-BFGS, MBIS, meta-GGA TD-DFT gradient, ML-optimized integration grids, 
  MM, NACMEs, nearIR, NEB, NEB-TS, NL-DFT gradient (VV10), 2- and 3-layer-ONIOM, interface openCOSMO-RS, QMMM,   
  Crystal-QMMM, RESP, rigid body optimization, SF, symmetry and pop. for TD-DFT, various functionals, SOLVATOR                                   
                                                                         
[Other institutions]                                                     
  V. Asgeirsson          : NEB                                           
  Christoph Bannwarth    : sTDA-DFT, sTD-DFT, PBEh-3c, B97-3c, D3        
  Giovanni Bistoni       : ETS/NOCV, ADLD/ADEX, COVALED                  
  Martin Brehm           : Molecular dynamics                            
  Ronald Cardenas        : ETS/NOCV                                      
  Martina Colucci        : COVALED                                       
  Sebastian Ehlert       : rSCAN, r2SCAN, r2SCAN-3c, D4, dhf basis sets  
  Marvin Friede          : D4 for Fr, Ra, Ac-Lr                          
  Lars Goerigk           : TD-DFT with DH, B97 family of functionals     
  Stefan Grimme          : VdW corrections, initial TS optimization, DFT functionals, gCP, sTDA/sTD-DF 
  Waldemar Hujo          : DFT-NL                                        
  H. Jonsson             : NEB                                           
  Holger Kruse           : gCP                                           
  Marcel Mueller         : wB97X-3c, vDZP basis set                      
  Hagen Neugebauer       : wr2SCAN, Native XTB                           
  Gianluca Regni         : ADLD/ADEX                                     
  Tobias Risthaus        : pre 6.0 range-separated hybrid DFT and stability analysis
  Lukas Wittmann         : regularized MP2, r2SCAN double-hybrids, wr2SCAN        
                                                                         
We gratefully acknowledge several colleagues who have allowed us to      
interface, adapt or use parts of their codes:                            
  Ed Valeev, F. Pavosevic, A. Kumar             : LibInt (2-el integral package), F12 methods 
  Garnet Chan, S. Sharma, J. Yang, R. Olivares  : DMRG                   
  Ulf Ekstrom                                   : XCFun DFT Library      
  Mihaly Kallay                                 : mrcc  (arbitrary order and MRCC methods)
  Frank Weinhold                                : gennbo (NPA and NBO analysis)           
  Simon Mueller                                 : openCOSMO-RS                            
  Christopher J. Cramer and Donald G. Truhlar   : smd solvation model                     
  S Lehtola, MJT Oliveira, MAL Marques          : LibXC Library                           
  Liviu Ungur et al                             : ANISO software                          


 Your calculation uses the libint2 library for the computation of 2-el integrals
 For citations please refer to: http://libint.valeyev.net

 Your ORCA version has been built with support for libXC version: 7.0.0
 For citations please refer to: https://libxc.gitlab.io

 This ORCA versions uses:
   CBLAS   interface :  Fast vector & matrix operations
   LAPACKE interface :  Fast linear algebra routines
   SCALAPACK package :  Parallel linear algebra routines
   Shared memory     :  Shared parallel matrices
   BLAS/LAPACK       :  OpenBLAS 0.3.29  USE64BITINT DYNAMIC_ARCH NO_AFFINITY Cooperlake SINGLE_THREADED
        Core in use  :  Cooperlake
   Copyright (c) 2011-2014, The OpenBLAS Project


  ***********************************
  * Starting time: Wed Mar  4 13:40:29 2026
  * Host name:     c02b01n06
  * Process ID:    2440486
  * Working dir.:  /lustre1/jiangy/jiangy_liuxy/NMR/B9D7C2-SRSR-NMR/opt_conf
  ***********************************

NOTE: MaxCore=5000 MB was set to SCF,MP2,MDCI,CIPSI,MRCI,RASCI and CIS
      => If you want to overwrite this, your respective input block should be placed after the MaxCore statement


***************************************
The coordinates will be read from file: opt-conf-2.xyz
***************************************



Warning: The global flag for NMR shieldings has been found
         but shieldings for certain elements have also been explicitly requested in the EPRNMR block
         ==>> only the requested shieldings will be calculated

================================================================================

----- Orbital basis set information -----
Your calculation utilizes the basis: pcSseg-2
   F. Jensen, J. Chem. Theory Comput. 11, 132 (2015).

----- AuxJ basis set information -----
Your calculation utilizes the AutoAux generation procedure.
  G. L. Stoychev, A. A. Auer, F. Neese, J. Chem. Theory Comput. 13, 554 (2017)

----- AuxC basis set information -----
Your calculation utilizes the AutoAux generation procedure.
  G. L. Stoychev, A. A. Auer, F. Neese, J. Chem. Theory Comput. 13, 554 (2017)

----- AuxJK basis set information -----
Your calculation utilizes the AutoAux generation procedure.
  G. L. Stoychev, A. A. Auer, F. Neese, J. Chem. Theory Comput. 13, 554 (2017)

----- AuxX basis set information -----
Your calculation utilizes the AutoAux generation procedure.
  G. L. Stoychev, A. A. Auer, F. Neese, J. Chem. Theory Comput. 13, 554 (2017)

================================================================================
                                        WARNINGS
                       Please study these warnings very carefully!
================================================================================


================================================================================
                                       INPUT FILE
================================================================================
NAME = nmr-conf-2.inp
|  1> !TPSS PCSSEG-2 AUTOAUX NMR CPCM(Methanol)
|  2> 
|  3> %pal nprocs 60 end
|  4> %maxcore 5000
|  5> 
|  6> *XYZFILE 0 1 opt-conf-2.xyz
|  7> 
|  8> %EPRNMR
|  9>    NUCLEI = ALL C {SHIFT}
| 10>    NUCLEI = ALL H {SHIFT}
| 11>    TAU DOBSON
| 12> END
| 13> 
| 14> 
| 15>                          ****END OF INPUT****
================================================================================

                       ****************************
                       * Single Point Calculation *
                       ****************************

---------------------------------
CARTESIAN COORDINATES (ANGSTROEM)
---------------------------------
  C     21.053685  -29.979633    1.956804
  C     21.614260  -29.674202    0.713342
  C     20.878562  -29.928772   -0.448823
  C     19.620807  -30.520578   -0.364418
  C     19.065343  -30.821786    0.876596
  C     19.779270  -30.538489    2.036363
  C     17.711551  -31.481432    0.938893
  C     17.767632  -33.002724    0.672375
  C     16.423770  -33.589943    0.197380
  C     16.124856  -33.250750   -1.273369
  C     17.166595  -33.736744   -2.250085
  C     17.517575  -35.092286   -2.294580
  C     18.468325  -35.548210   -3.194015
  C     19.077827  -34.653826   -4.088579
  C     18.743367  -33.314295   -4.044544
  C     17.797220  -32.860656   -3.125090
  C     18.320390  -33.741991    1.891893
  C     15.251423  -33.191062    1.093417
  O     21.471939  -29.569573   -1.618800
  O     21.835838  -29.710761    3.036823
  O     22.830918  -29.039753    0.690122
  O     19.998326  -35.104925   -4.991326
  O     18.896024  -36.840251   -3.311632
  C     23.971456  -29.616174    0.025002
  C     24.390061  -30.950957    0.663123
  C     23.418082  -32.075498    0.407136
  C     25.038690  -28.539675    0.137221
  O     25.386613  -28.245900    1.488247
  C     23.127887  -32.459828   -0.906741
  C     22.221713  -33.475416   -1.153181
  C     21.596606  -34.126379   -0.078043
  C     21.907133  -33.774643    1.220949
  C     22.819030  -32.749360    1.460825
  C     21.339904  -30.055734    4.327155
  C     20.761229  -29.804834   -2.831904
  C     18.374956  -37.810001   -2.404080
  O     25.679620  -31.254931    0.103131
  O     18.567325  -35.127215    1.645164
  O     14.061502  -33.938716    0.814068
  O     21.846820  -33.926775   -2.381207
  O     20.681690  -35.116546   -0.319375
  C     22.503336  -33.387681   -3.528448
  H     19.061988  -30.743656   -1.261202
  H     19.344570  -30.772396    2.996663
  H     17.061872  -31.016330    0.195145
  H     17.256152  -31.295643    1.915219
  H     18.483792  -33.160558   -0.139295
  H     16.519872  -34.677730    0.276237
  H     16.012424  -32.169135   -1.385703
  H     15.154963  -33.688209   -1.525820
  H     17.041301  -35.788776   -1.619254
  H     19.229548  -32.628354   -4.726848
  H     17.550254  -31.806441   -3.096936
  H     17.610282  -33.703716    2.720764
  H     19.238297  -33.249614    2.225166
  H     15.521534  -33.306307    2.147828
  H     14.979081  -32.146293    0.933293
  H     20.117583  -36.057038   -4.856003
  H     23.748973  -29.772278   -1.031757
  H     24.481600  -30.799872    1.742326
  H     24.669433  -27.641126   -0.369173
  H     25.947865  -28.869094   -0.360044
  H     24.574536  -27.992050    1.946432
  H     23.604197  -31.950665   -1.731428
  H     21.429953  -34.298215    2.038941
  H     23.042972  -32.460820    2.479762
  H     20.429019  -29.499993    4.563561
  H     21.140159  -31.127702    4.399026
  H     22.124386  -29.782911    5.029063
  H     21.417059  -29.467384   -3.630701
  H     20.540943  -30.865884   -2.962088
  H     19.828201  -29.236423   -2.856871
  H     18.867497  -38.746834   -2.651705
  H     18.600409  -37.535284   -1.371006
  H     17.294796  -37.917922   -2.526691
  H     25.894840  -32.165021    0.343851
  H     19.235744  -35.192759    0.943115
  H     14.249835  -34.872114    0.974541
  H     20.543461  -35.191482   -1.276813
  H     22.068348  -33.896882   -4.382519
  H     22.328070  -32.313661   -3.609597
  H     23.577902  -33.579034   -3.479811

----------------------------
CARTESIAN COORDINATES (A.U.)
----------------------------
  NO LB      ZA    FRAG     MASS         X           Y           Z
   0 C     6.0000    0    12.011   39.785698  -56.653297    3.697823
   1 C     6.0000    0    12.011   40.845032  -56.076115    1.348021
   2 C     6.0000    0    12.011   39.454764  -56.557183   -0.848152
   3 C     6.0000    0    12.011   37.077952  -57.675535   -0.688649
   4 C     6.0000    0    12.011   36.028277  -58.244734    1.656527
   5 C     6.0000    0    12.011   37.377404  -57.709380    3.848168
   6 C     6.0000    0    12.011   33.469981  -59.491284    1.774251
   7 C     6.0000    0    12.011   33.575958  -62.366111    1.270604
   8 C     6.0000    0    12.011   31.036427  -63.475793    0.372995
   9 C     6.0000    0    12.011   30.471561  -62.834812   -2.406318
  10 C     6.0000    0    12.011   32.440163  -63.753208   -4.252045
  11 C     6.0000    0    12.011   33.103419  -66.314809   -4.336127
  12 C     6.0000    0    12.011   34.900076  -67.176381   -6.035814
  13 C     6.0000    0    12.011   36.051869  -65.486240   -7.726294
  14 C     6.0000    0    12.011   35.419830  -62.954894   -7.643080
  15 C     6.0000    0    12.011   33.631871  -62.097640   -5.905564
  16 C     6.0000    0    12.011   34.620520  -63.763122    3.575160
  17 C     6.0000    0    12.011   28.821012  -62.722017    2.066258
  18 O     8.0000    0    15.999   40.576085  -55.878395   -3.059088
  19 O     8.0000    0    15.999   41.263754  -56.145201    5.738765
  20 O     8.0000    0    15.999   43.144182  -54.877179    1.304142
  21 O     8.0000    0    15.999   37.791360  -66.338695   -9.432239
  22 O     8.0000    0    15.999   35.708309  -69.617985   -6.258078
  23 C     6.0000    0    12.011   45.299486  -55.966458    0.047247
  24 C     6.0000    0    12.011   46.090536  -58.488832    1.253121
  25 C     6.0000    0    12.011   44.253762  -60.613907    0.769375
  26 C     6.0000    0    12.011   47.316268  -53.932169    0.259311
  27 O     8.0000    0    15.999   47.973746  -53.377015    2.812380
  28 C     6.0000    0    12.011   43.705372  -61.340186   -1.713492
  29 C     6.0000    0    12.011   41.992951  -63.259368   -2.179197
  30 C     6.0000    0    12.011   40.811671  -64.489509   -0.147481
  31 C     6.0000    0    12.011   41.398482  -63.824826    2.307260
  32 C     6.0000    0    12.011   43.121717  -61.887321    2.760559
  33 C     6.0000    0    12.011   40.326575  -56.797107    8.177138
  34 C     6.0000    0    12.011   39.233037  -56.322973   -5.351523
  35 C     6.0000    0    12.011   34.723635  -71.450548   -4.543053
  36 O     8.0000    0    15.999   48.527448  -59.063259    0.194888
  37 O     8.0000    0    15.999   35.087159  -66.380816    3.108909
  38 O     8.0000    0    15.999   26.572388  -64.134879    1.538366
  39 O     8.0000    0    15.999   41.284508  -64.112313   -4.499828
  40 O     8.0000    0    15.999   39.082730  -66.360654   -0.603531
  41 C     6.0000    0    12.011   42.525142  -63.093573   -6.667799
  42 H     1.0000    0     1.008   36.021937  -58.097091   -2.383326
  43 H     1.0000    0     1.008   36.555939  -58.151400    5.662873
  44 H     1.0000    0     1.008   32.242265  -58.612370    0.368770
  45 H     1.0000    0     1.008   32.609401  -59.140195    3.619239
  46 H     1.0000    0     1.008   34.929305  -62.664374   -0.263228
  47 H     1.0000    0     1.008   31.218035  -65.531413    0.522012
  48 H     1.0000    0     1.008   30.259096  -60.790855   -2.618599
  49 H     1.0000    0     1.008   28.638730  -63.661490   -2.883382
  50 H     1.0000    0     1.008   32.203391  -67.630985   -3.059946
  51 H     1.0000    0     1.008   36.338579  -61.658653   -8.932447
  52 H     1.0000    0     1.008   33.165174  -60.105463   -5.852360
  53 H     1.0000    0     1.008   33.278610  -63.690793    5.141499
  54 H     1.0000    0     1.008   36.355114  -62.832665    4.204954
  55 H     1.0000    0     1.008   29.331449  -62.939799    4.058806
  56 H     1.0000    0     1.008   28.306361  -60.747690    1.763668
  57 H     1.0000    0     1.008   38.016723  -68.137927   -9.176516
  58 H     1.0000    0     1.008   44.879055  -56.261453   -1.949739
  59 H     1.0000    0     1.008   46.263520  -58.203322    3.292519
  60 H     1.0000    0     1.008   46.618473  -52.234158   -0.697636
  61 H     1.0000    0     1.008   49.034359  -54.554682   -0.680385
  62 H     1.0000    0     1.008   46.439143  -52.897309    3.678222
  63 H     1.0000    0     1.008   44.605468  -60.378006   -3.271925
  64 H     1.0000    0     1.008   40.496743  -64.814233    3.853040
  65 H     1.0000    0     1.008   43.544906  -61.342060    4.686071
  66 H     1.0000    0     1.008   38.605251  -55.746908    8.623881
  67 H     1.0000    0     1.008   39.949111  -58.822831    8.312954
  68 H     1.0000    0     1.008   41.809030  -56.281545    9.503552
  69 H     1.0000    0     1.008   40.472376  -55.685285   -6.861031
  70 H     1.0000    0     1.008   38.816757  -58.328068   -5.597536
  71 H     1.0000    0     1.008   37.469870  -55.248833   -5.398704
  72 H     1.0000    0     1.008   35.654402  -73.220904   -5.010996
  73 H     1.0000    0     1.008   35.149678  -70.931407   -2.590827
  74 H     1.0000    0     1.008   32.682428  -71.654489   -4.774754
  75 H     1.0000    0     1.008   48.934156  -60.783081    0.649785
  76 H     1.0000    0     1.008   36.350288  -66.504676    1.782229
  77 H     1.0000    0     1.008   26.928285  -65.898745    1.841615
  78 H     1.0000    0     1.008   38.821516  -66.502264   -2.412826
  79 H     1.0000    0     1.008   41.703134  -64.055824   -8.281760
  80 H     1.0000    0     1.008   42.193938  -61.063970   -6.821149
  81 H     1.0000    0     1.008   44.555777  -63.455179   -6.575890

--------------------------------
INTERNAL COORDINATES (ANGSTROEM)
--------------------------------
 C      0   0   0     0.000000000000     0.00000000     0.00000000
 C      1   0   0     1.397758905157     0.00000000     0.00000000
 C      2   1   0     1.398815362051   119.23602376     0.00000000
 C      3   2   1     1.392589941015   120.13265640   357.89643822
 C      4   3   2     1.392616922741   120.40919519     2.20795892
 C      5   4   3     1.391045555885   119.61815073   359.45758104
 C      5   4   3     1.507237737721   119.32404021   180.93136359
 C      7   5   4     1.545480176099   113.02187089    79.46014487
 C      8   7   5     1.541561127395   113.35744053   202.26581932
 C      9   8   7     1.538669726326   112.32777958    75.69515474
 C     10   9   8     1.508438188048   114.43954232    58.74210089
 C     11  10   9     1.400949248890   120.35283524    55.87910317
 C     12  11  10     1.385920963557   120.71595261   179.64035820
 C     13  12  11     1.404157883561   120.11191713   359.02540723
 C     14  13  12     1.381356249913   119.48921686     1.39149422
 C     11  10   9     1.389550966562   121.19976347   235.73795312
 C      8   7   5     1.529471141136   110.57264880    75.37641001
 C      9   8   7     1.528523771814   112.86655629   309.65811345
 O      3   2   1     1.360134834964   115.92239477   178.12701126
 O      1   2   3     1.360330754738   115.62710139   179.57480195
 O      2   1   3     1.372341332375   118.14015381   175.14242770
 O     14  13  12     1.365928965700   120.21288710   181.12318797
 O     13  12  11     1.366063766411   125.57720625   179.17192043
 C     21   2   1     1.440650694531   121.64845697   121.59915676
 C     24  21   2     1.537554513076   111.79432612   297.24074883
 C     25  24  21     1.508266195167   113.66379579    70.59680486
 C     24  21   2     1.520011240061   103.79253918   174.96439387
 O     27  24  21     1.425701693629   112.78269744    62.09397928
 C     26  25  24     1.399355229478   119.85261938    59.13815767
 C     29  26  25     1.383221683434   120.31738814   181.04445719
 C     30  29  26     1.403720932647   119.72029225   359.68641988
 C     31  30  29     1.381132429950   120.14188161   358.56543873
 C     26  25  24     1.386799992152   120.77764591   238.24247343
 C     20   1   2     1.424750201017   118.10169027   182.69214654
 C     19   3   2     1.425509836037   118.09467531   180.16764365
 C     23  13  12     1.426736596074   118.27831883   357.16570645
 O     25  24  21     1.438385424523   105.42443329   192.06164945
 O     17   8   7     1.428529657242   113.16954933   188.01442336
 O     18   9   8     1.432806136440   112.73696284   191.53917327
 O     30  29  26     1.360998034852   125.78228704   179.21157431
 O     31  30  29     1.369577623435   119.85436490   178.87287245
 C     40  30  29     1.427514279235   118.24353312     4.87522476
 H      4   3   2     1.079937273232   120.31848810   181.71092855
 H      6   5   4     1.079747263207   119.39072890   179.92233823
 H      7   5   4     1.091588071543   108.65943280   318.49623292
 H      7   5   4     1.093214239955   109.67564602   202.15287071
 H      8   7   5     1.093893972611   107.08218001   319.64727755
 H      9   8   7     1.094867599028   106.24528756   193.27657853
 H     10   9   8     1.093230182328   109.65166862   296.10533225
 H     10   9   8     1.093523586246   107.74527619   180.80253354
 H     12  11  10     1.080740662385   119.55873050   359.60924923
 H     15  14  13     1.082785984601   119.04598612   179.01801650
 H     16  11  10     1.083121779110   119.59121411     1.00392733
 H     17   8   7     1.092128925332   110.68433001    69.05570019
 H     17   8   7     1.093644941940   109.18988005   311.05827349
 H     18   9   8     1.094542962381   110.36285897   314.64885057
 H     18   9   8     1.091490475820   110.80334637    73.82723570
 H     22  14  13     0.969047416438   108.36817304   358.76348969
 H     24  21   2     1.091149384149   110.05665298    59.11575427
 H     25  24  21     1.093565035628   108.20539448   309.46412380
 H     27  24  21     1.095525666810   108.06503852   299.56328053
 H     27  24  21     1.087377018218   109.80020805   181.27162756
 H     28  27  24     0.966354660675   107.35881485   303.40794279
 H     29  26  25     1.079920214442   119.73903694     0.18486167
 H     32  31  30     1.082099084869   119.24887045   181.10385729
 H     33  26  25     1.082422134708   119.75801293     0.56806805
 H     34  20   1     1.092908602348   111.27785366   297.37093207
 H     34  20   1     1.092784300980   111.14349527    59.57213053
 H     34  20   1     1.087436898259   105.82596284   178.48866083
 H     35  19   3     1.087227137514   105.85902379   181.12758738
 H     35  19   3     1.091467582481   111.25764255   300.14889636
 H     35  19   3     1.092819670996   111.05520703    62.14608137
 H     36  23  13     1.086999884207   105.98615313   181.85593975
 H     36  23  13     1.092492573809   110.80707500   300.91372648
 H     36  23  13     1.092440677237   110.90773246    62.83958147
 H     37  25  24     0.965676474914   107.57338244   191.04211730
 H     38  17   8     0.971572221487   108.00757099    61.54790245
 H     39  18   9     0.965635114815   108.06029893    61.06474801
 H     41  31  30     0.970262640886   108.95878659   356.01831361
 H     42  40  30     1.085328641353   105.71897868   178.85143798
 H     42  40  30     1.091247347203   110.95175751   297.84591679
 H     42  40  30     1.092553463907   110.51248146    59.49524765

---------------------------
INTERNAL COORDINATES (A.U.)
---------------------------
 C      0   0   0     0.000000000000     0.00000000     0.00000000
 C      1   0   0     2.641381531996     0.00000000     0.00000000
 C      2   1   0     2.643377946197   119.23602376     0.00000000
 C      3   2   1     2.631613605372   120.13265640   357.89643822
 C      4   3   2     2.631664593445   120.40919519     2.20795892
 C      5   4   3     2.628695140431   119.61815073   359.45758104
 C      5   4   3     2.848266543004   119.32404021   180.93136359
 C      7   5   4     2.920534278232   113.02187089    79.46014487
 C      8   7   5     2.913128349475   113.35744053   202.26581932
 C      9   8   7     2.907664393312   112.32777958    75.69515474
 C     10   9   8     2.850535065359   114.43954232    58.74210089
 C     11  10   9     2.647410407924   120.35283524    55.87910317
 C     12  11  10     2.619011064384   120.71595261   179.64035820
 C     13  12  11     2.653473848717   120.11191713   359.02540723
 C     14  13  12     2.610385005716   119.48921686     1.39149422
 C     11  10   9     2.625870775928   121.19976347   235.73795312
 C      8   7   5     2.890281586483   110.57264880    75.37641001
 C      9   8   7     2.888491317918   112.86655629   309.65811345
 O      3   2   1     2.570282343287   115.92239477   178.12701126
 O      1   2   3     2.570652578005   115.62710139   179.57480195
 O      2   1   3     2.593349280450   118.14015381   175.14242770
 O     14  13  12     2.581231663563   120.21288710   181.12318797
 O     13  12  11     2.581486399991   125.57720625   179.17192043
 C     21   2   1     2.722435267307   121.64845697   121.59915676
 C     24  21   2     2.905556945688   111.79432612   297.24074883
 C     25  24  21     2.850210045918   113.66379579    70.59680486
 C     24  21   2     2.872404964197   103.79253918   174.96439387
 O     27  24  21     2.694185749627   112.78269744    62.09397928
 C     26  25  24     2.644398147783   119.85261938    59.13815767
 C     29  26  25     2.613910164191   120.31738814   181.04445719
 C     30  29  26     2.652648131156   119.72029225   359.68641988
 C     31  30  29     2.609962047284   120.14188161   358.56543873
 C     26  25  24     2.620672187691   120.77764591   238.24247343
 C     20   1   2     2.692387689172   118.10169027   182.69214654
 C     19   3   2     2.693823191321   118.09467531   180.16764365
 C     23  13  12     2.696141431823   118.27831883   357.16570645
 O     25  24  21     2.718154527372   105.42443329   192.06164945
 O     17   8   7     2.699529826371   113.16954933   188.01442336
 O     18   9   8     2.707611200874   112.73696284   191.53917327
 O     30  29  26     2.571913554676   125.78228704   179.21157431
 O     31  30  29     2.588126627439   119.85436490   178.87287245
 C     40  30  29     2.697611040016   118.24353312     4.87522476
 H      4   3   2     2.040785688222   120.31848810   181.71092855
 H      6   5   4     2.040426621312   119.39072890   179.92233823
 H      7   5   4     2.062802506271   108.65943280   318.49623292
 H      7   5   4     2.065875519218   109.67564602   202.15287071
 H      8   7   5     2.067160027781   107.08218001   319.64727755
 H      9   8   7     2.068999915067   106.24528756   193.27657853
 H     10   9   8     2.065905645937   109.65166862   296.10533225
 H     10   9   8     2.066460098988   107.74527619   180.80253354
 H     12  11  10     2.042303873700   119.55873050   359.60924923
 H     15  14  13     2.046168972544   119.04598612   179.01801650
 H     16  11  10     2.046803532203   119.59121411     1.00392733
 H     17   8   7     2.063824571811   110.68433001    69.05570019
 H     17   8   7     2.066689428015   109.18988005   311.05827349
 H     18   9   8     2.068386440711   110.36285897   314.64885057
 H     18   9   8     2.062618077083   110.80334637    73.82723570
 H     22  14  13     1.831234227852   108.36817304   358.76348969
 H     24  21   2     2.061973507238   110.05665298    59.11575427
 H     25  24  21     2.066538426969   108.20539448   309.46412380
 H     27  24  21     2.070243482951   108.06503852   299.56328053
 H     27  24  21     2.054844768751   109.80020805   181.27162756
 H     28  27  24     1.826145656915   107.35881485   303.40794279
 H     29  26  25     2.040753451781   119.73903694     0.18486167
 H     32  31  30     2.044870920169   119.24887045   181.10385729
 H     33  26  25     2.045481395893   119.75801293     0.56806805
 H     34  20   1     2.065297947845   111.27785366   297.37093207
 H     34  20   1     2.065063052301   111.14349527    59.57213053
 H     34  20   1     2.054957925630   105.82596284   178.48866083
 H     35  19   3     2.054561535268   105.85902379   181.12758738
 H     35  19   3     2.062574814942   111.25764255   300.14889636
 H     35  19   3     2.065129891945   111.05520703    62.14608137
 H     36  23  13     2.054132088756   105.98615313   181.85593975
 H     36  23  13     2.064511767841   110.80707500   300.91372648
 H     36  23  13     2.064413697533   110.90773246    62.83958147
 H     37  25  24     1.824864071559   107.57338244   191.04211730
 H     38  17   8     1.836005417936   108.00757099    61.54790245
 H     39  18   9     1.824785912297   108.06029893    61.06474801
 H     41  31  30     1.833530669249   108.95878659   356.01831361
 H     42  40  30     2.050973897457   105.71897868   178.85143798
 H     42  40  30     2.062158630581   110.95175751   297.84591679
 H     42  40  30     2.064626833452   110.51248146    59.49524765

---------------------
BASIS SET INFORMATION
---------------------
There are 3 groups of distinct atoms

 Group   1 Type C   : 11s7p2d1f contracted to 4s5p2d1f pattern {7211/31111/11/1}
 Group   2 Type O   : 11s7p2d1f contracted to 4s5p2d1f pattern {7211/31111/11/1}
 Group   3 Type H   : 6s3p1d contracted to 3s2p1d pattern {411/21/1}

Atom   0C    basis set group =>   1
Atom   1C    basis set group =>   1
Atom   2C    basis set group =>   1
Atom   3C    basis set group =>   1
Atom   4C    basis set group =>   1
Atom   5C    basis set group =>   1
Atom   6C    basis set group =>   1
Atom   7C    basis set group =>   1
Atom   8C    basis set group =>   1
Atom   9C    basis set group =>   1
Atom  10C    basis set group =>   1
Atom  11C    basis set group =>   1
Atom  12C    basis set group =>   1
Atom  13C    basis set group =>   1
Atom  14C    basis set group =>   1
Atom  15C    basis set group =>   1
Atom  16C    basis set group =>   1
Atom  17C    basis set group =>   1
Atom  18O    basis set group =>   2
Atom  19O    basis set group =>   2
Atom  20O    basis set group =>   2
Atom  21O    basis set group =>   2
Atom  22O    basis set group =>   2
Atom  23C    basis set group =>   1
Atom  24C    basis set group =>   1
Atom  25C    basis set group =>   1
Atom  26C    basis set group =>   1
Atom  27O    basis set group =>   2
Atom  28C    basis set group =>   1
Atom  29C    basis set group =>   1
Atom  30C    basis set group =>   1
Atom  31C    basis set group =>   1
Atom  32C    basis set group =>   1
Atom  33C    basis set group =>   1
Atom  34C    basis set group =>   1
Atom  35C    basis set group =>   1
Atom  36O    basis set group =>   2
Atom  37O    basis set group =>   2
Atom  38O    basis set group =>   2
Atom  39O    basis set group =>   2
Atom  40O    basis set group =>   2
Atom  41C    basis set group =>   1
Atom  42H    basis set group =>   3
Atom  43H    basis set group =>   3
Atom  44H    basis set group =>   3
Atom  45H    basis set group =>   3
Atom  46H    basis set group =>   3
Atom  47H    basis set group =>   3
Atom  48H    basis set group =>   3
Atom  49H    basis set group =>   3
Atom  50H    basis set group =>   3
Atom  51H    basis set group =>   3
Atom  52H    basis set group =>   3
Atom  53H    basis set group =>   3
Atom  54H    basis set group =>   3
Atom  55H    basis set group =>   3
Atom  56H    basis set group =>   3
Atom  57H    basis set group =>   3
Atom  58H    basis set group =>   3
Atom  59H    basis set group =>   3
Atom  60H    basis set group =>   3
Atom  61H    basis set group =>   3
Atom  62H    basis set group =>   3
Atom  63H    basis set group =>   3
Atom  64H    basis set group =>   3
Atom  65H    basis set group =>   3
Atom  66H    basis set group =>   3
Atom  67H    basis set group =>   3
Atom  68H    basis set group =>   3
Atom  69H    basis set group =>   3
Atom  70H    basis set group =>   3
Atom  71H    basis set group =>   3
Atom  72H    basis set group =>   3
Atom  73H    basis set group =>   3
Atom  74H    basis set group =>   3
Atom  75H    basis set group =>   3
Atom  76H    basis set group =>   3
Atom  77H    basis set group =>   3
Atom  78H    basis set group =>   3
Atom  79H    basis set group =>   3
Atom  80H    basis set group =>   3
Atom  81H    basis set group =>   3
---------------------------------
AUXILIARY/J BASIS SET INFORMATION
---------------------------------
There are 3 groups of distinct atoms

 Group   1 Type C   : 15s13p12d5f5g contracted to 15s13p12d5f5g pattern {111111111111111/1111111111111/111111111111/11111/11111}
 Group   2 Type O   : 15s13p12d5f5g contracted to 15s13p12d5f5g pattern {111111111111111/1111111111111/111111111111/11111/11111}
 Group   3 Type H   : 12s4p3d2f contracted to 12s4p3d2f pattern {111111111111/1111/111/11}

Atom   0C    basis set group =>   1
Atom   1C    basis set group =>   1
Atom   2C    basis set group =>   1
Atom   3C    basis set group =>   1
Atom   4C    basis set group =>   1
Atom   5C    basis set group =>   1
Atom   6C    basis set group =>   1
Atom   7C    basis set group =>   1
Atom   8C    basis set group =>   1
Atom   9C    basis set group =>   1
Atom  10C    basis set group =>   1
Atom  11C    basis set group =>   1
Atom  12C    basis set group =>   1
Atom  13C    basis set group =>   1
Atom  14C    basis set group =>   1
Atom  15C    basis set group =>   1
Atom  16C    basis set group =>   1
Atom  17C    basis set group =>   1
Atom  18O    basis set group =>   2
Atom  19O    basis set group =>   2
Atom  20O    basis set group =>   2
Atom  21O    basis set group =>   2
Atom  22O    basis set group =>   2
Atom  23C    basis set group =>   1
Atom  24C    basis set group =>   1
Atom  25C    basis set group =>   1
Atom  26C    basis set group =>   1
Atom  27O    basis set group =>   2
Atom  28C    basis set group =>   1
Atom  29C    basis set group =>   1
Atom  30C    basis set group =>   1
Atom  31C    basis set group =>   1
Atom  32C    basis set group =>   1
Atom  33C    basis set group =>   1
Atom  34C    basis set group =>   1
Atom  35C    basis set group =>   1
Atom  36O    basis set group =>   2
Atom  37O    basis set group =>   2
Atom  38O    basis set group =>   2
Atom  39O    basis set group =>   2
Atom  40O    basis set group =>   2
Atom  41C    basis set group =>   1
Atom  42H    basis set group =>   3
Atom  43H    basis set group =>   3
Atom  44H    basis set group =>   3
Atom  45H    basis set group =>   3
Atom  46H    basis set group =>   3
Atom  47H    basis set group =>   3
Atom  48H    basis set group =>   3
Atom  49H    basis set group =>   3
Atom  50H    basis set group =>   3
Atom  51H    basis set group =>   3
Atom  52H    basis set group =>   3
Atom  53H    basis set group =>   3
Atom  54H    basis set group =>   3
Atom  55H    basis set group =>   3
Atom  56H    basis set group =>   3
Atom  57H    basis set group =>   3
Atom  58H    basis set group =>   3
Atom  59H    basis set group =>   3
Atom  60H    basis set group =>   3
Atom  61H    basis set group =>   3
Atom  62H    basis set group =>   3
Atom  63H    basis set group =>   3
Atom  64H    basis set group =>   3
Atom  65H    basis set group =>   3
Atom  66H    basis set group =>   3
Atom  67H    basis set group =>   3
Atom  68H    basis set group =>   3
Atom  69H    basis set group =>   3
Atom  70H    basis set group =>   3
Atom  71H    basis set group =>   3
Atom  72H    basis set group =>   3
Atom  73H    basis set group =>   3
Atom  74H    basis set group =>   3
Atom  75H    basis set group =>   3
Atom  76H    basis set group =>   3
Atom  77H    basis set group =>   3
Atom  78H    basis set group =>   3
Atom  79H    basis set group =>   3
Atom  80H    basis set group =>   3
Atom  81H    basis set group =>   3
---------------------------------
AUXILIARY/C BASIS SET INFORMATION
---------------------------------
There are 3 groups of distinct atoms

 Group   1 Type C   : 15s13p12d5f5g contracted to 15s13p12d5f5g pattern {111111111111111/1111111111111/111111111111/11111/11111}
 Group   2 Type O   : 15s13p12d5f5g contracted to 15s13p12d5f5g pattern {111111111111111/1111111111111/111111111111/11111/11111}
 Group   3 Type H   : 12s4p3d2f contracted to 12s4p3d2f pattern {111111111111/1111/111/11}

Atom   0C    basis set group =>   1
Atom   1C    basis set group =>   1
Atom   2C    basis set group =>   1
Atom   3C    basis set group =>   1
Atom   4C    basis set group =>   1
Atom   5C    basis set group =>   1
Atom   6C    basis set group =>   1
Atom   7C    basis set group =>   1
Atom   8C    basis set group =>   1
Atom   9C    basis set group =>   1
Atom  10C    basis set group =>   1
Atom  11C    basis set group =>   1
Atom  12C    basis set group =>   1
Atom  13C    basis set group =>   1
Atom  14C    basis set group =>   1
Atom  15C    basis set group =>   1
Atom  16C    basis set group =>   1
Atom  17C    basis set group =>   1
Atom  18O    basis set group =>   2
Atom  19O    basis set group =>   2
Atom  20O    basis set group =>   2
Atom  21O    basis set group =>   2
Atom  22O    basis set group =>   2
Atom  23C    basis set group =>   1
Atom  24C    basis set group =>   1
Atom  25C    basis set group =>   1
Atom  26C    basis set group =>   1
Atom  27O    basis set group =>   2
Atom  28C    basis set group =>   1
Atom  29C    basis set group =>   1
Atom  30C    basis set group =>   1
Atom  31C    basis set group =>   1
Atom  32C    basis set group =>   1
Atom  33C    basis set group =>   1
Atom  34C    basis set group =>   1
Atom  35C    basis set group =>   1
Atom  36O    basis set group =>   2
Atom  37O    basis set group =>   2
Atom  38O    basis set group =>   2
Atom  39O    basis set group =>   2
Atom  40O    basis set group =>   2
Atom  41C    basis set group =>   1
Atom  42H    basis set group =>   3
Atom  43H    basis set group =>   3
Atom  44H    basis set group =>   3
Atom  45H    basis set group =>   3
Atom  46H    basis set group =>   3
Atom  47H    basis set group =>   3
Atom  48H    basis set group =>   3
Atom  49H    basis set group =>   3
Atom  50H    basis set group =>   3
Atom  51H    basis set group =>   3
Atom  52H    basis set group =>   3
Atom  53H    basis set group =>   3
Atom  54H    basis set group =>   3
Atom  55H    basis set group =>   3
Atom  56H    basis set group =>   3
Atom  57H    basis set group =>   3
Atom  58H    basis set group =>   3
Atom  59H    basis set group =>   3
Atom  60H    basis set group =>   3
Atom  61H    basis set group =>   3
Atom  62H    basis set group =>   3
Atom  63H    basis set group =>   3
Atom  64H    basis set group =>   3
Atom  65H    basis set group =>   3
Atom  66H    basis set group =>   3
Atom  67H    basis set group =>   3
Atom  68H    basis set group =>   3
Atom  69H    basis set group =>   3
Atom  70H    basis set group =>   3
Atom  71H    basis set group =>   3
Atom  72H    basis set group =>   3
Atom  73H    basis set group =>   3
Atom  74H    basis set group =>   3
Atom  75H    basis set group =>   3
Atom  76H    basis set group =>   3
Atom  77H    basis set group =>   3
Atom  78H    basis set group =>   3
Atom  79H    basis set group =>   3
Atom  80H    basis set group =>   3
Atom  81H    basis set group =>   3
----------------------------------
AUXILIARY/JK BASIS SET INFORMATION
----------------------------------
There are 3 groups of distinct atoms

 Group   1 Type C   : 15s13p12d5f5g contracted to 15s13p12d5f5g pattern {111111111111111/1111111111111/111111111111/11111/11111}
 Group   2 Type O   : 15s13p12d5f5g contracted to 15s13p12d5f5g pattern {111111111111111/1111111111111/111111111111/11111/11111}
 Group   3 Type H   : 12s4p3d2f contracted to 12s4p3d2f pattern {111111111111/1111/111/11}

Atom   0C    basis set group =>   1
Atom   1C    basis set group =>   1
Atom   2C    basis set group =>   1
Atom   3C    basis set group =>   1
Atom   4C    basis set group =>   1
Atom   5C    basis set group =>   1
Atom   6C    basis set group =>   1
Atom   7C    basis set group =>   1
Atom   8C    basis set group =>   1
Atom   9C    basis set group =>   1
Atom  10C    basis set group =>   1
Atom  11C    basis set group =>   1
Atom  12C    basis set group =>   1
Atom  13C    basis set group =>   1
Atom  14C    basis set group =>   1
Atom  15C    basis set group =>   1
Atom  16C    basis set group =>   1
Atom  17C    basis set group =>   1
Atom  18O    basis set group =>   2
Atom  19O    basis set group =>   2
Atom  20O    basis set group =>   2
Atom  21O    basis set group =>   2
Atom  22O    basis set group =>   2
Atom  23C    basis set group =>   1
Atom  24C    basis set group =>   1
Atom  25C    basis set group =>   1
Atom  26C    basis set group =>   1
Atom  27O    basis set group =>   2
Atom  28C    basis set group =>   1
Atom  29C    basis set group =>   1
Atom  30C    basis set group =>   1
Atom  31C    basis set group =>   1
Atom  32C    basis set group =>   1
Atom  33C    basis set group =>   1
Atom  34C    basis set group =>   1
Atom  35C    basis set group =>   1
Atom  36O    basis set group =>   2
Atom  37O    basis set group =>   2
Atom  38O    basis set group =>   2
Atom  39O    basis set group =>   2
Atom  40O    basis set group =>   2
Atom  41C    basis set group =>   1
Atom  42H    basis set group =>   3
Atom  43H    basis set group =>   3
Atom  44H    basis set group =>   3
Atom  45H    basis set group =>   3
Atom  46H    basis set group =>   3
Atom  47H    basis set group =>   3
Atom  48H    basis set group =>   3
Atom  49H    basis set group =>   3
Atom  50H    basis set group =>   3
Atom  51H    basis set group =>   3
Atom  52H    basis set group =>   3
Atom  53H    basis set group =>   3
Atom  54H    basis set group =>   3
Atom  55H    basis set group =>   3
Atom  56H    basis set group =>   3
Atom  57H    basis set group =>   3
Atom  58H    basis set group =>   3
Atom  59H    basis set group =>   3
Atom  60H    basis set group =>   3
Atom  61H    basis set group =>   3
Atom  62H    basis set group =>   3
Atom  63H    basis set group =>   3
Atom  64H    basis set group =>   3
Atom  65H    basis set group =>   3
Atom  66H    basis set group =>   3
Atom  67H    basis set group =>   3
Atom  68H    basis set group =>   3
Atom  69H    basis set group =>   3
Atom  70H    basis set group =>   3
Atom  71H    basis set group =>   3
Atom  72H    basis set group =>   3
Atom  73H    basis set group =>   3
Atom  74H    basis set group =>   3
Atom  75H    basis set group =>   3
Atom  76H    basis set group =>   3
Atom  77H    basis set group =>   3
Atom  78H    basis set group =>   3
Atom  79H    basis set group =>   3
Atom  80H    basis set group =>   3
Atom  81H    basis set group =>   3
---------------------------------
AUXILIARY/X BASIS SET INFORMATION
---------------------------------
There are 3 groups of distinct atoms

 Group   1 Type C   : 15s13p12d5f5g contracted to 15s13p12d5f5g pattern {111111111111111/1111111111111/111111111111/11111/11111}
 Group   2 Type O   : 15s13p12d5f5g contracted to 15s13p12d5f5g pattern {111111111111111/1111111111111/111111111111/11111/11111}
 Group   3 Type H   : 12s4p3d2f contracted to 12s4p3d2f pattern {111111111111/1111/111/11}

Atom   0C    basis set group =>   1
Atom   1C    basis set group =>   1
Atom   2C    basis set group =>   1
Atom   3C    basis set group =>   1
Atom   4C    basis set group =>   1
Atom   5C    basis set group =>   1
Atom   6C    basis set group =>   1
Atom   7C    basis set group =>   1
Atom   8C    basis set group =>   1
Atom   9C    basis set group =>   1
Atom  10C    basis set group =>   1
Atom  11C    basis set group =>   1
Atom  12C    basis set group =>   1
Atom  13C    basis set group =>   1
Atom  14C    basis set group =>   1
Atom  15C    basis set group =>   1
Atom  16C    basis set group =>   1
Atom  17C    basis set group =>   1
Atom  18O    basis set group =>   2
Atom  19O    basis set group =>   2
Atom  20O    basis set group =>   2
Atom  21O    basis set group =>   2
Atom  22O    basis set group =>   2
Atom  23C    basis set group =>   1
Atom  24C    basis set group =>   1
Atom  25C    basis set group =>   1
Atom  26C    basis set group =>   1
Atom  27O    basis set group =>   2
Atom  28C    basis set group =>   1
Atom  29C    basis set group =>   1
Atom  30C    basis set group =>   1
Atom  31C    basis set group =>   1
Atom  32C    basis set group =>   1
Atom  33C    basis set group =>   1
Atom  34C    basis set group =>   1
Atom  35C    basis set group =>   1
Atom  36O    basis set group =>   2
Atom  37O    basis set group =>   2
Atom  38O    basis set group =>   2
Atom  39O    basis set group =>   2
Atom  40O    basis set group =>   2
Atom  41C    basis set group =>   1
Atom  42H    basis set group =>   3
Atom  43H    basis set group =>   3
Atom  44H    basis set group =>   3
Atom  45H    basis set group =>   3
Atom  46H    basis set group =>   3
Atom  47H    basis set group =>   3
Atom  48H    basis set group =>   3
Atom  49H    basis set group =>   3
Atom  50H    basis set group =>   3
Atom  51H    basis set group =>   3
Atom  52H    basis set group =>   3
Atom  53H    basis set group =>   3
Atom  54H    basis set group =>   3
Atom  55H    basis set group =>   3
Atom  56H    basis set group =>   3
Atom  57H    basis set group =>   3
Atom  58H    basis set group =>   3
Atom  59H    basis set group =>   3
Atom  60H    basis set group =>   3
Atom  61H    basis set group =>   3
Atom  62H    basis set group =>   3
Atom  63H    basis set group =>   3
Atom  64H    basis set group =>   3
Atom  65H    basis set group =>   3
Atom  66H    basis set group =>   3
Atom  67H    basis set group =>   3
Atom  68H    basis set group =>   3
Atom  69H    basis set group =>   3
Atom  70H    basis set group =>   3
Atom  71H    basis set group =>   3
Atom  72H    basis set group =>   3
Atom  73H    basis set group =>   3
Atom  74H    basis set group =>   3
Atom  75H    basis set group =>   3
Atom  76H    basis set group =>   3
Atom  77H    basis set group =>   3
Atom  78H    basis set group =>   3
Atom  79H    basis set group =>   3
Atom  80H    basis set group =>   3
Atom  81H    basis set group =>   3
--------------------------------------------------------------------------
WARNING: There was an error initializing an OpenFabrics device.

  Local host:   c02b01n06
  Local device: mlx5_0
--------------------------------------------------------------------------
--------------------------------------------------------------------------
WARNING: There is at least one non-excluded one OpenFabrics device found,
but there are no active ports detected (or Open MPI was unable to use
them).  This is most certainly not what you wanted.  Check your
cables, subnet manager configuration, etc.  The openib BTL will be
ignored for this job.

  Local host: c02b01n06
--------------------------------------------------------------------------


           ************************************************************
           *        Program running with 60 parallel MPI-processes    *
           *              working on a common directory               *
           ************************************************************
------------------------------------------------------------------------------
                             ORCA STARTUP CALCULATIONS
                           -- RI-GTO INTEGRALS CHOSEN --
------------------------------------------------------------------------------
------------------------------------------------------------------------------
                   ___                                                        
                  /   \      - P O W E R E D   B Y -                         
                 /     \                                                     
                 |  |  |   _    _      __       _____    __    __             
                 |  |  |  | |  | |    /  \     |  _  \  |  |  /  |          
                  \  \/   | |  | |   /    \    | | | |  |  | /  /          
                 / \  \   | |__| |  /  /\  \   | |_| |  |  |/  /          
                |  |  |   |  __  | /  /__\  \  |    /   |      \           
                |  |  |   | |  | | |   __   |  |    \   |  |\   \          
                \     /   | |  | | |  |  |  |  | |\  \  |  | \   \       
                 \___/    |_|  |_| |__|  |__|  |_| \__\ |__|  \__/        
                                                                              
                      - O R C A' S   B I G   F R I E N D -                    
                                      &                                       
                       - I N T E G R A L  F E E D E R -                       
                                                                              
 v1 FN, 2020, v2 2021, v3 2022-2024                                           
------------------------------------------------------------------------------


----------------------
SHARK INTEGRAL PACKAGE
----------------------

Number of atoms                             ...     82
Number of basis functions                   ...   2072
Number of shells                            ...    744
Maximum angular momentum                    ...      3
Integral batch strategy                     ... SHARK/LIBINT Hybrid
RI-J (if used) integral strategy            ... SPLIT-RIJ (Revised 2003 algorithm where possible)
Printlevel                                  ...      1
Contraction scheme used                     ... SEGMENTED contraction
Prescreening option                         ... SCHWARTZ
   Thresh                                   ... 1.000e-10
   Tcut                                     ... 1.000e-11
   Tpresel                                  ... 1.000e-11 
Coulomb Range Separation                    ... NOT USED
Exchange Range Separation                   ... NOT USED
Multipole approximations                    ... NOT USED
Finite Nucleus Model                        ... NOT USED
CABS basis                                  ... NOT available
Auxiliary Coulomb fitting basis             ... AVAILABLE
   # of basis functions in Aux-J            ...  10268
   # of shells in Aux-J                     ...   2940
   Maximum angular momentum in Aux-J        ...      4
Auxiliary J/K fitting basis                 ... AVAILABLE
   # of basis functions in Aux-JK           ...  10268
   # of shells in Aux-JK                    ...   2940
   Maximum angular momentum in Aux-JK       ...      4
Auxiliary Correlation fitting basis         ... AVAILABLE
   # of basis functions in Aux-C            ...  10268
   # of shells in Aux-C                     ...   2940
   Maximum angular momentum in Aux-C        ...      4
Auxiliary 'external' fitting basis          ... NOT available

Checking pre-screening integrals            ... done (  0.0 sec) Dimension = 744
   => SHARK Basis and OBASIS are compatible. Storing Pre-screening
Shell pair information
Shell pair cut-off parameter TPreSel        ...   1.0e-11
Total number of shell pairs                 ...    277140
Shell pairs after pre-screening             ...    150019
Total number of primitive shell pairs       ...    823733
Primitive shell pairs kept                  ...    274677
          la=0 lb=0:  28573 shell pairs
          la=1 lb=0:  49896 shell pairs
          la=1 lb=1:  20367 shell pairs
          la=2 lb=0:  19660 shell pairs
          la=2 lb=1:  14854 shell pairs
          la=2 lb=2:   2653 shell pairs
          la=3 lb=0:   6779 shell pairs
          la=3 lb=1:   5103 shell pairs
          la=3 lb=2:   1800 shell pairs
          la=3 lb=3:    334 shell pairs

Checking whether 4 symmetric matrices of dimension 2072 fit in memory
:Max Core in MB      =   5000.00
 MB in use           =    185.32
 MB left             =   4814.68
 MB needed           =     65.54
 Data fit in memory  = YES
Calculating RI/J V-Matrix + Cholesky decomp.... [c02b01n06:2440487] 46 more processes have sent help message help-mpi-btl-openib.txt / error in device init
[c02b01n06:2440487] Set MCA parameter "orte_base_help_aggregate" to 0 to see all help / error messages
[c02b01n06:2440487] 12 more processes have sent help message help-mpi-btl-openib.txt / no active ports found
done ( 13.4 sec)
Calculating RI/JK V-Matrix + Cholesky decomp.... done (  8.6 sec)
Calculating RI/C V-Matrix + Cholesky decomp.... done ( 11.2 sec)
Calculating Nuclear repulsion               ... done (  0.0 sec) ENN=   5686.743026509090 Eh

Diagonalization of the overlap matrix:
Smallest eigenvalue                        ... 7.333e-06
Time for diagonalization                   ...    6.364 sec
Threshold for overlap eigenvalues          ... 1.000e-07
Number of eigenvalues below threshold      ... 0
Time for construction of square roots      ...    0.675 sec
Total time needed                          ...    7.106 sec

-------------------
DFT GRID GENERATION
-------------------

General Integration Accuracy     IntAcc      ... 4.388
Radial Grid Type                 RadialGrid  ... OptM3 with GC (2021)
Angular Grid (max. ang.)         AngularGrid ... 4 (Lebedev-302)
Angular grid pruning method      GridPruning ... 4 (adaptive)
Weight generation scheme         WeightScheme... mBecke (2022)
Basis function cutoff            BFCut       ... 1.0000e-10
Integration weight cutoff        WCut        ... 1.0000e-14
Partially contracted basis set               ... off
Rotationally invariant grid construction     ... off
Angular grids for H and He will be reduced by one unit
Diffuse basis detected: some atoms will have their outermost
                        angular grid increased by 1.

Total number of grid points                  ...   376898
Total number of batches                      ...     5930
Average number of points per batch           ...       63
Average number of grid points per atom       ...     4596
Grids setup in   3.7 sec
Initializing property integral containers    ... done (  0.2 sec)

SHARK setup successfully completed in  48.3 seconds

Maximum memory used throughout the entire STARTUP-calculation: 257.3 MB
--------------------------------------------------------------------------
WARNING: There was an error initializing an OpenFabrics device.

  Local host:   c02b01n06
  Local device: mlx5_0
--------------------------------------------------------------------------
--------------------------------------------------------------------------
WARNING: There is at least one non-excluded one OpenFabrics device found,
but there are no active ports detected (or Open MPI was unable to use
them).  This is most certainly not what you wanted.  Check your
cables, subnet manager configuration, etc.  The openib BTL will be
ignored for this job.

  Local host: c02b01n06
--------------------------------------------------------------------------


           ************************************************************
           *        Program running with 60 parallel MPI-processes    *
           *              working on a common directory               *
           ************************************************************
-------------------------------------------------------------------------------
                                 ORCA GUESS
                   Start orbitals & Density for SCF / CASSCF
-------------------------------------------------------------------------------

------------
SCF SETTINGS
------------
Hamiltonian:
 Density Functional     Method          .... DFT(GTOs)
 Exchange Functional    Exchange        .... TPSS
 Correlation Functional Correlation     .... TPSS
 LDA part of GGA corr.  LDAOpt          .... PW91-LDA
 Gradients option       PostSCFGGA      .... off
   NL short-range parameter             ....  5.000000
 RI-approximation to the Coulomb term is turned on
   Number of AuxJ basis functions       .... 10268


General Settings:
 Integral files         IntName         .... nmr-conf-2
 Hartree-Fock type      HFTyp           .... RHF
 Total Charge           Charge          ....    0
 Multiplicity           Mult            ....    1
 Number of Electrons    NEL             ....  314
 Basis Dimension        Dim             .... 2072
 Nuclear Repulsion      ENuc            ....   5686.7430265091 Eh

Convergence Acceleration:
 AO-DIIS                CNVDIIS         .... on
   Start iteration      DIISMaxIt       ....    12
   Startup error        DIISStart       ....  0.200000
   # of expansion vecs  DIISMaxEq       ....     5
   Bias factor          DIISBfac        ....   1.050
   Max. coefficient     DIISMaxC        ....  10.000
 MO-DIIS                CNVKDIIS        .... off
 Trust-Rad. Augm. Hess. CNVTRAH         .... auto
   Auto Start mean grad. ratio tolernc. ....  1.125000
   Auto Start start iteration           ....    50
   Auto Start num. interpolation iter.  ....    10
   Max. Number of Micro iterations      ....    24
   Max. Number of Macro iterations      .... Maxiter - #DIIS iter
   Number of Davidson start vectors     ....     2
   Converg. threshold    (grad. norm)   ....   5.000e-05
   Grad. Scal. Fac. for Micro threshold ....   0.100
   Minimum threshold for Micro iter.    ....   1.000e-02
   NR start threshold (gradient norm)   ....   1.000e-04
   Initial trust radius                 ....   0.400
   Minimum AH scaling param. (alpha)    ....   1.000
   Maximum AH scaling param. (alpha)    .... 1000.000
   Quad. conv. algorithm                .... NR
   White noise on init. David. guess    .... on
   Maximum white noise                  ....   0.010
   Pseudo random numbers                .... off
   Inactive MOs                         .... canonical
   Orbital update algorithm             .... Taylor
   Preconditioner                       .... Diag
   Full preconditioner red. dimension   ....   250
 SOSCF                 CNVSOSCF           .... on
   Start iteration     SOSCFMaxIt         ....   150
   Startup grad/error  SOSCFStart         ....  0.003300
   Hessian update      SOSCFHessUp        .... L-BFGS
   Autom. constraints  SOSCFAutoConstrain .... off
 Level Shifting         CNVShift        .... on
   Level shift para.    LevelShift      ....    0.2500
   Turn off err/grad.   ShiftErr        ....    0.0010
 Zerner damping         CNVZerner       .... off
 Static damping         CNVDamp         .... on
   Fraction old density DampFac         ....    0.7000
   Max. Damping (<1)    DampMax         ....    0.9800
   Min. Damping (>=0)   DampMin         ....    0.0000
   Turn off err/grad.   DampErr         ....    0.1000

SCF Procedure:
 Maximum # iterations   MaxIter         ....   125
 SCF integral mode      SCFMode         .... Direct
   Integral package                     .... SHARK and LIBINT hybrid scheme
 Reset frequency        DirectResetFreq ....    20
 Integral Threshold     Thresh          ....  1.000e-10 Eh
 Primitive CutOff       TCut            ....  1.000e-11 Eh

Convergence Tolerance:
 Convergence Check Mode ConvCheckMode   .... Total+1el-Energy
 Convergence forced     ConvForced      .... 0
 Energy Change          TolE            ....  1.000e-06 Eh
 1-El. energy change                    ....  1.000e-03 Eh
 Orbital Gradient       TolG            ....  5.000e-05
 Orbital Rotation angle TolX            ....  5.000e-05
 DIIS Error             TolErr          ....  1.000e-06

------------------------------
INITIAL GUESS: MODEL POTENTIAL
------------------------------
Loading Hartree-Fock densities                     ... done
Calculating cut-offs                               ... done
Initializing the effective Hamiltonian             ... done
Setting up the integral package (SHARK)            ... done
Starting the Coulomb interaction                   ... done (   0.9 sec)
Making the grid                                    ... done (   0.7 sec)
Mapping shells                                     ... done
Starting the XC term evaluation                    ... done (   0.1 sec)
  promolecular density results
     # of electrons  =    313.993490718
     EX              =   -260.290935543
     EC              =    -10.632717879
     EX+EC           =   -270.923653421
Transforming the Hamiltonian                       ... done (   0.3 sec)
Diagonalizing the Hamiltonian                      ... [c02b01n06:2440884] 48 more processes have sent help message help-mpi-btl-openib.txt / error in device init
[c02b01n06:2440884] Set MCA parameter "orte_base_help_aggregate" to 0 to see all help / error messages
[c02b01n06:2440884] 10 more processes have sent help message help-mpi-btl-openib.txt / no active ports found
done (   0.6 sec)
Back transforming the eigenvectors                 ... done (   0.2 sec)
Now organizing SCF variables                       ... done
                      ------------------
                      INITIAL GUESS DONE (   3.3 sec)
                      ------------------
             **** ENERGY FILE WAS UPDATED (nmr-conf-2.en.tmp) ****
Finished Guess after   7.2 sec
Maximum memory used throughout the entire GUESS-calculation: 288.9 MB
--------------------------------------------------------------------------
WARNING: There was an error initializing an OpenFabrics device.

  Local host:   c02b01n06
  Local device: mlx5_0
--------------------------------------------------------------------------
--------------------------------------------------------------------------
WARNING: There is at least one non-excluded one OpenFabrics device found,
but there are no active ports detected (or Open MPI was unable to use
them).  This is most certainly not what you wanted.  Check your
cables, subnet manager configuration, etc.  The openib BTL will be
ignored for this job.

  Local host: c02b01n06
--------------------------------------------------------------------------


           ************************************************************
           *        Program running with 60 parallel MPI-processes    *
           *              working on a common directory               *
           ************************************************************

-------------------------------------------------------------------------------------------
                                      ORCA LEAN-SCF
                              memory conserving SCF solver
-------------------------------------------------------------------------------------------

--------------------
CPCM SOLVATION MODEL
--------------------
CPCM parameters:
  Epsilon                                         ...      33.4280
  Refrac                                          ...       1.3288
  Rsolv                                           ...       1.3000
  Surface type                                    ... GAUSSIAN VDW
  Discretization scheme                           ... Constant charge density
    Threshold for H atoms                         ...       5.0000 (charges/Ang^2)
    Threshold for non-H atoms                     ...       5.0000 (charges/Ang^2)
  Epsilon function type                           ...         CPCM
Solvent:                                          ... METHANOL
Radii:
  Scheme                                          ... Element-dependent radii
  Radius for C  used is    3.8550 Bohr (=   2.0400 Ang.)
  Radius for O  used is    3.4469 Bohr (=   1.8240 Ang.)
  Radius for H  used is    2.4944 Bohr (=   1.3200 Ang.)
Calculating surface                               ...        done! (  0.0s)
Cavity surface points                             ...         6269
Cavity Volume                                     ...    4562.7633
Cavity Surface-area                               ...    2107.8699
Calculating surface distance matrix               ...        done! (  0.2s)
Performing Cholesky decomposition & store         ...        done! (  0.7s)
Overall time for CPCM initialization              ...                 1.0s

----------------------------------------D-I-I-S--------------------------------------------
Iteration    Energy (Eh)           Delta-E    RMSDP     MaxDP     DIISErr   Damp  Time(sec)
-------------------------------------------------------------------------------------------
               ***  Starting incremental Fock matrix formation  ***
[c02b01n06:2441333] 53 more processes have sent help message help-mpi-btl-openib.txt / error in device init
[c02b01n06:2441333] Set MCA parameter "orte_base_help_aggregate" to 0 to see all help / error messages
[c02b01n06:2441333] 5 more processes have sent help message help-mpi-btl-openib.txt / no active ports found
    1    -2033.0140369704904515     0.00e+00  8.07e-03  2.90e-01  2.36e-01  0.700   9.8
    2    -2033.4252014362173213    -4.11e-01  6.61e-03  2.24e-01  8.18e-02  0.700   8.6
                               ***Turning on AO-DIIS***
    3    -2033.5784263538544110    -1.53e-01  2.82e-03  7.52e-02  2.46e-02  0.700   7.2
    4    -2033.6710163607885988    -9.26e-02  4.75e-03  7.94e-02  1.14e-02  0.000   7.7
    5    -2033.8762610244730240    -2.05e-01  1.25e-03  2.91e-02  4.86e-03  0.000   7.5
                              *** Initializing SOSCF ***
---------------------------------------S-O-S-C-F--------------------------------------
Iteration    Energy (Eh)           Delta-E    RMSDP     MaxDP     MaxGrad    Time(sec)
--------------------------------------------------------------------------------------
    6    -2033.8776416330183565    -1.38e-03  4.02e-04  8.26e-03  1.32e-03     8.6
               *** Restarting incremental Fock matrix formation ***
    7    -2033.8777487246761666    -1.07e-04  3.15e-04  5.87e-03  1.43e-04     7.1
    8    -2033.8777259293028692     2.28e-05  7.71e-05  1.94e-03  6.33e-04     6.4
    9    -2033.8777646726930470    -3.87e-05  7.29e-05  1.87e-03  1.17e-04     6.4
   10    -2033.8777647396846078    -6.70e-08  2.06e-05  5.37e-04  9.96e-05     5.6
                 **** Energy Check signals convergence ****

               *****************************************************
               *                     SUCCESS                       *
               *           SCF CONVERGED AFTER  10 CYCLES          *
               *****************************************************

             **** ENERGY FILE WAS UPDATED (nmr-conf-2.en.tmp) ****

----------------
TOTAL SCF ENERGY
----------------

Total Energy       :      -2033.87776546124587 Eh          -55344.62766 eV

Components:
Nuclear Repulsion  :       5686.74302650908976 Eh          154744.14479 eV
Electronic Energy  :      -7720.57434643949637 Eh         -210087.50861 eV
One Electron Energy:     -14101.48689375152935 Eh         -383720.96638 eV
Two Electron Energy:       6380.91254731203298 Eh          173633.45777 eV
CPCM Dielectric    :         -0.04644553083959 Eh              -1.26385 eV

Virial components:
Potential Energy   :      -4061.11498519506677 Eh         -110508.55689 eV
Kinetic Energy     :       2027.23721973382089 Eh           55163.92923 eV
Virial Ratio       :          2.00327566288877

DFT components:
N(Alpha)           :      157.000046416122 electrons
N(Beta)            :      157.000046416122 electrons
N(Total)           :      314.000092832244 electrons
E(X)               :     -268.089861324282 Eh       
E(C)               :      -10.600070285910 Eh       
E(XC)              :     -278.689931610192 Eh       

CPCM Solvation Model Properties:
Surface-charge          :         -0.04247555789111
Corrected charge        :         -0.00000000000000
Outlying charge corr.   :          0.00007737917739 Eh               0.00211 eV
Free-energy (cav+disp)  :  This term is not implemented in the current solvation scheme

---------------
SCF CONVERGENCE
---------------

  Last Energy change         ...    6.6992e-08  Tolerance :   1.0000e-06
  Last MAX-Density change    ...    5.3706e-04  Tolerance :   1.0000e-05
  Last RMS-Density change    ...    2.0607e-05  Tolerance :   1.0000e-06
  Last DIIS Error            ...    1.3250e-03  Tolerance :   1.0000e-06
  Last Orbital Gradient      ...    9.9582e-05  Tolerance :   5.0000e-05
  Last Orbital Rotation      ...    1.9424e-04  Tolerance :   5.0000e-05


----------------
ORBITAL ENERGIES
----------------

  NO   OCC          E(Eh)            E(eV) 
   0   2.0000     -18.921120      -514.8699 
   1   2.0000     -18.918593      -514.8011 
   2   2.0000     -18.918360      -514.7947 
   3   2.0000     -18.911837      -514.6172 
   4   2.0000     -18.909713      -514.5594 
   5   2.0000     -18.909593      -514.5562 
   6   2.0000     -18.901125      -514.3258 
   7   2.0000     -18.883849      -513.8557 
   8   2.0000     -18.880271      -513.7583 
   9   2.0000     -18.878107      -513.6994 
  10   2.0000     -18.868785      -513.4457 
  11   2.0000     -10.047859      -273.4162 
  12   2.0000     -10.046984      -273.3923 
  13   2.0000     -10.044332      -273.3202 
  14   2.0000     -10.042888      -273.2809 
  15   2.0000     -10.041421      -273.2409 
  16   2.0000     -10.041234      -273.2359 
  17   2.0000     -10.041230      -273.2358 
  18   2.0000     -10.041043      -273.2307 
  19   2.0000     -10.036617      -273.1102 
  20   2.0000     -10.033235      -273.0182 
  21   2.0000     -10.032899      -273.0091 
  22   2.0000     -10.032361      -272.9944 
  23   2.0000     -10.032264      -272.9918 
  24   2.0000     -10.028963      -272.9020 
  25   2.0000     -10.024679      -272.7854 
  26   2.0000     -10.020513      -272.6720 
  27   2.0000      -9.990130      -271.8453 
  28   2.0000      -9.989208      -271.8202 
  29   2.0000      -9.987082      -271.7623 
  30   2.0000      -9.986899      -271.7573 
  31   2.0000      -9.986613      -271.7496 
  32   2.0000      -9.983985      -271.6781 
  33   2.0000      -9.983965      -271.6775 
  34   2.0000      -9.983576      -271.6669 
  35   2.0000      -9.983446      -271.6634 
  36   2.0000      -9.982883      -271.6481 
  37   2.0000      -9.982417      -271.6354 
  38   2.0000      -9.979615      -271.5591 
  39   2.0000      -9.978665      -271.5333 
  40   2.0000      -9.974986      -271.4332 
  41   2.0000      -9.974387      -271.4169 
  42   2.0000      -1.015908       -27.6443 
  43   2.0000      -1.011351       -27.5202 
  44   2.0000      -1.007402       -27.4128 
  45   2.0000      -0.996848       -27.1256 
  46   2.0000      -0.990139       -26.9430 
  47   2.0000      -0.983492       -26.7622 
  48   2.0000      -0.980756       -26.6877 
  49   2.0000      -0.956988       -26.0410 
  50   2.0000      -0.950117       -25.8540 
  51   2.0000      -0.949307       -25.8320 
  52   2.0000      -0.941958       -25.6320 
  53   2.0000      -0.798164       -21.7192 
  54   2.0000      -0.797032       -21.6884 
  55   2.0000      -0.793861       -21.6021 
  56   2.0000      -0.760107       -20.6836 
  57   2.0000      -0.733385       -19.9564 
  58   2.0000      -0.717355       -19.5202 
  59   2.0000      -0.704235       -19.1632 
  60   2.0000      -0.700513       -19.0619 
  61   2.0000      -0.696975       -18.9657 
  62   2.0000      -0.696283       -18.9468 
  63   2.0000      -0.686744       -18.6872 
  64   2.0000      -0.667637       -18.1673 
  65   2.0000      -0.651892       -17.7389 
  66   2.0000      -0.649559       -17.6754 
  67   2.0000      -0.648613       -17.6496 
  68   2.0000      -0.638359       -17.3706 
  69   2.0000      -0.623167       -16.9572 
  70   2.0000      -0.617932       -16.8148 
  71   2.0000      -0.613841       -16.7035 
  72   2.0000      -0.577773       -15.7220 
  73   2.0000      -0.567373       -15.4390 
  74   2.0000      -0.562426       -15.3044 
  75   2.0000      -0.558840       -15.2068 
  76   2.0000      -0.550392       -14.9769 
  77   2.0000      -0.544141       -14.8068 
  78   2.0000      -0.537943       -14.6382 
  79   2.0000      -0.529858       -14.4182 
  80   2.0000      -0.513909       -13.9842 
  81   2.0000      -0.512252       -13.9391 
  82   2.0000      -0.505085       -13.7441 
  83   2.0000      -0.495074       -13.4717 
  84   2.0000      -0.483976       -13.1697 
  85   2.0000      -0.477294       -12.9878 
  86   2.0000      -0.472826       -12.8663 
  87   2.0000      -0.468173       -12.7396 
  88   2.0000      -0.461586       -12.5604 
  89   2.0000      -0.457614       -12.4523 
  90   2.0000      -0.451847       -12.2954 
  91   2.0000      -0.451088       -12.2747 
  92   2.0000      -0.445946       -12.1348 
  93   2.0000      -0.442375       -12.0376 
  94   2.0000      -0.438646       -11.9362 
  95   2.0000      -0.432002       -11.7554 
  96   2.0000      -0.428025       -11.6471 
  97   2.0000      -0.424477       -11.5506 
  98   2.0000      -0.422694       -11.5021 
  99   2.0000      -0.420891       -11.4530 
 100   2.0000      -0.417853       -11.3704 
 101   2.0000      -0.410166       -11.1612 
 102   2.0000      -0.407044       -11.0762 
 103   2.0000      -0.403253       -10.9731 
 104   2.0000      -0.401630       -10.9289 
 105   2.0000      -0.399591       -10.8734 
 106   2.0000      -0.395144       -10.7524 
 107   2.0000      -0.390513       -10.6264 
 108   2.0000      -0.388361       -10.5679 
 109   2.0000      -0.384635       -10.4665 
 110   2.0000      -0.384146       -10.4531 
 111   2.0000      -0.382094       -10.3973 
 112   2.0000      -0.379594       -10.3293 
 113   2.0000      -0.376977       -10.2581 
 114   2.0000      -0.375651       -10.2220 
 115   2.0000      -0.372093       -10.1252 
 116   2.0000      -0.369034       -10.0419 
 117   2.0000      -0.366895        -9.9837 
[...]
  X          -0.8035319   -0.5931968   -0.0495373
  Y          -0.0869454    0.0346319    0.9956109
  Z          -0.5888777    0.8043122   -0.0794036

 --------------
 Nucleus  73H :
 --------------

Diamagnetic contribution to the shielding tensor (ppm) : 
          -130.379         27.406       -51.779
           -92.588         59.691       -26.549
           -17.611        -55.121       -49.706

Paramagnetic contribution to the shielding tensor (ppm): 
           154.214        -27.578        51.737
            93.767        -31.316        24.287
            17.746         53.880        81.011

Total shielding tensor (ppm): 
            23.835         -0.172        -0.042
             1.179         28.375        -2.262
             0.136         -1.242        31.306


 Diagonalized sT*s matrix:
 
 sDSO          -116.171           -5.427            1.204  iso=     -40.131
 sPSO           139.943           33.043           30.923  iso=      67.970
        ---------------  ---------------  ---------------
 Total           23.772           27.616           32.127  iso=      27.838

 Orientation: 
  X           0.9903098    0.1365746   -0.0251752
  Y          -0.1345436    0.8985991   -0.4176335
  Z          -0.0344157    0.4169737    0.9082667

 --------------
 Nucleus  74H :
 --------------

Diamagnetic contribution to the shielding tensor (ppm) : 
           -95.477        118.878       -53.480
           -68.256         94.354       -26.599
           -59.429         35.891       -32.572

Paramagnetic contribution to the shielding tensor (ppm): 
           124.489       -115.054        52.332
            73.369        -64.940        26.251
            57.336        -35.279        57.444

Total shielding tensor (ppm): 
            29.012          3.824        -1.148
             5.113         29.413        -0.348
            -2.093          0.612        24.873


 Diagonalized sT*s matrix:
 
 sDSO           -86.525           21.482           31.348  iso=     -11.232
 sPSO           110.018            4.519            2.456  iso=      38.998
        ---------------  ---------------  ---------------
 Total           23.493           26.001           33.804  iso=      27.766

 Orientation: 
  X           0.5496517   -0.4454994   -0.7066918
  Y          -0.4374181    0.5672267   -0.6977960
  Z           0.7117221    0.6926646    0.1169076

 --------------
 Nucleus  75H :
 --------------

Diamagnetic contribution to the shielding tensor (ppm) : 
             1.607       -269.605        39.763
           -37.529       -141.712        26.314
           -16.031        -95.643      -160.911

Paramagnetic contribution to the shielding tensor (ppm): 
            29.890        265.672       -39.807
            29.537        177.623       -29.652
            15.879         93.963       184.117

Total shielding tensor (ppm): 
            31.497         -3.932        -0.044
            -7.992         35.911        -3.338
            -0.152         -1.680        23.206


 Diagonalized sT*s matrix:
 
 sDSO          -183.198         -176.344           58.526  iso=    -100.339
 sPSO           205.710          204.164          -18.244  iso=     130.543
        ---------------  ---------------  ---------------
 Total           22.512           27.820           40.283  iso=      30.205

 Orientation: 
  X           0.1673506    0.7970708   -0.5802343
  Y           0.2736844    0.5278443    0.8040381
  Z           0.9471487   -0.2933573   -0.1298108

 --------------
 Nucleus  76H :
 --------------

Diamagnetic contribution to the shielding tensor (ppm) : 
          -146.635         16.366       -61.094
          -119.819         59.452       -25.761
            27.411        -21.073       -57.695

Paramagnetic contribution to the shielding tensor (ppm): 
           178.690        -18.772        48.765
           117.026        -37.302        28.788
           -41.003         22.297        89.425

Total shielding tensor (ppm): 
            32.055         -2.407       -12.329
            -2.793         22.151         3.028
           -13.592          1.224        31.730


 Diagonalized sT*s matrix:
 
 sDSO          -127.104           61.077          -78.850  iso=     -48.293
 sPSO           146.003          -39.371          124.181  iso=      76.938
        ---------------  ---------------  ---------------
 Total           18.899           21.705           45.331  iso=      28.645

 Orientation: 
  X          -0.7012233    0.0270663   -0.7124277
  Y          -0.0951139    0.9867948    0.1311079
  Z          -0.7065686   -0.1596977    0.6893892

 --------------
 Nucleus  77H :
 --------------

Diamagnetic contribution to the shielding tensor (ppm) : 
           -59.386        147.225        -8.344
           -47.214        126.509        -9.169
            40.484        -31.243        19.278

Paramagnetic contribution to the shielding tensor (ppm): 
            88.045       -145.027         8.120
            47.946        -85.032         5.508
           -41.351         28.395         3.347

Total shielding tensor (ppm): 
            28.660          2.197        -0.225
             0.732         41.478        -3.661
            -0.867         -2.848        22.626


 Diagonalized sT*s matrix:
 
 sDSO            17.269          -68.569          137.702  iso=      28.801
 sPSO             4.799           97.068          -95.507  iso=       2.120
        ---------------  ---------------  ---------------
 Total           22.067           28.500           42.196  iso=      30.921

 Orientation: 
  X           0.0362049   -0.9940157   -0.1030627
  Y           0.1685846    0.1077273   -0.9797827
  Z           0.9850221    0.0180982    0.1714760

 --------------
 Nucleus  78H :
 --------------

Diamagnetic contribution to the shielding tensor (ppm) : 
          -106.926        -14.447       -12.657
           -95.250         39.417        -2.008
           -39.414         21.263       -35.661

Paramagnetic contribution to the shielding tensor (ppm): 
           130.643         18.783        16.271
           101.459        -19.355         4.712
            42.622        -21.538        71.342

Total shielding tensor (ppm): 
            23.716          4.336         3.614
             6.210         20.062         2.704
             3.208         -0.274        35.682


 Diagonalized sT*s matrix:
 
 sDSO            44.957          -89.855          -58.272  iso=     -34.390
 sPSO           -28.688          116.060           95.257  iso=      60.876
        ---------------  ---------------  ---------------
 Total           16.269           26.205           36.986  iso=      26.487

 Orientation: 
  X           0.5787228    0.7551739    0.3078836
  Y          -0.8121023    0.5681961    0.1328271
  Z          -0.0746307   -0.3269030    0.9421065

 --------------
 Nucleus  79H :
 --------------

Diamagnetic contribution to the shielding tensor (ppm) : 
           -33.858        -45.214       -27.089
           -37.179          2.693        -3.986
          -111.709        101.213       -68.267

Paramagnetic contribution to the shielding tensor (ppm): 
            60.749         48.363        25.083
            40.102         21.172         5.284
           113.134        -98.538        98.299

Total shielding tensor (ppm): 
            26.891          3.149        -2.006
             2.923         23.865         1.298
             1.425          2.674        30.032


 Diagonalized sT*s matrix:
 
 sDSO            -6.321          -31.274          -61.836  iso=     -33.144
 sPSO            27.902           59.740           92.577  iso=      60.073
        ---------------  ---------------  ---------------
 Total           21.581           28.466           30.740  iso=      26.929

 Orientation: 
  X           0.5020079    0.8312965   -0.2386087
  Y          -0.8394980    0.4020456   -0.3655168
  Z           0.2079212   -0.3838038   -0.8997018

 --------------
 Nucleus  80H :
 --------------

Diamagnetic contribution to the shielding tensor (ppm) : 
            87.668        -82.195       -23.105
            35.613         -4.310       -14.380
          -137.007        123.034         4.851

Paramagnetic contribution to the shielding tensor (ppm): 
           -61.841         83.866        22.154
           -34.965         34.180        13.267
           136.777       -125.830        22.829

Total shielding tensor (ppm): 
            25.826          1.672        -0.951
             0.647         29.871        -1.114
            -0.229         -2.796        27.679


 Diagonalized sT*s matrix:
 
 sDSO            83.970           38.173          -33.935  iso=      29.403
 sPSO           -58.455          -11.633           65.256  iso=      -1.611
        ---------------  ---------------  ---------------
 Total           25.515           26.540           31.321  iso=      27.792

 Orientation: 
  X           0.9737128    0.0636739   -0.2186985
  Y          -0.2221934    0.4768469   -0.8504394
  Z           0.0501349    0.8766771    0.4784598

 --------------
 Nucleus  81H :
 --------------

Diamagnetic contribution to the shielding tensor (ppm) : 
            -1.298       -174.005       -16.677
           -34.155        -83.131         1.256
          -103.606        112.596      -132.455

Paramagnetic contribution to the shielding tensor (ppm): 
            33.282        174.193        12.366
            34.541        108.126         1.113
            99.153       -111.939       160.147

Total shielding tensor (ppm): 
            31.984          0.188        -4.311
             0.385         24.995         2.369
            -4.453          0.656        27.692


 Diagonalized sT*s matrix:
 
 sDSO          -115.312         -129.003           27.431  iso=     -72.295
 sPSO           138.840          155.396            7.319  iso=     100.518
        ---------------  ---------------  ---------------
 Total           23.529           26.393           34.750  iso=      28.224

 Orientation: 
  X          -0.3423118    0.4156450   -0.8426517
  Y           0.7165394    0.6956034    0.0520312
  Z          -0.6077779    0.5859822    0.5359393



--------------------------------
CHEMICAL SHIELDING SUMMARY (ppm)
--------------------------------


  Nucleus  Element    Isotropic     Anisotropy
  -------  -------  ------------   ------------
      0       C           24.830        123.470 
      1       C           46.252         93.818 
      2       C           24.453        120.719 
      3       C           77.501        131.593 
      4       C           39.821        194.039 
      5       C           76.405        126.828 
      6       C          147.013         34.862 
      7       C          133.690         17.996 
      8       C          135.742         24.087 
      9       C          143.589         39.570 
     10       C           43.571        183.066 
     11       C           71.054        154.176 
     12       C           30.311        117.561 
     13       C           32.147        123.308 
     14       C           66.895        144.048 
     15       C           56.013        148.462 
     16       C          116.195         71.821 
     17       C          113.040         67.315 
     23       C           95.591         41.864 
     24       C          103.244         42.606 
     25       C           43.115        180.908 
     26       C          113.363         56.899 
     28       C           72.355        161.643 
     29       C           31.164        119.107 
     30       C           32.773        120.984 
     31       C           68.047        146.022 
     32       C           58.034        155.280 
     33       C          124.187         77.264 
     34       C          123.580         74.844 
     35       C          123.936         80.219 
     41       C          124.673         76.333 
     42       H           25.848          9.036 
     43       H           25.784          9.989 
     44       H           29.027          4.641 
     45       H           30.130          6.546 
     46       H           30.752          4.249 
     47       H           29.036          3.017 
     48       H           29.130          4.459 
     49       H           28.220          7.997 
     50       H           24.620         10.165 
     51       H           24.658          3.165 
     52       H           24.585          5.587 
     53       H           28.331          5.472 
     54       H           28.034          7.612 
     55       H           27.556          6.364 
     56       H           28.405          5.260 
     57       H           25.309         13.226 
     58       H           26.567          6.073 
     59       H           26.774          3.558 
     60       H           27.408          7.557 
     61       H           27.405          5.296 
     62       H           29.381         16.465 
     63       H           24.747         10.746 
     64       H           25.299          5.307 
     65       H           25.148          4.146 
     66       H           28.054          9.730 
     67       H           27.939          6.976 
     68       H           27.551          9.375 
     69       H           27.469          7.739 
     70       H           28.093          8.854 
     71       H           28.040          8.440 
     72       H           27.340          9.364 
     73       H           27.838          6.433 
     74       H           27.766          9.057 
     75       H           30.205         15.117 
     76       H           28.645         25.029 
     77       H           30.921         16.912 
     78       H           26.487         15.749 
     79       H           26.929          5.717 
     80       H           27.792          5.294 
     81       H           28.224          9.789 


NMR shielding tensor and spin rotation calculation done in   2.4 sec 

Maximum memory used throughout the entire PROP-calculation: 366.2 MB
[c02b01n06:2442769] 54 more processes have sent help message help-mpi-btl-openib.txt / error in device init
[c02b01n06:2442769] Set MCA parameter "orte_base_help_aggregate" to 0 to see all help / error messages
[c02b01n06:2442769] 4 more processes have sent help message help-mpi-btl-openib.txt / no active ports found
--------------------------------------------------------------------------
WARNING: There was an error initializing an OpenFabrics device.

  Local host:   c02b01n06
  Local device: mlx5_0
--------------------------------------------------------------------------
--------------------------------------------------------------------------
WARNING: There is at least one non-excluded one OpenFabrics device found,
but there are no active ports detected (or Open MPI was unable to use
them).  This is most certainly not what you wanted.  Check your
cables, subnet manager configuration, etc.  The openib BTL will be
ignored for this job.

  Local host: c02b01n06
--------------------------------------------------------------------------
[c02b01n06:2443212] 49 more processes have sent help message help-mpi-btl-openib.txt / error in device init
[c02b01n06:2443212] Set MCA parameter "orte_base_help_aggregate" to 0 to see all help / error messages
[c02b01n06:2443212] 9 more processes have sent help message help-mpi-btl-openib.txt / no active ports found

--------------------------------
SUGGESTED CITATIONS FOR THIS RUN
--------------------------------

Below you find a list of papers that are relevant to this ORCA run
We neither can nor want to force you to cite these papers, but we appreciate if you do
You receive ORCA, which is the product of decades of hard work by many enthusiastic individuals, for free
The only thing we kindly ask in return is that you cite our papers,
We deeply appreciate it, if you show your appreciation for ORCA by not just citing the generic ORCA reference.

Please note that relegating all ORCA citations to the supporting information does *not* help us.
SI sections are not indexed - citations you put there will not count into any citation statistics
But we need these citations in order to attract the funding resources that allow us to do what we are doing

Therefore, if you are a happy ORCA user, please consider citing a few of the papers listed below in the main body of your paper

In addition to the list printed below, the program has created the file nmr-conf-2.bibtex that contains the list in bibtex format
You can import this file easily into all common literature databanks and citation aid programs


List of essential papers. We consider these as the minimum necessary citations

  1. Neese, F.
     Software update: the ORCA program system, version 6.0
     WIRES Comput. Molec. Sci. 2025 15(1), e70019
     doi.org/10.1002/wcms.7019

List of papers to cite with high priority. The work reported in these papers was absolutely
necessary for this run to complete.
Our perspective: the developers of density functionals and basis sets usually get cited in chemistry papers
Good! But without the algorithms to do something with them, the functionals or basis sets would not do anything.
Hence, in our opinion, the algorithm design and method developments papers are equally worthy of getting cited

  1. Neese, F.
     An improvement of the resolution of the identity approximation for the formation of the Coulomb matrix
     J. Comp. Chem. 2003 24(14), 1740-1747
     doi.org/10.1002/jcc.10318
  2. Stoychev, G.L.; Auer, A.A.; Neese, F.
     Automatic Generation of Auxiliary Basis Sets
     J. Theo. Comp. Chem. 2017 13 , 554-562
     doi.org/10.1021/acs.jctc.6b01041
  3. Stoychev, G.L.; Auer, A.A.; Izsak, R.; Neese, F.
     Self-Consistent Field Calculation of Nuclear Magnetic Resonance Chemical Shielding Constants Using Gauge-Including Atomic Orbitals and Approximate Two-Electron Integrals
     J. Chem. Theory Comput. 2018 14(2), 619-637
     doi.org/10.1021/acs.jctc.7b01006
  4. Garcia-Rates, M.; Neese, F.
     Effect of the Solute Cavity on the Solvation Energy and its Derivatives within the Framework of the Gaussian Charge Scheme
     J. Comput. Chem. 2020 41 , 922-939
     doi.org/10.1002/jcc.26139
  5. Neese, F.
     The SHARK Integral Generation and Digestion System
     J. Comp. Chem. 2022 44(3), 381
     doi.org/10.1002/jcc.26942

List of suggested additional citations. These are papers that are important in the 'surrounding' of 
of this run, or papers that preceded the highly important papers. If you like your results we are grateful for a citation.

  1. Neese, F.
     The ORCA program system
     WIRES Comput. Molec. Sci. 2012 2(1), 73-78
     doi.org/10.1002/wcms.81
  2. Neese, F.
     Software update: the ORCA program system, version 4.0
     WIRES Comput. Molec. Sci. 2018 8(1), 1-6
     doi.org/10.1002/wcms.1327
  3. Neese, F.; Wennmohs, F.; Becker, U.; Riplinger, C.
     The ORCA quantum chemistry program package
     J. Chem. Phys. 2020 152(22), 224108
     doi.org/10.1063/5.0004608
  4. Neese, F.
     Software update: The ORCA program system—Version 5.0
     WIRES Comput. Molec. Sci. 2022 12(1), e1606
     doi.org/10.1002/wcms.1606

List of optional additional citations

  1. Neese, F.
     Approximate second-order SCF convergence for spin unrestricted wavefunctions
     Chem. Phys. Lett. 2000 325(1-3), 93-98
     doi.org/10.1016/s0009-2614(00)00662-x

Timings for individual modules:

Sum of individual times          ...      221.780 sec (=   3.696 min)
Startup calculation              ...       52.417 sec (=   0.874 min)  23.6 %
SCF iterations                   ...      100.450 sec (=   1.674 min)  45.3 %
Property integrals               ...       50.461 sec (=   0.841 min)  22.8 %
SCF Response                     ...       12.237 sec (=   0.204 min)   5.5 %
Property calculations            ...        6.215 sec (=   0.104 min)   2.8 %
                             ****ORCA TERMINATED NORMALLY****
TOTAL RUN TIME: 0 days 0 hours 3 minutes 48 seconds 640 msec
