
                                 *****************
                                 * O   R   C   A *
                                 *****************

                                            #,                                       
                                            ###                                      
                                            ####                                     
                                            #####                                    
                                            ######                                   
                                           ########,                                 
                                     ,,################,,,,,                         
                               ,,#################################,,                 
                          ,,##########################################,,             
                       ,#########################################, ''#####,          
                    ,#############################################,,   '####,        
                  ,##################################################,,,,####,       
                ,###########''''           ''''###############################       
              ,#####''   ,,,,##########,,,,          '''####'''          '####       
            ,##' ,,,,###########################,,,                        '##       
           ' ,,###''''                  '''############,,,                           
         ,,##''                                '''############,,,,        ,,,,,,###''
      ,#''                                            '''#######################'''  
     '                                                          ''''####''''         
             ,#######,   #######,   ,#######,      ##                                
            ,#'     '#,  ##    ##  ,#'     '#,    #''#        ,####,    ,#,          
            ##       ##  ##   ,#'  ##            #'  '#       #'       ,# #          
            ##       ##  #######   ##           ,######,      #####,      #          
            '#,     ,#'  ##    ##  '#,     ,#' ,#      #,     #,   #      #          
             '#######'   ##     ##  '#######'  #'      '#     '####' #    #          



                #########################################################
                #                        -***-                          #
                #          Department of theory and spectroscopy        #
                #                                                       #
                #                      Frank Neese                      #
                #                                                       #
                #     Directorship, Architecture, Infrastructure        #
                #                    SHARK, DRIVERS                     #
                #        Core code/Algorithms in most modules           #
                #                                                       #
                #        Max Planck Institute fuer Kohlenforschung      #
                #                Kaiser Wilhelm Platz 1                 #
                #                 D-45470 Muelheim/Ruhr                 #
                #                      Germany                          #
                #                                                       #
                #                  All rights reserved                  #
                #                        -***-                          #
                #########################################################


                         Program Version 6.1.0-f.0  -   RELEASE   -


 With contributions from (in alphabetic order):
[Max-Planck-Institut fuer Kohlenforschung]                               
  Daniel Aravena         : Magnetic Suceptibility                        
  Michael Atanasov       : Ab Initio Ligand Field Theory (pilot matlab implementation)
  Alexander A. Auer      : GIAO ZORA, VPT2 properties, NMR spectrum      
  Ute Becker             : All parallelization in ORCA, NUMFREQ, NUMCALC 
  Giovanni Bistoni       : ED, misc. LED, open-shell LED, HFLD           
  Dmytro Bykov           : pre 5.0 version of the SCF Hessian            
  Marcos Casanova-Páez   : Triplet and SCS-CIS(D). UHF-(DLPNO)-IP/EA/STEOM-CCSD. UHF-CVS-IP/STEOM-CCSD   
  Vijay G. Chilkuri      : MRCI spin determinant printing, contributions to CSF-ICE 
  Pauline Colinet        : FMM embedding                                 
  Dipayan Datta          : RHF DLPNO-CCSD density                        
  Achintya Kumar Dutta   : EOM-CC, STEOM-CC                              
  Nicolas Foglia         : Exact transition moments, OPA infrastructure, MCD improvements    
  Dmitry Ganyushin       : Spin-Orbit,Spin-Spin,Magnetic field MRCI      
  Miquel Garcia-Rates    : C-PCM and meta-GGA Hessian, CCSD/C-PCM, Gaussian charge scheme 
  Tiago L. C. Gouveia    : GS-ROHF, GS-ROCIS                             
  Yang Guo               : DLPNO-NEVPT2, F12-NEVPT2, CIM, IAO-localization        
  Andreas Hansen         : Spin unrestricted coupled pair/coupled cluster methods 
  Ingolf Harden          : AUTO-CI MPn and infrastructure                
  Benjamin Helmich-Paris : MC-RPA, TRAH-(SCF,CASSCF), AVAS, COSX integrals, SCF dyn. polar., MC-PDFT, srDFT 
  Lee Huntington         : MR-EOM, pCC                                   
  Robert Izsak           : Overlap fitted RIJCOSX, COSX-SCS-MP3, EOM     
  Riya Kayal             : Wick's Theorem for AUTO-CI, AUTO-CI UHF-CCSDT 
  Emily Kempfer          : AUTO-CI RHF CISDT and CCSDT, approximate NEVPT4
  Christian Kollmar      : KDIIS, OOCD, Brueckner-CCSD(T), CCSD density, CASPT2, CASPT2-K, improved NEVPT2 
  Axel Koslowski         : Symmetry handling                             
  Simone Kossmann        : meta-GGA functionals, TD-DFT gradient, OOMP2, (MP2 Hessian; deprecated post 5.0) 
  Lucas Lang             : DCDCAS, Hyperfine gauge corrections, ICE-SOC+SSC
  Marvin Lechner         : AUTO-CI (C++ implementation), FIC-MRCC        
  Spencer Leger          : CASSCF response                               
  Dagmar Lenk            : GEPOL surface, SMD, ORCA-2-JSON               
  Dimitrios Liakos       : Extrapolation schemes; Compound Job, Property file
  Dimitrios Manganas     : Further ROCIS development; embedding schemes. LFT, Crystal Embedding 
  Dimitrios Pantazis     : SARC Basis sets                               
  Anastasios Papadopoulos: AUTO-CI, single reference methods and gradients 
  Taras Petrenko         : pre 6.0 DFT Hessian and TD-DFT gradient,  ECA, NRVS 
  Petra Pikulova         : Analytic Raman intensities                    
  Peter Pinski           : DLPNO-MP2, DLPNO-MP2 Gradient                 
  Shashank Vittal Rao    : ES-AILFT, MagRelax                            
  Christoph Reimann      : Effective Core Potentials                     
  Marius Retegan         : Local ZFS, SOC                                
  Christoph Riplinger    : Optimizer, TS searches, QM/MM, DLPNO-CCSD(T), (RO)-DLPNO pert. Triples 
  Michael Roemelt        : Original ROCIS implementation, recursive CI coupling coefficients
  Masaaki Saitow         : Open-shell DLPNO-CCSD energy and density      
  Barbara Sandhoefer     : DKH picture change effects                    
  Yorick L. A. Schmerwitz: GMF and freeze-and-release deltaSCF, NEB S-IDPP initial path                    
  Kantharuban Sivalingam : CASSCF convergence/infrastructure, NEVPT2, NEVPT3, NEVPT4(SD), FIC-MRCI and CEPA variants
  Bernardo de Souza      : ESD, SOC TD-DFT                               
  Georgi L. Stoychev     : AutoAux, RI-MP2 NMR, DLPNO-MP2 response, X2C  
  Van Anh Tran           : RI-MP2 g-tensors                              
  Willem Van den Heuvel  : Paramagnetic NMR                              
  Zikuan Wang            : NOTCH, Electric field optimization            
  Frank Wennmohs         : Technical directorship and infrastructure     
  Hang Xu                : AUTO-CI-Response properties                   
                                                                         
[FACCTs GmbH]                                                            
  Markus Bursch, Nicolas Foglia, Miquel Garcia-Rates, Ingolf Harden, Hagen Neugebauer, Anastasios Papadopoulos, 
  Christoph Riplinger, Bernardo de Souza, Georgi L. Stoychev                                                    
                                                                 
  APM, various basis sets, CI-OPT, improved COSX, DLPNO-Multilevel,           
  DOCKER, DRACO, updates on ESD, Fragmentator, GOAT, IRC, LR-CPCM, L-BFGS, MBIS, meta-GGA TD-DFT gradient, ML-optimized integration grids, 
  MM, NACMEs, nearIR, NEB, NEB-TS, NL-DFT gradient (VV10), 2- and 3-layer-ONIOM, interface openCOSMO-RS, QMMM,   
  Crystal-QMMM, RESP, rigid body optimization, SF, symmetry and pop. for TD-DFT, various functionals, SOLVATOR                                   
                                                                         
[Other institutions]                                                     
  V. Asgeirsson          : NEB                                           
  Christoph Bannwarth    : sTDA-DFT, sTD-DFT, PBEh-3c, B97-3c, D3        
  Giovanni Bistoni       : ETS/NOCV, ADLD/ADEX, COVALED                  
  Martin Brehm           : Molecular dynamics                            
  Ronald Cardenas        : ETS/NOCV                                      
  Martina Colucci        : COVALED                                       
  Sebastian Ehlert       : rSCAN, r2SCAN, r2SCAN-3c, D4, dhf basis sets  
  Marvin Friede          : D4 for Fr, Ra, Ac-Lr                          
  Lars Goerigk           : TD-DFT with DH, B97 family of functionals     
  Stefan Grimme          : VdW corrections, initial TS optimization, DFT functionals, gCP, sTDA/sTD-DF 
  Waldemar Hujo          : DFT-NL                                        
  H. Jonsson             : NEB                                           
  Holger Kruse           : gCP                                           
  Marcel Mueller         : wB97X-3c, vDZP basis set                      
  Hagen Neugebauer       : wr2SCAN, Native XTB                           
  Gianluca Regni         : ADLD/ADEX                                     
  Tobias Risthaus        : pre 6.0 range-separated hybrid DFT and stability analysis
  Lukas Wittmann         : regularized MP2, r2SCAN double-hybrids, wr2SCAN        
                                                                         
We gratefully acknowledge several colleagues who have allowed us to      
interface, adapt or use parts of their codes:                            
  Ed Valeev, F. Pavosevic, A. Kumar             : LibInt (2-el integral package), F12 methods 
  Garnet Chan, S. Sharma, J. Yang, R. Olivares  : DMRG                   
  Ulf Ekstrom                                   : XCFun DFT Library      
  Mihaly Kallay                                 : mrcc  (arbitrary order and MRCC methods)
  Frank Weinhold                                : gennbo (NPA and NBO analysis)           
  Simon Mueller                                 : openCOSMO-RS                            
  Christopher J. Cramer and Donald G. Truhlar   : smd solvation model                     
  S Lehtola, MJT Oliveira, MAL Marques          : LibXC Library                           
  Liviu Ungur et al                             : ANISO software                          


 Your calculation uses the libint2 library for the computation of 2-el integrals
 For citations please refer to: http://libint.valeyev.net

 Your ORCA version has been built with support for libXC version: 7.0.0
 For citations please refer to: https://libxc.gitlab.io

 This ORCA versions uses:
   CBLAS   interface :  Fast vector & matrix operations
   LAPACKE interface :  Fast linear algebra routines
   SCALAPACK package :  Parallel linear algebra routines
   Shared memory     :  Shared parallel matrices
   BLAS/LAPACK       :  OpenBLAS 0.3.29  USE64BITINT DYNAMIC_ARCH NO_AFFINITY Cooperlake SINGLE_THREADED
        Core in use  :  Cooperlake
   Copyright (c) 2011-2014, The OpenBLAS Project


  ***********************************
  * Starting time: Wed Mar  4 13:40:18 2026
  * Host name:     c02b01n02
  * Process ID:    2068144
  * Working dir.:  /lustre1/jiangy/jiangy_liuxy/NMR/B9D7C2-SRSR-NMR/opt_conf
  ***********************************

NOTE: MaxCore=5000 MB was set to SCF,MP2,MDCI,CIPSI,MRCI,RASCI and CIS
      => If you want to overwrite this, your respective input block should be placed after the MaxCore statement


***************************************
The coordinates will be read from file: opt-conf-0.xyz
***************************************



Warning: The global flag for NMR shieldings has been found
         but shieldings for certain elements have also been explicitly requested in the EPRNMR block
         ==>> only the requested shieldings will be calculated

================================================================================

----- Orbital basis set information -----
Your calculation utilizes the basis: pcSseg-2
   F. Jensen, J. Chem. Theory Comput. 11, 132 (2015).

----- AuxJ basis set information -----
Your calculation utilizes the AutoAux generation procedure.
  G. L. Stoychev, A. A. Auer, F. Neese, J. Chem. Theory Comput. 13, 554 (2017)

----- AuxC basis set information -----
Your calculation utilizes the AutoAux generation procedure.
  G. L. Stoychev, A. A. Auer, F. Neese, J. Chem. Theory Comput. 13, 554 (2017)

----- AuxJK basis set information -----
Your calculation utilizes the AutoAux generation procedure.
  G. L. Stoychev, A. A. Auer, F. Neese, J. Chem. Theory Comput. 13, 554 (2017)

----- AuxX basis set information -----
Your calculation utilizes the AutoAux generation procedure.
  G. L. Stoychev, A. A. Auer, F. Neese, J. Chem. Theory Comput. 13, 554 (2017)

================================================================================
                                        WARNINGS
                       Please study these warnings very carefully!
================================================================================


================================================================================
                                       INPUT FILE
================================================================================
NAME = nmr-conf-0.inp
|  1> !TPSS PCSSEG-2 AUTOAUX NMR CPCM(Methanol)
|  2> 
|  3> %pal nprocs 60 end
|  4> %maxcore 5000
|  5> 
|  6> *XYZFILE 0 1 opt-conf-0.xyz
|  7> 
|  8> %EPRNMR
|  9>    NUCLEI = ALL C {SHIFT}
| 10>    NUCLEI = ALL H {SHIFT}
| 11>    TAU DOBSON
| 12> END
| 13> 
| 14> 
| 15>                          ****END OF INPUT****
================================================================================

                       ****************************
                       * Single Point Calculation *
                       ****************************

---------------------------------
CARTESIAN COORDINATES (ANGSTROEM)
---------------------------------
  C     21.050910  -29.961825    1.928760
  C     21.595026  -29.662991    0.676797
  C     20.851568  -29.940894   -0.475564
  C     19.600080  -30.541910   -0.372883
  C     19.059521  -30.833925    0.877179
  C     19.782501  -30.532847    2.026644
  C     17.708526  -31.497437    0.958380
  C     17.760033  -33.015257    0.672711
  C     16.410459  -33.594780    0.204626
  C     16.092401  -33.231174   -1.256565
  C     17.128327  -33.688024   -2.253267
  C     17.495605  -35.038200   -2.324385
  C     18.444322  -35.466253   -3.238900
  C     19.035448  -34.549211   -4.122786
  C     18.684760  -33.215081   -4.053057
  C     17.740100  -32.789331   -3.118355
  C     18.324678  -33.767491    1.878812
  C     15.249381  -33.210953    1.121713
  O     21.432879  -29.594022   -1.655296
  O     21.841715  -29.676417    2.998082
  O     22.811203  -29.027676    0.622618
  O     19.953681  -34.973571   -5.040967
  O     18.890209  -36.749597   -3.379312
  C     23.934556  -29.672427   -0.015781
  C     24.322093  -30.968707    0.726986
  C     23.383674  -32.117014    0.462557
  C     25.036219  -28.627971   -0.002655
  O     25.572726  -28.395167    1.299653
  C     23.120736  -32.526697   -0.848592
  C     22.248886  -33.574350   -1.092481
  C     21.633343  -34.231902   -0.017058
  C     21.912362  -33.849653    1.280604
  C     22.786727  -32.792135    1.516980
  C     21.368887  -30.027135    4.295570
  C     20.721653  -29.867018   -2.860290
  C     18.392576  -37.740000   -2.480880
  O     25.639497  -31.387796    0.328725
  O     18.558639  -35.152503    1.620177
  O     14.055230  -33.952293    0.843448
  O     21.901079  -34.050771   -2.319737
  O     20.754053  -35.255439   -0.254788
  C     22.545352  -33.496194   -3.466797
  H     19.034415  -30.778996   -1.261617
  H     19.359664  -30.761698    2.993503
  H     17.044049  -31.023788    0.233290
  H     17.272102  -31.323579    1.945465
  H     18.467836  -33.165048   -0.147992
  H     16.507371  -34.683687    0.264483
  H     15.968362  -32.148792   -1.347573
  H     15.123891  -33.673130   -1.506403
  H     17.034836  -35.751733   -1.656184
  H     19.155067  -32.511640   -4.728718
  H     17.479696  -31.739039   -3.070786
  H     17.626434  -33.730101    2.717707
  H     19.250353  -33.282998    2.202277
  H     15.531895  -33.345377    2.170564
  H     14.976501  -32.163225    0.983447
  H     20.085050  -35.926385   -4.922765
  H     23.689996  -29.891679   -1.055913
  H     24.315909  -30.752202    1.796972
  H     24.638966  -27.703089   -0.432414
  H     25.865472  -28.961650   -0.624123
  H     24.854167  -28.088985    1.868301
  H     23.588249  -32.016195   -1.677365
  H     21.438612  -34.374747    2.099649
  H     22.985445  -32.481854    2.534637
  H     21.184499  -31.101630    4.370404
  H     22.159752  -29.743659    4.986003
  H     20.454340  -29.483290    4.545037
  H     21.367638  -29.533267   -3.668621
  H     20.521563  -30.934571   -2.967746
  H     19.777811  -29.317186   -2.892888
  H     17.312949  -37.862163   -2.594354
  H     18.896304  -38.665786   -2.746864
  H     18.624370  -37.476491   -1.446265
  H     26.275553  -30.787678    0.740470
  H     19.237612  -35.223048    0.928828
  H     14.244341  -34.888595    0.984999
  H     20.660085  -35.370701   -1.213257
  H     22.131278  -34.022907   -4.320674
  H     22.333316  -32.429227   -3.554750
  H     23.625495  -33.650658   -3.411930

----------------------------
CARTESIAN COORDINATES (A.U.)
----------------------------
  NO LB      ZA    FRAG     MASS         X           Y           Z
   0 C     6.0000    0    12.011   39.780455  -56.619643    3.644828
   1 C     6.0000    0    12.011   40.808686  -56.054929    1.278961
   2 C     6.0000    0    12.011   39.403752  -56.580089   -0.898686
   3 C     6.0000    0    12.011   37.038783  -57.715846   -0.704647
   4 C     6.0000    0    12.011   36.017274  -58.267673    1.657628
   5 C     6.0000    0    12.011   37.383509  -57.698719    3.829802
   6 C     6.0000    0    12.011   33.464265  -59.521531    1.811075
   7 C     6.0000    0    12.011   33.561599  -62.389794    1.271239
   8 C     6.0000    0    12.011   31.011274  -63.484933    0.386686
   9 C     6.0000    0    12.011   30.410230  -62.797817   -2.374564
  10 C     6.0000    0    12.011   32.367848  -63.661139   -4.258058
  11 C     6.0000    0    12.011   33.061902  -66.212602   -4.392450
  12 C     6.0000    0    12.011   34.854718  -67.021504   -6.120635
  13 C     6.0000    0    12.011   35.971783  -65.288547   -7.790937
  14 C     6.0000    0    12.011   35.309079  -62.767406   -7.659167
  15 C     6.0000    0    12.011   33.523931  -61.962855   -5.892838
  16 C     6.0000    0    12.011   34.628623  -63.811310    3.550441
  17 C     6.0000    0    12.011   28.817154  -62.759605    2.119730
  18 O     8.0000    0    15.999   40.502272  -55.924598   -3.128056
  19 O     8.0000    0    15.999   41.274859  -56.080300    5.665554
  20 O     8.0000    0    15.999   43.106927  -54.854358    1.176578
  21 O     8.0000    0    15.999   37.706992  -66.090471   -9.526047
  22 O     8.0000    0    15.999   35.697321  -69.446674   -6.385974
  23 C     6.0000    0    12.011   45.229756  -56.072761   -0.029822
  24 C     6.0000    0    12.011   45.962096  -58.522376    1.373805
  25 C     6.0000    0    12.011   44.188741  -60.692361    0.874106
  26 C     6.0000    0    12.011   47.311597  -54.099026   -0.005018
  27 O     8.0000    0    15.999   48.325448  -53.659090    2.455988
  28 C     6.0000    0    12.011   43.691859  -61.466550   -1.603607
  29 C     6.0000    0    12.011   42.044302  -63.446327   -2.064490
  30 C     6.0000    0    12.011   40.881094  -64.688920   -0.032234
  31 C     6.0000    0    12.011   41.408363  -63.966574    2.419992
  32 C     6.0000    0    12.011   43.060674  -61.968155    2.866678
  33 C     6.0000    0    12.011   40.381343  -56.743062    8.117451
  34 C     6.0000    0    12.011   39.158249  -56.440484   -5.405165
  35 C     6.0000    0    12.011   34.756932  -71.318265   -4.688183
  36 O     8.0000    0    15.999   48.451628  -59.314338    0.621201
  37 O     8.0000    0    15.999   35.070745  -66.428603    3.061690
  38 O     8.0000    0    15.999   26.560536  -64.160535    1.593887
  39 O     8.0000    0    15.999   41.387042  -64.346631   -4.383668
  40 O     8.0000    0    15.999   39.219476  -66.623125   -0.481480
  41 C     6.0000    0    12.011   42.604540  -63.298633   -6.551297
  42 H     1.0000    0     1.008   35.969832  -58.163873   -2.384110
  43 H     1.0000    0     1.008   36.584462  -58.131184    5.656901
  44 H     1.0000    0     1.008   32.208585  -58.626463    0.440854
  45 H     1.0000    0     1.008   32.639543  -59.192986    3.676397
  46 H     1.0000    0     1.008   34.899152  -62.672857   -0.279664
  47 H     1.0000    0     1.008   31.194410  -65.542671    0.499800
  48 H     1.0000    0     1.008   30.175831  -60.752413   -2.546543
  49 H     1.0000    0     1.008   28.580013  -63.632993   -2.846688
  50 H     1.0000    0     1.008   32.191175  -67.560983   -3.129735
  51 H     1.0000    0     1.008   36.197831  -61.438095   -8.935982
  52 H     1.0000    0     1.008   33.031839  -59.978091   -5.802945
  53 H     1.0000    0     1.008   33.309133  -63.740652    5.135722
  54 H     1.0000    0     1.008   36.377895  -62.895751    4.161701
  55 H     1.0000    0     1.008   29.351028  -63.013631    4.101771
  56 H     1.0000    0     1.008   28.301486  -60.779686    1.858445
  57 H     1.0000    0     1.008   37.955244  -67.891029   -9.302678
  58 H     1.0000    0     1.008   44.767604  -56.487088   -1.995386
  59 H     1.0000    0     1.008   45.950409  -58.113241    3.395785
  60 H     1.0000    0     1.008   46.560899  -52.351251   -0.817144
  61 H     1.0000    0     1.008   48.878659  -54.729586   -1.179422
  62 H     1.0000    0     1.008   46.967570  -53.080488    3.530577
  63 H     1.0000    0     1.008   44.575330  -60.501840   -3.169761
  64 H     1.0000    0     1.008   40.513106  -64.958857    3.967762
  65 H     1.0000    0     1.008   43.436195  -61.381809    4.789770
  66 H     1.0000    0     1.008   40.032901  -58.773564    8.258867
  67 H     1.0000    0     1.008   41.875863  -56.207369    9.422181
  68 H     1.0000    0     1.008   38.653100  -55.715344    8.588875
  69 H     1.0000    0     1.008   40.378984  -55.809787   -6.932689
  70 H     1.0000    0     1.008   38.780134  -58.457868   -5.608228
  71 H     1.0000    0     1.008   37.374646  -55.401453   -5.466766
  72 H     1.0000    0     1.008   32.716733  -71.549119   -4.902619
  73 H     1.0000    0     1.008   35.708839  -73.067747   -5.190821
  74 H     1.0000    0     1.008   35.194958  -70.820305   -2.733046
  75 H     1.0000    0     1.008   49.653599  -58.180280    1.399285
  76 H     1.0000    0     1.008   36.353818  -66.561914    1.755231
  77 H     1.0000    0     1.008   26.917904  -65.929889    1.861379
  78 H     1.0000    0     1.008   39.041903  -66.840939   -2.292723
  79 H     1.0000    0     1.008   41.822054  -64.293976   -8.164890
  80 H     1.0000    0     1.008   42.203851  -61.282357   -6.717505
  81 H     1.0000    0     1.008   44.645715  -63.590528   -6.447614

--------------------------------
INTERNAL COORDINATES (ANGSTROEM)
--------------------------------
 C      0   0   0     0.000000000000     0.00000000     0.00000000
 C      1   0   0     1.397417307720     0.00000000     0.00000000
 C      2   1   0     1.399249186506   119.24061981     0.00000000
 C      3   2   1     1.392115606241   120.17573630   358.25331922
 C      4   3   2     1.392886228967   120.37046480     1.98762289
 C      5   4   3     1.390905271633   119.64152235   359.41737015
 C      5   4   3     1.507325031013   119.23991531   180.60925735
 C      7   5   4     1.545327286518   113.11163165    78.16050027
 C      8   7   5     1.541525295148   113.34091706   202.83478181
 C      9   8   7     1.538976622396   112.35944768    75.39216795
 C     10   9   8     1.508400418407   114.44866641    58.15532721
 C     11  10   9     1.401044342022   120.36116407    55.68041847
 C     12  11  10     1.385508230455   120.71312970   179.86959149
 C     13  12  11     1.404153917884   120.13144555   359.00500266
 C     14  13  12     1.381212447008   119.48290279     1.38915919
 C     11  10   9     1.389349895277   121.19334706   235.71595256
 C      8   7   5     1.529496794097   110.46252768    75.95435926
 C      9   8   7     1.528553347672   112.85660064   309.37654432
 O      3   2   1     1.360150684965   115.88603625   178.51220409
 O      1   2   3     1.360249531536   115.66177854   179.26108691
 O      2   1   3     1.373188286322   118.62909038   175.98737386
 O     14  13  12     1.366122177951   120.20990191   181.15713298
 O     13  12  11     1.365834035864   125.56922773   178.92638828
 C     21   2   1     1.444014593495   119.99038276   118.60842215
 C     24  21   2     1.543447859845   110.95100755   296.73804893
 C     25  24  21     1.506373728111   113.53627942    75.84047924
 C     24  21   2     1.518130895410   104.68577311   174.48486325
 O     27  24  21     1.427600706838   113.12848293    71.42754140
 C     26  25  24     1.398602661790   120.32983344    54.99084158
 C     29  26  25     1.384622717163   120.34068847   180.58368027
 C     30  29  26     1.402784118116   119.73125281   359.62432245
 C     31  30  29     1.381264623186   120.12409123   358.96998320
 C     26  25  24     1.387062587375   120.37734560   234.02582029
 C     20   1   2     1.424796655589   118.11883095   183.35818397
 C     19   3   2     1.425615658203   118.10383758   179.44305656
 C     23  13  12     1.426785890886   118.27029264   357.14522781
 O     25  24  21     1.438679739216   109.95934315   196.24377727
 O     17   8   7     1.428246430864   113.24141807   187.52871329
 O     18   9   8     1.432833622173   112.74442003   191.43753945
 O     30  29  26     1.361654638650   125.75528552   179.09302911
 O     31  30  29     1.370144426901   119.91742887   178.98828036
 C     40  30  29     1.427721542196   118.22587405     4.43031839
 H      4   3   2     1.079830484475   120.33212952   181.46486299
 H      6   5   4     1.079805396034   119.37697472   180.04291160
 H      7   5   4     1.091617289885   108.59014547   317.17422046
 H      7   5   4     1.093174638680   109.66106786   200.90683017
 H      8   7   5     1.094063004814   107.14012776   320.24434511
 H      9   8   7     1.094849259405   106.24863567   193.01240997
 H     10   9   8     1.093260102219   109.65761051   295.54558815
 H     10   9   8     1.093505237950   107.72695913   180.26536305
 H     12  11  10     1.080707684072   119.54591927   359.70751296
 H     15  14  13     1.082837114558   119.05883200   179.15468577
 H     16  11  10     1.083137170100   119.60521200     0.75446398
 H     17   8   7     1.092102521741   110.66236409    68.56969800
 H     17   8   7     1.093725947408   109.13518297   310.61062777
 H     18   9   8     1.094518801315   110.36710652   314.54427022
 H     18   9   8     1.091473944245   110.78995082    73.72710217
 H     22  14  13     0.969063794797   108.33422541   358.76348759
 H     24  21   2     1.090759196407   109.68861435    58.80687214
 H     25  24  21     1.091687560162   107.67923803   315.52037998
 H     27  24  21     1.094490456005   108.33618981   308.04080793
 H     27  24  21     1.088680396001   109.69081897   190.20441700
 H     28  27  24     0.966144090997   108.00466875   300.05313824
 H     29  26  25     1.079836273047   119.97559335   359.73792544
 H     32  31  30     1.082125816666   119.23236752   180.74014179
 H     33  26  25     1.082306610799   119.75028612     0.91560446
 H     34  20   1     1.092766983773   111.12448533    59.26725739
 H     34  20   1     1.087440047248   105.82303671   178.17484230
 H     34  20   1     1.092884867661   111.28953239   297.05341691
 H     35  19   3     1.087237428564   105.85572536   181.13307268
 H     35  19   3     1.091445779213   111.22167662   300.14309167
 H     35  19   3     1.092801264120   111.08500495    62.15585762
 H     36  23  13     1.092426135256   110.91048179    62.81084944
 H     36  23  13     1.086999547380   105.99121045   181.83213753
 H     36  23  13     1.092516191029   110.78689145   300.89684983
 H     37  25  24     0.966562027875   107.68605876    73.46099847
 H     38  17   8     0.971567408791   108.28513918    63.35749768
 H     39  18   9     0.965640004112   108.05862917    61.07100147
 H     41  31  30     0.969937181586   108.80825038   358.42792748
 H     42  40  30     1.085351856721   105.74808661   179.32428724
 H     42  40  30     1.091381775021   110.90506764   298.16861798
 H     42  40  30     1.092510376196   110.54135807    59.85964988

---------------------------
INTERNAL COORDINATES (A.U.)
---------------------------
 C      0   0   0     0.000000000000     0.00000000     0.00000000
 C      1   0   0     2.640736006391     0.00000000     0.00000000
 C      2   1   0     2.644197755609   119.24061981     0.00000000
 C      3   2   1     2.630717242553   120.17573630   358.25331922
 C      4   3   2     2.632173508458   120.37046480     1.98762289
 C      5   4   3     2.628430041614   119.64152235   359.41737015
 C      5   4   3     2.848431503419   119.23991531   180.60925735
 C      7   5   4     2.920245358794   113.11163165    78.16050027
 C      8   7   5     2.913060636341   113.34091706   202.83478181
 C      9   8   7     2.908244342835   112.35944768    75.39216795
 C     10   9   8     2.850463691081   114.44866641    58.15532721
 C     11  10   9     2.647590107902   120.36116407    55.68041847
 C     12  11  10     2.618231111853   120.71312970   179.86959149
 C     13  12  11     2.653466354673   120.13144555   359.00500266
 C     14  13  12     2.610113257608   119.48290279     1.38915919
 C     11  10   9     2.625490806266   121.19334706   235.71595256
 C      8   7   5     2.890330063553   110.46252768    75.95435926
 C      9   8   7     2.888547208189   112.85660064   309.37654432
 O      3   2   1     2.570312295449   115.88603625   178.51220409
 O      1   2   3     2.570499088398   115.66177854   179.26108691
 O      2   1   3     2.594949791457   118.62909038   175.98737386
 O     14  13  12     2.581596781803   120.20990191   181.15713298
 O     13  12  11     2.581052272171   125.56922773   178.92638828
 C     21   2   1     2.728792115092   119.99038276   118.60842215
 C     24  21   2     2.916693757094   110.95100755   296.73804893
 C     25  24  21     2.846633801464   113.53627942    75.84047924
 C     24  21   2     2.868851627769   104.68577311   174.48486325
 O     27  24  21     2.697774364516   113.12848293    71.42754140
 C     26  25  24     2.642976000957   120.32983344    54.99084158
 C     29  26  25     2.616557734243   120.34068847   180.58368027
 C     30  29  26     2.650877808253   119.73125281   359.62432245
 C     31  30  29     2.610211856296   120.12409123   358.96998320
 C     26  25  24     2.621168420747   120.37734560   234.02582029
 C     20   1   2     2.692475475590   118.11883095   183.35818397
 C     19   3   2     2.694023166234   118.10383758   179.44305656
 C     23  13  12     2.696234585518   118.27029264   357.14522781
 O     25  24  21     2.718710701539   109.95934315   196.24377727
 O     17   8   7     2.698994606084   113.24141807   187.52871329
 O     18   9   8     2.707663141381   112.74442003   191.43753945
 O     30  29  26     2.573154356032   125.75528552   179.09302911
 O     31  30  29     2.589197730761   119.91742887   178.98828036
 C     40  30  29     2.698002710251   118.22587405     4.43031839
 H      4   3   2     2.040583886718   120.33212952   181.46486299
 H      6   5   4     2.040536476435   119.37697472   180.04291160
 H      7   5   4     2.062857720937   108.59014547   317.17422046
 H      7   5   4     2.065800683653   109.66106786   200.90683017
 H      8   7   5     2.067479452354   107.14012776   320.24434511
 H      9   8   7     2.068965258201   106.24863567   193.01240997
 H     10   9   8     2.065962186337   109.65761051   295.54558815
 H     10   9   8     2.066425425734   107.72695913   180.26536305
 H     12  11  10     2.042241553721   119.54591927   359.70751296
 H     15  14  13     2.046265594161   119.05883200   179.15468577
 H     16  11  10     2.046832616959   119.60521200     0.75446398
 H     17   8   7     2.063774676256   110.66236409    68.56969800
 H     17   8   7     2.066842506166   109.13518297   310.61062777
 H     18   9   8     2.068340782913   110.36710652   314.54427022
 H     18   9   8     2.062586836933   110.78995082    73.72710217
 H     22  14  13     1.831265178465   108.33422541   358.76348759
 H     24  21   2     2.061236159266   109.68861435    58.80687214
 H     25  24  21     2.062990512515   107.67923803   315.52037998
 H     27  24  21     2.068287218039   108.33618981   308.04080793
 H     27  24  21     2.057307795812   109.69081897   190.20441700
 H     28  27  24     1.825747737890   108.00466875   300.05313824
 H     29  26  25     2.040594825533   119.97559335   359.73792544
 H     32  31  30     2.044921435944   119.23236752   180.74014179
 H     33  26  25     2.045263087342   119.75028612     0.91560446
 H     34  20   1     2.065030327522   111.12448533    59.26725739
 H     34  20   1     2.054963876357   105.82303671   178.17484230
 H     34  20   1     2.065253095786   111.28953239   297.05341691
 H     35  19   3     2.054580982535   105.85572536   181.13307268
 H     35  19   3     2.062533612736   111.22167662   300.14309167
 H     35  19   3     2.065095107990   111.08500495    62.15585762
 H     36  23  13     2.064386217172   110.91048179    62.81084944
 H     36  23  13     2.054131452245   105.99121045   181.83213753
 H     36  23  13     2.064556397920   110.78689145   300.89684983
 H     37  25  24     1.826537524131   107.68605876    73.46099847
 H     38  17   8     1.835996323259   108.28513918    63.35749768
 H     39  18   9     1.824795151731   108.05862917    61.07100147
 H     41  31  30     1.832915640305   108.80825038   358.42792748
 H     42  40  30     2.051017768147   105.74808661   179.32428724
 H     42  40  30     2.062412662343   110.90506764   298.16861798
 H     42  40  30     2.064545409477   110.54135807    59.85964988

---------------------
BASIS SET INFORMATION
---------------------
There are 3 groups of distinct atoms

 Group   1 Type C   : 11s7p2d1f contracted to 4s5p2d1f pattern {7211/31111/11/1}
 Group   2 Type O   : 11s7p2d1f contracted to 4s5p2d1f pattern {7211/31111/11/1}
 Group   3 Type H   : 6s3p1d contracted to 3s2p1d pattern {411/21/1}

Atom   0C    basis set group =>   1
Atom   1C    basis set group =>   1
Atom   2C    basis set group =>   1
Atom   3C    basis set group =>   1
Atom   4C    basis set group =>   1
Atom   5C    basis set group =>   1
Atom   6C    basis set group =>   1
Atom   7C    basis set group =>   1
Atom   8C    basis set group =>   1
Atom   9C    basis set group =>   1
Atom  10C    basis set group =>   1
Atom  11C    basis set group =>   1
Atom  12C    basis set group =>   1
Atom  13C    basis set group =>   1
Atom  14C    basis set group =>   1
Atom  15C    basis set group =>   1
Atom  16C    basis set group =>   1
Atom  17C    basis set group =>   1
Atom  18O    basis set group =>   2
Atom  19O    basis set group =>   2
Atom  20O    basis set group =>   2
Atom  21O    basis set group =>   2
Atom  22O    basis set group =>   2
Atom  23C    basis set group =>   1
Atom  24C    basis set group =>   1
Atom  25C    basis set group =>   1
Atom  26C    basis set group =>   1
Atom  27O    basis set group =>   2
Atom  28C    basis set group =>   1
Atom  29C    basis set group =>   1
Atom  30C    basis set group =>   1
Atom  31C    basis set group =>   1
Atom  32C    basis set group =>   1
Atom  33C    basis set group =>   1
Atom  34C    basis set group =>   1
Atom  35C    basis set group =>   1
Atom  36O    basis set group =>   2
Atom  37O    basis set group =>   2
Atom  38O    basis set group =>   2
Atom  39O    basis set group =>   2
Atom  40O    basis set group =>   2
Atom  41C    basis set group =>   1
Atom  42H    basis set group =>   3
Atom  43H    basis set group =>   3
Atom  44H    basis set group =>   3
Atom  45H    basis set group =>   3
Atom  46H    basis set group =>   3
Atom  47H    basis set group =>   3
Atom  48H    basis set group =>   3
Atom  49H    basis set group =>   3
Atom  50H    basis set group =>   3
Atom  51H    basis set group =>   3
Atom  52H    basis set group =>   3
Atom  53H    basis set group =>   3
Atom  54H    basis set group =>   3
Atom  55H    basis set group =>   3
Atom  56H    basis set group =>   3
Atom  57H    basis set group =>   3
Atom  58H    basis set group =>   3
Atom  59H    basis set group =>   3
Atom  60H    basis set group =>   3
Atom  61H    basis set group =>   3
Atom  62H    basis set group =>   3
Atom  63H    basis set group =>   3
Atom  64H    basis set group =>   3
Atom  65H    basis set group =>   3
Atom  66H    basis set group =>   3
Atom  67H    basis set group =>   3
Atom  68H    basis set group =>   3
Atom  69H    basis set group =>   3
Atom  70H    basis set group =>   3
Atom  71H    basis set group =>   3
Atom  72H    basis set group =>   3
Atom  73H    basis set group =>   3
Atom  74H    basis set group =>   3
Atom  75H    basis set group =>   3
Atom  76H    basis set group =>   3
Atom  77H    basis set group =>   3
Atom  78H    basis set group =>   3
Atom  79H    basis set group =>   3
Atom  80H    basis set group =>   3
Atom  81H    basis set group =>   3
---------------------------------
AUXILIARY/J BASIS SET INFORMATION
---------------------------------
There are 3 groups of distinct atoms

 Group   1 Type C   : 15s13p12d5f5g contracted to 15s13p12d5f5g pattern {111111111111111/1111111111111/111111111111/11111/11111}
 Group   2 Type O   : 15s13p12d5f5g contracted to 15s13p12d5f5g pattern {111111111111111/1111111111111/111111111111/11111/11111}
 Group   3 Type H   : 12s4p3d2f contracted to 12s4p3d2f pattern {111111111111/1111/111/11}

Atom   0C    basis set group =>   1
Atom   1C    basis set group =>   1
Atom   2C    basis set group =>   1
Atom   3C    basis set group =>   1
Atom   4C    basis set group =>   1
Atom   5C    basis set group =>   1
Atom   6C    basis set group =>   1
Atom   7C    basis set group =>   1
Atom   8C    basis set group =>   1
Atom   9C    basis set group =>   1
Atom  10C    basis set group =>   1
Atom  11C    basis set group =>   1
Atom  12C    basis set group =>   1
Atom  13C    basis set group =>   1
Atom  14C    basis set group =>   1
Atom  15C    basis set group =>   1
Atom  16C    basis set group =>   1
Atom  17C    basis set group =>   1
Atom  18O    basis set group =>   2
Atom  19O    basis set group =>   2
Atom  20O    basis set group =>   2
Atom  21O    basis set group =>   2
Atom  22O    basis set group =>   2
Atom  23C    basis set group =>   1
Atom  24C    basis set group =>   1
Atom  25C    basis set group =>   1
Atom  26C    basis set group =>   1
Atom  27O    basis set group =>   2
Atom  28C    basis set group =>   1
Atom  29C    basis set group =>   1
Atom  30C    basis set group =>   1
Atom  31C    basis set group =>   1
Atom  32C    basis set group =>   1
Atom  33C    basis set group =>   1
Atom  34C    basis set group =>   1
Atom  35C    basis set group =>   1
Atom  36O    basis set group =>   2
Atom  37O    basis set group =>   2
Atom  38O    basis set group =>   2
Atom  39O    basis set group =>   2
Atom  40O    basis set group =>   2
Atom  41C    basis set group =>   1
Atom  42H    basis set group =>   3
Atom  43H    basis set group =>   3
Atom  44H    basis set group =>   3
Atom  45H    basis set group =>   3
Atom  46H    basis set group =>   3
Atom  47H    basis set group =>   3
Atom  48H    basis set group =>   3
Atom  49H    basis set group =>   3
Atom  50H    basis set group =>   3
Atom  51H    basis set group =>   3
Atom  52H    basis set group =>   3
Atom  53H    basis set group =>   3
Atom  54H    basis set group =>   3
Atom  55H    basis set group =>   3
Atom  56H    basis set group =>   3
Atom  57H    basis set group =>   3
Atom  58H    basis set group =>   3
Atom  59H    basis set group =>   3
Atom  60H    basis set group =>   3
Atom  61H    basis set group =>   3
Atom  62H    basis set group =>   3
Atom  63H    basis set group =>   3
Atom  64H    basis set group =>   3
Atom  65H    basis set group =>   3
Atom  66H    basis set group =>   3
Atom  67H    basis set group =>   3
Atom  68H    basis set group =>   3
Atom  69H    basis set group =>   3
Atom  70H    basis set group =>   3
Atom  71H    basis set group =>   3
Atom  72H    basis set group =>   3
Atom  73H    basis set group =>   3
Atom  74H    basis set group =>   3
Atom  75H    basis set group =>   3
Atom  76H    basis set group =>   3
Atom  77H    basis set group =>   3
Atom  78H    basis set group =>   3
Atom  79H    basis set group =>   3
Atom  80H    basis set group =>   3
Atom  81H    basis set group =>   3
---------------------------------
AUXILIARY/C BASIS SET INFORMATION
---------------------------------
There are 3 groups of distinct atoms

 Group   1 Type C   : 15s13p12d5f5g contracted to 15s13p12d5f5g pattern {111111111111111/1111111111111/111111111111/11111/11111}
 Group   2 Type O   : 15s13p12d5f5g contracted to 15s13p12d5f5g pattern {111111111111111/1111111111111/111111111111/11111/11111}
 Group   3 Type H   : 12s4p3d2f contracted to 12s4p3d2f pattern {111111111111/1111/111/11}

Atom   0C    basis set group =>   1
Atom   1C    basis set group =>   1
Atom   2C    basis set group =>   1
Atom   3C    basis set group =>   1
Atom   4C    basis set group =>   1
Atom   5C    basis set group =>   1
Atom   6C    basis set group =>   1
Atom   7C    basis set group =>   1
Atom   8C    basis set group =>   1
Atom   9C    basis set group =>   1
Atom  10C    basis set group =>   1
Atom  11C    basis set group =>   1
Atom  12C    basis set group =>   1
Atom  13C    basis set group =>   1
Atom  14C    basis set group =>   1
Atom  15C    basis set group =>   1
Atom  16C    basis set group =>   1
Atom  17C    basis set group =>   1
Atom  18O    basis set group =>   2
Atom  19O    basis set group =>   2
Atom  20O    basis set group =>   2
Atom  21O    basis set group =>   2
Atom  22O    basis set group =>   2
Atom  23C    basis set group =>   1
Atom  24C    basis set group =>   1
Atom  25C    basis set group =>   1
Atom  26C    basis set group =>   1
Atom  27O    basis set group =>   2
Atom  28C    basis set group =>   1
Atom  29C    basis set group =>   1
Atom  30C    basis set group =>   1
Atom  31C    basis set group =>   1
Atom  32C    basis set group =>   1
Atom  33C    basis set group =>   1
Atom  34C    basis set group =>   1
Atom  35C    basis set group =>   1
Atom  36O    basis set group =>   2
Atom  37O    basis set group =>   2
Atom  38O    basis set group =>   2
Atom  39O    basis set group =>   2
Atom  40O    basis set group =>   2
Atom  41C    basis set group =>   1
Atom  42H    basis set group =>   3
Atom  43H    basis set group =>   3
Atom  44H    basis set group =>   3
Atom  45H    basis set group =>   3
Atom  46H    basis set group =>   3
Atom  47H    basis set group =>   3
Atom  48H    basis set group =>   3
Atom  49H    basis set group =>   3
Atom  50H    basis set group =>   3
Atom  51H    basis set group =>   3
Atom  52H    basis set group =>   3
Atom  53H    basis set group =>   3
Atom  54H    basis set group =>   3
Atom  55H    basis set group =>   3
Atom  56H    basis set group =>   3
Atom  57H    basis set group =>   3
Atom  58H    basis set group =>   3
Atom  59H    basis set group =>   3
Atom  60H    basis set group =>   3
Atom  61H    basis set group =>   3
Atom  62H    basis set group =>   3
Atom  63H    basis set group =>   3
Atom  64H    basis set group =>   3
Atom  65H    basis set group =>   3
Atom  66H    basis set group =>   3
Atom  67H    basis set group =>   3
Atom  68H    basis set group =>   3
Atom  69H    basis set group =>   3
Atom  70H    basis set group =>   3
Atom  71H    basis set group =>   3
Atom  72H    basis set group =>   3
Atom  73H    basis set group =>   3
Atom  74H    basis set group =>   3
Atom  75H    basis set group =>   3
Atom  76H    basis set group =>   3
Atom  77H    basis set group =>   3
Atom  78H    basis set group =>   3
Atom  79H    basis set group =>   3
Atom  80H    basis set group =>   3
Atom  81H    basis set group =>   3
----------------------------------
AUXILIARY/JK BASIS SET INFORMATION
----------------------------------
There are 3 groups of distinct atoms

 Group   1 Type C   : 15s13p12d5f5g contracted to 15s13p12d5f5g pattern {111111111111111/1111111111111/111111111111/11111/11111}
 Group   2 Type O   : 15s13p12d5f5g contracted to 15s13p12d5f5g pattern {111111111111111/1111111111111/111111111111/11111/11111}
 Group   3 Type H   : 12s4p3d2f contracted to 12s4p3d2f pattern {111111111111/1111/111/11}

Atom   0C    basis set group =>   1
Atom   1C    basis set group =>   1
Atom   2C    basis set group =>   1
Atom   3C    basis set group =>   1
Atom   4C    basis set group =>   1
Atom   5C    basis set group =>   1
Atom   6C    basis set group =>   1
Atom   7C    basis set group =>   1
Atom   8C    basis set group =>   1
Atom   9C    basis set group =>   1
Atom  10C    basis set group =>   1
Atom  11C    basis set group =>   1
Atom  12C    basis set group =>   1
Atom  13C    basis set group =>   1
Atom  14C    basis set group =>   1
Atom  15C    basis set group =>   1
Atom  16C    basis set group =>   1
Atom  17C    basis set group =>   1
Atom  18O    basis set group =>   2
Atom  19O    basis set group =>   2
Atom  20O    basis set group =>   2
Atom  21O    basis set group =>   2
Atom  22O    basis set group =>   2
Atom  23C    basis set group =>   1
Atom  24C    basis set group =>   1
Atom  25C    basis set group =>   1
Atom  26C    basis set group =>   1
Atom  27O    basis set group =>   2
Atom  28C    basis set group =>   1
Atom  29C    basis set group =>   1
Atom  30C    basis set group =>   1
Atom  31C    basis set group =>   1
Atom  32C    basis set group =>   1
Atom  33C    basis set group =>   1
Atom  34C    basis set group =>   1
Atom  35C    basis set group =>   1
Atom  36O    basis set group =>   2
Atom  37O    basis set group =>   2
Atom  38O    basis set group =>   2
Atom  39O    basis set group =>   2
Atom  40O    basis set group =>   2
Atom  41C    basis set group =>   1
Atom  42H    basis set group =>   3
Atom  43H    basis set group =>   3
Atom  44H    basis set group =>   3
Atom  45H    basis set group =>   3
Atom  46H    basis set group =>   3
Atom  47H    basis set group =>   3
Atom  48H    basis set group =>   3
Atom  49H    basis set group =>   3
Atom  50H    basis set group =>   3
Atom  51H    basis set group =>   3
Atom  52H    basis set group =>   3
Atom  53H    basis set group =>   3
Atom  54H    basis set group =>   3
Atom  55H    basis set group =>   3
Atom  56H    basis set group =>   3
Atom  57H    basis set group =>   3
Atom  58H    basis set group =>   3
Atom  59H    basis set group =>   3
Atom  60H    basis set group =>   3
Atom  61H    basis set group =>   3
Atom  62H    basis set group =>   3
Atom  63H    basis set group =>   3
Atom  64H    basis set group =>   3
Atom  65H    basis set group =>   3
Atom  66H    basis set group =>   3
Atom  67H    basis set group =>   3
Atom  68H    basis set group =>   3
Atom  69H    basis set group =>   3
Atom  70H    basis set group =>   3
Atom  71H    basis set group =>   3
Atom  72H    basis set group =>   3
Atom  73H    basis set group =>   3
Atom  74H    basis set group =>   3
Atom  75H    basis set group =>   3
Atom  76H    basis set group =>   3
Atom  77H    basis set group =>   3
Atom  78H    basis set group =>   3
Atom  79H    basis set group =>   3
Atom  80H    basis set group =>   3
Atom  81H    basis set group =>   3
---------------------------------
AUXILIARY/X BASIS SET INFORMATION
---------------------------------
There are 3 groups of distinct atoms

 Group   1 Type C   : 15s13p12d5f5g contracted to 15s13p12d5f5g pattern {111111111111111/1111111111111/111111111111/11111/11111}
 Group   2 Type O   : 15s13p12d5f5g contracted to 15s13p12d5f5g pattern {111111111111111/1111111111111/111111111111/11111/11111}
 Group   3 Type H   : 12s4p3d2f contracted to 12s4p3d2f pattern {111111111111/1111/111/11}

Atom   0C    basis set group =>   1
Atom   1C    basis set group =>   1
Atom   2C    basis set group =>   1
Atom   3C    basis set group =>   1
Atom   4C    basis set group =>   1
Atom   5C    basis set group =>   1
Atom   6C    basis set group =>   1
Atom   7C    basis set group =>   1
Atom   8C    basis set group =>   1
Atom   9C    basis set group =>   1
Atom  10C    basis set group =>   1
Atom  11C    basis set group =>   1
Atom  12C    basis set group =>   1
Atom  13C    basis set group =>   1
Atom  14C    basis set group =>   1
Atom  15C    basis set group =>   1
Atom  16C    basis set group =>   1
Atom  17C    basis set group =>   1
Atom  18O    basis set group =>   2
Atom  19O    basis set group =>   2
Atom  20O    basis set group =>   2
Atom  21O    basis set group =>   2
Atom  22O    basis set group =>   2
Atom  23C    basis set group =>   1
Atom  24C    basis set group =>   1
Atom  25C    basis set group =>   1
Atom  26C    basis set group =>   1
Atom  27O    basis set group =>   2
Atom  28C    basis set group =>   1
Atom  29C    basis set group =>   1
Atom  30C    basis set group =>   1
Atom  31C    basis set group =>   1
Atom  32C    basis set group =>   1
Atom  33C    basis set group =>   1
Atom  34C    basis set group =>   1
Atom  35C    basis set group =>   1
Atom  36O    basis set group =>   2
Atom  37O    basis set group =>   2
Atom  38O    basis set group =>   2
Atom  39O    basis set group =>   2
Atom  40O    basis set group =>   2
Atom  41C    basis set group =>   1
Atom  42H    basis set group =>   3
Atom  43H    basis set group =>   3
Atom  44H    basis set group =>   3
Atom  45H    basis set group =>   3
Atom  46H    basis set group =>   3
Atom  47H    basis set group =>   3
Atom  48H    basis set group =>   3
Atom  49H    basis set group =>   3
Atom  50H    basis set group =>   3
Atom  51H    basis set group =>   3
Atom  52H    basis set group =>   3
Atom  53H    basis set group =>   3
Atom  54H    basis set group =>   3
Atom  55H    basis set group =>   3
Atom  56H    basis set group =>   3
Atom  57H    basis set group =>   3
Atom  58H    basis set group =>   3
Atom  59H    basis set group =>   3
Atom  60H    basis set group =>   3
Atom  61H    basis set group =>   3
Atom  62H    basis set group =>   3
Atom  63H    basis set group =>   3
Atom  64H    basis set group =>   3
Atom  65H    basis set group =>   3
Atom  66H    basis set group =>   3
Atom  67H    basis set group =>   3
Atom  68H    basis set group =>   3
Atom  69H    basis set group =>   3
Atom  70H    basis set group =>   3
Atom  71H    basis set group =>   3
Atom  72H    basis set group =>   3
Atom  73H    basis set group =>   3
Atom  74H    basis set group =>   3
Atom  75H    basis set group =>   3
Atom  76H    basis set group =>   3
Atom  77H    basis set group =>   3
Atom  78H    basis set group =>   3
Atom  79H    basis set group =>   3
Atom  80H    basis set group =>   3
Atom  81H    basis set group =>   3
--------------------------------------------------------------------------
WARNING: There was an error initializing an OpenFabrics device.

  Local host:   c02b01n02
  Local device: mlx5_0
--------------------------------------------------------------------------
--------------------------------------------------------------------------
WARNING: There is at least one non-excluded one OpenFabrics device found,
but there are no active ports detected (or Open MPI was unable to use
them).  This is most certainly not what you wanted.  Check your
cables, subnet manager configuration, etc.  The openib BTL will be
ignored for this job.

  Local host: c02b01n02
--------------------------------------------------------------------------


           ************************************************************
           *        Program running with 60 parallel MPI-processes    *
           *              working on a common directory               *
           ************************************************************
------------------------------------------------------------------------------
                             ORCA STARTUP CALCULATIONS
                           -- RI-GTO INTEGRALS CHOSEN --
------------------------------------------------------------------------------
------------------------------------------------------------------------------
                   ___                                                        
                  /   \      - P O W E R E D   B Y -                         
                 /     \                                                     
                 |  |  |   _    _      __       _____    __    __             
                 |  |  |  | |  | |    /  \     |  _  \  |  |  /  |          
                  \  \/   | |  | |   /    \    | | | |  |  | /  /          
                 / \  \   | |__| |  /  /\  \   | |_| |  |  |/  /          
                |  |  |   |  __  | /  /__\  \  |    /   |      \           
                |  |  |   | |  | | |   __   |  |    \   |  |\   \          
                \     /   | |  | | |  |  |  |  | |\  \  |  | \   \       
                 \___/    |_|  |_| |__|  |__|  |_| \__\ |__|  \__/        
                                                                              
                      - O R C A' S   B I G   F R I E N D -                    
                                      &                                       
                       - I N T E G R A L  F E E D E R -                       
                                                                              
 v1 FN, 2020, v2 2021, v3 2022-2024                                           
------------------------------------------------------------------------------


[c02b01n02:2068146] 54 more processes have sent help message help-mpi-btl-openib.txt / error in device init
[c02b01n02:2068146] Set MCA parameter "orte_base_help_aggregate" to 0 to see all help / error messages
[c02b01n02:2068146] 4 more processes have sent help message help-mpi-btl-openib.txt / no active ports found
----------------------
SHARK INTEGRAL PACKAGE
----------------------

Number of atoms                             ...     82
Number of basis functions                   ...   2072
Number of shells                            ...    744
Maximum angular momentum                    ...      3
Integral batch strategy                     ... SHARK/LIBINT Hybrid
RI-J (if used) integral strategy            ... SPLIT-RIJ (Revised 2003 algorithm where possible)
Printlevel                                  ...      1
Contraction scheme used                     ... SEGMENTED contraction
Prescreening option                         ... SCHWARTZ
   Thresh                                   ... 1.000e-10
   Tcut                                     ... 1.000e-11
   Tpresel                                  ... 1.000e-11 
Coulomb Range Separation                    ... NOT USED
Exchange Range Separation                   ... NOT USED
Multipole approximations                    ... NOT USED
Finite Nucleus Model                        ... NOT USED
CABS basis                                  ... NOT available
Auxiliary Coulomb fitting basis             ... AVAILABLE
   # of basis functions in Aux-J            ...  10268
   # of shells in Aux-J                     ...   2940
   Maximum angular momentum in Aux-J        ...      4
Auxiliary J/K fitting basis                 ... AVAILABLE
   # of basis functions in Aux-JK           ...  10268
   # of shells in Aux-JK                    ...   2940
   Maximum angular momentum in Aux-JK       ...      4
Auxiliary Correlation fitting basis         ... AVAILABLE
   # of basis functions in Aux-C            ...  10268
   # of shells in Aux-C                     ...   2940
   Maximum angular momentum in Aux-C        ...      4
Auxiliary 'external' fitting basis          ... NOT available

Checking pre-screening integrals            ... done (  0.0 sec) Dimension = 744
   => SHARK Basis and OBASIS are compatible. Storing Pre-screening
Shell pair information
Shell pair cut-off parameter TPreSel        ...   1.0e-11
Total number of shell pairs                 ...    277140
Shell pairs after pre-screening             ...    149786
Total number of primitive shell pairs       ...    823733
Primitive shell pairs kept                  ...    274276
          la=0 lb=0:  28546 shell pairs
          la=1 lb=0:  49828 shell pairs
          la=1 lb=1:  20341 shell pairs
          la=2 lb=0:  19641 shell pairs
          la=2 lb=1:  14820 shell pairs
          la=2 lb=2:   2640 shell pairs
          la=3 lb=0:   6776 shell pairs
          la=3 lb=1:   5091 shell pairs
          la=3 lb=2:   1774 shell pairs
          la=3 lb=3:    329 shell pairs

Checking whether 4 symmetric matrices of dimension 2072 fit in memory
:Max Core in MB      =   5000.00
 MB in use           =    185.05
 MB left             =   4814.95
 MB needed           =     65.54
 Data fit in memory  = YES
Calculating RI/J V-Matrix + Cholesky decomp.... done ( 12.0 sec)
Calculating RI/JK V-Matrix + Cholesky decomp.... done ( 10.2 sec)
Calculating RI/C V-Matrix + Cholesky decomp.... done (  8.6 sec)
Calculating Nuclear repulsion               ... done (  0.0 sec) ENN=   5679.395507499615 Eh

Diagonalization of the overlap matrix:
Smallest eigenvalue                        ... 7.448e-06
Time for diagonalization                   ...    0.498 sec
Threshold for overlap eigenvalues          ... 1.000e-07
Number of eigenvalues below threshold      ... 0
Time for construction of square roots      ...    0.344 sec
Total time needed                          ...    0.885 sec

-------------------
DFT GRID GENERATION
-------------------

General Integration Accuracy     IntAcc      ... 4.388
Radial Grid Type                 RadialGrid  ... OptM3 with GC (2021)
Angular Grid (max. ang.)         AngularGrid ... 4 (Lebedev-302)
Angular grid pruning method      GridPruning ... 4 (adaptive)
Weight generation scheme         WeightScheme... mBecke (2022)
Basis function cutoff            BFCut       ... 1.0000e-10
Integration weight cutoff        WCut        ... 1.0000e-14
Partially contracted basis set               ... off
Rotationally invariant grid construction     ... off
Angular grids for H and He will be reduced by one unit
Diffuse basis detected: some atoms will have their outermost
                        angular grid increased by 1.

Total number of grid points                  ...   376909
Total number of batches                      ...     5929
Average number of points per batch           ...       63
Average number of grid points per atom       ...     4596
Grids setup in   2.5 sec
Initializing property integral containers    ... done (  0.2 sec)

SHARK setup successfully completed in  43.3 seconds

Maximum memory used throughout the entire STARTUP-calculation: 257.0 MB
--------------------------------------------------------------------------
WARNING: There was an error initializing an OpenFabrics device.

  Local host:   c02b01n02
  Local device: mlx5_0
--------------------------------------------------------------------------
--------------------------------------------------------------------------
WARNING: There is at least one non-excluded one OpenFabrics device found,
but there are no active ports detected (or Open MPI was unable to use
them).  This is most certainly not what you wanted.  Check your
cables, subnet manager configuration, etc.  The openib BTL will be
ignored for this job.

  Local host: c02b01n02
--------------------------------------------------------------------------


           ************************************************************
           *        Program running with 60 parallel MPI-processes    *
           *              working on a common directory               *
           ************************************************************
-------------------------------------------------------------------------------
                                 ORCA GUESS
                   Start orbitals & Density for SCF / CASSCF
-------------------------------------------------------------------------------

------------
SCF SETTINGS
------------
Hamiltonian:
 Density Functional     Method          .... DFT(GTOs)
 Exchange Functional    Exchange        .... TPSS
 Correlation Functional Correlation     .... TPSS
 LDA part of GGA corr.  LDAOpt          .... PW91-LDA
 Gradients option       PostSCFGGA      .... off
   NL short-range parameter             ....  5.000000
 RI-approximation to the Coulomb term is turned on
   Number of AuxJ basis functions       .... 10268


General Settings:
 Integral files         IntName         .... nmr-conf-0
 Hartree-Fock type      HFTyp           .... RHF
 Total Charge           Charge          ....    0
 Multiplicity           Mult            ....    1
 Number of Electrons    NEL             ....  314
 Basis Dimension        Dim             .... 2072
 Nuclear Repulsion      ENuc            ....   5679.3955074996 Eh

Convergence Acceleration:
 AO-DIIS                CNVDIIS         .... on
   Start iteration      DIISMaxIt       ....    12
   Startup error        DIISStart       ....  0.200000
   # of expansion vecs  DIISMaxEq       ....     5
   Bias factor          DIISBfac        ....   1.050
   Max. coefficient     DIISMaxC        ....  10.000
 MO-DIIS                CNVKDIIS        .... off
 Trust-Rad. Augm. Hess. CNVTRAH         .... auto
   Auto Start mean grad. ratio tolernc. ....  1.125000
   Auto Start start iteration           ....    50
   Auto Start num. interpolation iter.  ....    10
   Max. Number of Micro iterations      ....    24
   Max. Number of Macro iterations      .... Maxiter - #DIIS iter
   Number of Davidson start vectors     ....     2
   Converg. threshold    (grad. norm)   ....   5.000e-05
   Grad. Scal. Fac. for Micro threshold ....   0.100
   Minimum threshold for Micro iter.    ....   1.000e-02
   NR start threshold (gradient norm)   ....   1.000e-04
   Initial trust radius                 ....   0.400
   Minimum AH scaling param. (alpha)    ....   1.000
   Maximum AH scaling param. (alpha)    .... 1000.000
   Quad. conv. algorithm                .... NR
   White noise on init. David. guess    .... on
   Maximum white noise                  ....   0.010
   Pseudo random numbers                .... off
   Inactive MOs                         .... canonical
   Orbital update algorithm             .... Taylor
   Preconditioner                       .... Diag
   Full preconditioner red. dimension   ....   250
 SOSCF                 CNVSOSCF           .... on
   Start iteration     SOSCFMaxIt         ....   150
   Startup grad/error  SOSCFStart         ....  0.003300
   Hessian update      SOSCFHessUp        .... L-BFGS
   Autom. constraints  SOSCFAutoConstrain .... off
 Level Shifting         CNVShift        .... on
   Level shift para.    LevelShift      ....    0.2500
   Turn off err/grad.   ShiftErr        ....    0.0010
 Zerner damping         CNVZerner       .... off
 Static damping         CNVDamp         .... on
   Fraction old density DampFac         ....    0.7000
   Max. Damping (<1)    DampMax         ....    0.9800
   Min. Damping (>=0)   DampMin         ....    0.0000
   Turn off err/grad.   DampErr         ....    0.1000

SCF Procedure:
 Maximum # iterations   MaxIter         ....   125
 SCF integral mode      SCFMode         .... Direct
   Integral package                     .... SHARK and LIBINT hybrid scheme
 Reset frequency        DirectResetFreq ....    20
 Integral Threshold     Thresh          ....  1.000e-10 Eh
 Primitive CutOff       TCut            ....  1.000e-11 Eh

Convergence Tolerance:
 Convergence Check Mode ConvCheckMode   .... Total+1el-Energy
 Convergence forced     ConvForced      .... 0
 Energy Change          TolE            ....  1.000e-06 Eh
 1-El. energy change                    ....  1.000e-03 Eh
 Orbital Gradient       TolG            ....  5.000e-05
 Orbital Rotation angle TolX            ....  5.000e-05
 DIIS Error             TolErr          ....  1.000e-06

------------------------------
INITIAL GUESS: MODEL POTENTIAL
------------------------------
Loading Hartree-Fock densities                     ... done
Calculating cut-offs                               ... done
Initializing the effective Hamiltonian             ... done
Setting up the integral package (SHARK)            ... done
Starting the Coulomb interaction                   ... done (   0.7 sec)
Making the grid                                    ... done (   0.6 sec)
Mapping shells                                     ... done
Starting the XC term evaluation                    ... done (   0.1 sec)
  promolecular density results
     # of electrons  =    313.992752800
     EX              =   -260.288613622
     EC              =    -10.631869806
     EX+EC           =   -270.920483428
Transforming the Hamiltonian                       ... done (   0.3 sec)
Diagonalizing the Hamiltonian                      ... done (   0.5 sec)
[c02b01n02:2068543] 49 more processes have sent help message help-mpi-btl-openib.txt / error in device init
[c02b01n02:2068543] Set MCA parameter "orte_base_help_aggregate" to 0 to see all help / error messages
[c02b01n02:2068543] 9 more processes have sent help message help-mpi-btl-openib.txt / no active ports found
Back transforming the eigenvectors                 ... done (   0.2 sec)
Now organizing SCF variables                       ... done
                      ------------------
                      INITIAL GUESS DONE (   3.0 sec)
                      ------------------
             **** ENERGY FILE WAS UPDATED (nmr-conf-0.en.tmp) ****
Finished Guess after   7.0 sec
Maximum memory used throughout the entire GUESS-calculation: 288.6 MB
--------------------------------------------------------------------------
WARNING: There was an error initializing an OpenFabrics device.

  Local host:   c02b01n02
  Local device: mlx5_0
--------------------------------------------------------------------------
--------------------------------------------------------------------------
WARNING: There is at least one non-excluded one OpenFabrics device found,
but there are no active ports detected (or Open MPI was unable to use
them).  This is most certainly not what you wanted.  Check your
cables, subnet manager configuration, etc.  The openib BTL will be
ignored for this job.

  Local host: c02b01n02
--------------------------------------------------------------------------


           ************************************************************
           *        Program running with 60 parallel MPI-processes    *
           *              working on a common directory               *
           ************************************************************

-------------------------------------------------------------------------------------------
                                      ORCA LEAN-SCF
                              memory conserving SCF solver
-------------------------------------------------------------------------------------------

--------------------
CPCM SOLVATION MODEL
--------------------
CPCM parameters:
  Epsilon                                         ...      33.4280
  Refrac                                          ...       1.3288
  Rsolv                                           ...       1.3000
  Surface type                                    ... GAUSSIAN VDW
  Discretization scheme                           ... Constant charge density
    Threshold for H atoms                         ...       5.0000 (charges/Ang^2)
    Threshold for non-H atoms                     ...       5.0000 (charges/Ang^2)
  Epsilon function type                           ...         CPCM
Solvent:                                          ... METHANOL
Radii:
  Scheme                                          ... Element-dependent radii
  Radius for C  used is    3.8550 Bohr (=   2.0400 Ang.)
  Radius for O  used is    3.4469 Bohr (=   1.8240 Ang.)
  Radius for H  used is    2.4944 Bohr (=   1.3200 Ang.)
Calculating surface                               ...        done! (  0.0s)
Cavity surface points                             ...         6255
Cavity Volume                                     ...    4570.2834
Cavity Surface-area                               ...    2119.2778
Calculating surface distance matrix               ...        done! (  0.2s)
Performing Cholesky decomposition & store         ...        [c02b01n02:2068977] 52 more processes have sent help message help-mpi-btl-openib.txt / error in device init
[c02b01n02:2068977] Set MCA parameter "orte_base_help_aggregate" to 0 to see all help / error messages
[c02b01n02:2068977] 6 more processes have sent help message help-mpi-btl-openib.txt / no active ports found
done! (  0.7s)
Overall time for CPCM initialization              ...                 1.0s

----------------------------------------D-I-I-S--------------------------------------------
Iteration    Energy (Eh)           Delta-E    RMSDP     MaxDP     DIISErr   Damp  Time(sec)
-------------------------------------------------------------------------------------------
               ***  Starting incremental Fock matrix formation  ***
    1    -2033.0146293434590916     0.00e+00  7.92e-03  2.99e-01  2.36e-01  0.700  16.7
    2    -2033.4257263437893926    -4.11e-01  6.38e-03  2.36e-01  8.17e-02  0.700   9.3
                               ***Turning on AO-DIIS***
    3    -2033.5788711058303306    -1.53e-01  2.77e-03  8.01e-02  2.46e-02  0.700   7.4
    4    -2033.6714487399804057    -9.26e-02  4.71e-03  8.30e-02  1.13e-02  0.000   7.0
    5    -2033.8766554349294893    -2.05e-01  1.19e-03  2.89e-02  4.79e-03  0.000   6.8
                              *** Initializing SOSCF ***
---------------------------------------S-O-S-C-F--------------------------------------
Iteration    Energy (Eh)           Delta-E    RMSDP     MaxDP     MaxGrad    Time(sec)
--------------------------------------------------------------------------------------
    6    -2033.8780418557416851    -1.39e-03  3.78e-04  5.67e-03  1.30e-03     8.7
               *** Restarting incremental Fock matrix formation ***
    7    -2033.8781478029268328    -1.06e-04  3.04e-04  5.41e-03  1.27e-04     7.2
    8    -2033.8781248188452082     2.30e-05  7.51e-05  1.95e-03  6.15e-04     6.3
    9    -2033.8781635237937735    -3.87e-05  6.58e-05  1.46e-03  1.14e-04     5.9
   10    -2033.8781640102979509    -4.87e-07  2.12e-05  5.10e-04  9.82e-05     5.6
                 **** Energy Check signals convergence ****

               *****************************************************
               *                     SUCCESS                       *
               *           SCF CONVERGED AFTER  10 CYCLES          *
               *****************************************************

             **** ENERGY FILE WAS UPDATED (nmr-conf-0.en.tmp) ****

----------------
TOTAL SCF ENERGY
----------------

Total Energy       :      -2033.87816454238873 Eh          -55344.63852 eV

Components:
Nuclear Repulsion  :       5679.39550749961472 Eh          154544.20863 eV
Electronic Energy  :      -7713.22731148071944 Eh         -209887.58562 eV
One Electron Energy:     -14087.15986983253242 Eh         -383331.10824 eV
Two Electron Energy:       6373.93255835181299 Eh          173443.52261 eV
CPCM Dielectric    :         -0.04636056128376 Eh              -1.26154 eV

Virial components:
Potential Energy   :      -4061.11185169294458 Eh         -110508.47163 eV
Kinetic Energy     :       2027.23368715055608 Eh           55163.83310 eV
Virial Ratio       :          2.00327760802020

DFT components:
N(Alpha)           :      157.000404725420 electrons
N(Beta)            :      157.000404725420 electrons
N(Total)           :      314.000809450840 electrons
E(X)               :     -268.087892762439 Eh       
E(C)               :      -10.599242726862 Eh       
E(XC)              :     -278.687135489301 Eh       

CPCM Solvation Model Properties:
Surface-charge          :         -0.04247801286252
Corrected charge        :         -0.00000000000000
Outlying charge corr.   :          0.00007742818794 Eh               0.00211 eV
Free-energy (cav+disp)  :  This term is not implemented in the current solvation scheme

---------------
SCF CONVERGENCE
---------------

  Last Energy change         ...    4.8650e-07  Tolerance :   1.0000e-06
  Last MAX-Density change    ...    5.1001e-04  Tolerance :   1.0000e-05
  Last RMS-Density change    ...    2.1190e-05  Tolerance :   1.0000e-06
  Last DIIS Error            ...    1.3013e-03  Tolerance :   1.0000e-06
  Last Orbital Gradient      ...    9.8246e-05  Tolerance :   5.0000e-05
  Last Orbital Rotation      ...    1.9648e-04  Tolerance :   5.0000e-05


----------------
ORBITAL ENERGIES
----------------

  NO   OCC          E(Eh)            E(eV) 
   0   2.0000     -18.920947      -514.8651 
   1   2.0000     -18.918607      -514.8015 
   2   2.0000     -18.918410      -514.7961 
   3   2.0000     -18.911758      -514.6151 
   4   2.0000     -18.909755      -514.5606 
   5   2.0000     -18.909325      -514.5489 
   6   2.0000     -18.899429      -514.2796 
   7   2.0000     -18.885021      -513.8875 
   8   2.0000     -18.883438      -513.8445 
   9   2.0000     -18.878036      -513.6975 
  10   2.0000     -18.868801      -513.4462 
  11   2.0000     -10.047625      -273.4098 
  12   2.0000     -10.046984      -273.3923 
  13   2.0000     -10.043905      -273.3085 
  14   2.0000     -10.042763      -273.2775 
  15   2.0000     -10.041410      -273.2406 
  16   2.0000     -10.041103      -273.2323 
  17   2.0000     -10.041043      -273.2307 
  18   2.0000     -10.038962      -273.1740 
  19   2.0000     -10.036506      -273.1072 
  20   2.0000     -10.033328      -273.0207 
  21   2.0000     -10.032716      -273.0041 
  22   2.0000     -10.032383      -272.9950 
  23   2.0000     -10.032200      -272.9900 
  24   2.0000     -10.031322      -272.9661 
  25   2.0000     -10.024605      -272.7834 
  26   2.0000     -10.020550      -272.6730 
  27   2.0000      -9.990379      -271.8520 
  28   2.0000      -9.989668      -271.8327 
  29   2.0000      -9.987378      -271.7704 
  30   2.0000      -9.986633      -271.7501 
  31   2.0000      -9.986471      -271.7457 
  32   2.0000      -9.983876      -271.6751 
  33   2.0000      -9.983635      -271.6685 
  34   2.0000      -9.983538      -271.6659 
  35   2.0000      -9.982909      -271.6488 
  36   2.0000      -9.982792      -271.6456 
  37   2.0000      -9.982252      -271.6309 
  38   2.0000      -9.979512      -271.5563 
  39   2.0000      -9.978421      -271.5266 
  40   2.0000      -9.975131      -271.4371 
  41   2.0000      -9.974278      -271.4139 
  42   2.0000      -1.015742       -27.6397 
  43   2.0000      -1.011129       -27.5142 
  44   2.0000      -1.006823       -27.3971 
  45   2.0000      -0.996800       -27.1243 
  46   2.0000      -0.989962       -26.9382 
  47   2.0000      -0.983229       -26.7550 
  48   2.0000      -0.979709       -26.6592 
  49   2.0000      -0.957926       -26.0665 
  50   2.0000      -0.951971       -25.9045 
  51   2.0000      -0.949229       -25.8298 
  52   2.0000      -0.941883       -25.6299 
  53   2.0000      -0.798485       -21.7279 
  54   2.0000      -0.796807       -21.6822 
  55   2.0000      -0.793612       -21.5953 
  56   2.0000      -0.759875       -20.6773 
  57   2.0000      -0.732353       -19.9283 
  58   2.0000      -0.717809       -19.5326 
  59   2.0000      -0.704288       -19.1646 
  60   2.0000      -0.700441       -19.0600 
  61   2.0000      -0.697007       -18.9665 
  62   2.0000      -0.696138       -18.9429 
  63   2.0000      -0.686232       -18.6733 
  64   2.0000      -0.667466       -18.1627 
  65   2.0000      -0.652749       -17.7622 
  66   2.0000      -0.649555       -17.6753 
  67   2.0000      -0.648405       -17.6440 
  68   2.0000      -0.638270       -17.3682 
  69   2.0000      -0.625016       -17.0075 
  70   2.0000      -0.617755       -16.8100 
  71   2.0000      -0.613160       -16.6849 
  72   2.0000      -0.577698       -15.7200 
  73   2.0000      -0.567911       -15.4536 
  74   2.0000      -0.562891       -15.3171 
  75   2.0000      -0.558589       -15.2000 
  76   2.0000      -0.545758       -14.8508 
  77   2.0000      -0.543766       -14.7966 
  78   2.0000      -0.537023       -14.6131 
  79   2.0000      -0.529767       -14.4157 
  80   2.0000      -0.513397       -13.9702 
  81   2.0000      -0.511941       -13.9306 
  82   2.0000      -0.504859       -13.7379 
  83   2.0000      -0.495338       -13.4788 
  84   2.0000      -0.489701       -13.3254 
  85   2.0000      -0.476233       -12.9590 
  86   2.0000      -0.472578       -12.8595 
  87   2.0000      -0.467834       -12.7304 
  88   2.0000      -0.466615       -12.6972 
  89   2.0000      -0.457018       -12.4361 
  90   2.0000      -0.451451       -12.2846 
  91   2.0000      -0.450487       -12.2584 
  92   2.0000      -0.445222       -12.1151 
  93   2.0000      -0.441071       -12.0022 
  94   2.0000      -0.438559       -11.9338 
  95   2.0000      -0.435192       -11.8422 
  96   2.0000      -0.429079       -11.6758 
  97   2.0000      -0.427533       -11.6338 
  98   2.0000      -0.421844       -11.4790 
  99   2.0000      -0.420971       -11.4552 
 100   2.0000      -0.418164       -11.3788 
 101   2.0000      -0.412895       -11.2354 
 102   2.0000      -0.406943       -11.0735 
 103   2.0000      -0.403694       -10.9851 
 104   2.0000      -0.401617       -10.9286 
 105   2.0000      -0.400006       -10.8847 
 106   2.0000      -0.397041       -10.8040 
 107   2.0000      -0.390584       -10.6283 
 108   2.0000      -0.388100       -10.5607 
 109   2.0000      -0.384652       -10.4669 
 110   2.0000      -0.384016       -10.4496 
 111   2.0000      -0.380960       -10.3664 
 112   2.0000      -0.377117       -10.2619 
 113   2.0000      -0.376180       -10.2364 
 114   2.0000      -0.375025       -10.2049 
 115   2.0000      -0.371491       -10.1088 
 116   2.0000      -0.368778       -10.0350 
 117   2.0000      -0.364357        -9.9147 
[...]
  X           0.5622293   -0.4412427   -0.6994305
  Y          -0.4468028    0.5496217   -0.7058918
  Z           0.6958918    0.7093806    0.1118650

 --------------
 Nucleus  73H :
 --------------

Diamagnetic contribution to the shielding tensor (ppm) : 
          -143.253          2.586       -50.048
           -97.501         50.114       -17.694
           -55.089         15.593      -106.771

Paramagnetic contribution to the shielding tensor (ppm): 
           167.106         -2.621        48.586
            96.359        -16.684        17.871
            54.062        -17.269       131.487

Total shielding tensor (ppm): 
            23.853         -0.035        -1.462
            -1.142         33.430         0.177
            -1.027         -1.676        24.715


 Diagonalized sT*s matrix:
 
 sDSO          -185.619          -68.549           54.257  iso=     -66.637
 sPSO           208.507           94.143          -20.741  iso=      93.970
        ---------------  ---------------  ---------------
 Total           22.888           25.595           33.516  iso=      27.333

 Orientation: 
  X           0.8086361    0.5851994   -0.0604092
  Y           0.0851692   -0.0148460    0.9962559
  Z           0.5821115   -0.8107535   -0.0618460

 --------------
 Nucleus  74H :
 --------------

Diamagnetic contribution to the shielding tensor (ppm) : 
          -130.476         31.271       -57.536
           -92.546         62.317       -29.956
           -18.027        -55.757       -51.739

Paramagnetic contribution to the shielding tensor (ppm): 
           154.428        -31.398        57.688
            93.699        -34.047        27.730
            18.315         54.528        83.017

Total shielding tensor (ppm): 
            23.952         -0.127         0.153
             1.153         28.270        -2.226
             0.288         -1.229        31.277


 Diagonalized sT*s matrix:
 
 sDSO          -112.791           -6.444           -0.663  iso=     -39.966
 sPSO           136.657           34.014           32.727  iso=      67.799
        ---------------  ---------------  ---------------
 Total           23.867           27.569           32.063  iso=      27.833

 Orientation: 
  X           0.9865111    0.1635884   -0.0058952
  Y          -0.1517689    0.9005533   -0.4073941
  Z          -0.0613360    0.4027935    0.9132334

 --------------
 Nucleus  75H :
 --------------

Diamagnetic contribution to the shielding tensor (ppm) : 
            56.932       -206.965       -26.441
             8.757       -118.921       -24.276
            49.910       -100.990      -133.514

Paramagnetic contribution to the shielding tensor (ppm): 
           -19.763        213.771        31.919
            -4.358        147.229        29.618
           -45.502        105.512       155.465

Total shielding tensor (ppm): 
            37.169          6.807         5.479
             4.399         28.309         5.342
             4.409          4.522        21.952


 Diagonalized sT*s matrix:
 
 sDSO           -93.198          -12.482          -89.822  iso=     -65.167
 sPSO           112.261           38.775          131.896  iso=      94.311
        ---------------  ---------------  ---------------
 Total           19.063           26.293           42.074  iso=      29.143

 Orientation: 
  X          -0.1175996   -0.5551827   -0.8233726
  Y          -0.4204805    0.7789713   -0.4651880
  Z           0.8996480    0.2915062   -0.3250502

 --------------
 Nucleus  76H :
 --------------

Diamagnetic contribution to the shielding tensor (ppm) : 
          -150.928         17.935       -72.018
          -122.681         60.684       -32.249
            24.964        -25.784       -58.399

Paramagnetic contribution to the shielding tensor (ppm): 
           183.826        -20.682        59.712
           119.444        -38.557        35.633
           -38.509         27.375        89.417

Total shielding tensor (ppm): 
            32.898         -2.747       -12.305
            -3.238         22.127         3.384
           -13.545          1.591        31.017


 Diagonalized sT*s matrix:
 
 sDSO          -131.796           59.515          -76.363  iso=     -49.548
 sPSO           150.779          -38.011          121.919  iso=      78.229
        ---------------  ---------------  ---------------
 Total           18.983           21.504           45.556  iso=      28.681

 Orientation: 
  X          -0.6801674    0.0650263   -0.7301670
  Y          -0.0685925    0.9860423    0.1517091
  Z          -0.7298406   -0.1532716    0.6662136

 --------------
 Nucleus  77H :
 --------------

Diamagnetic contribution to the shielding tensor (ppm) : 
           -60.252        146.921       -10.512
           -47.560        126.420       -10.255
            40.370        -32.504        17.585

Paramagnetic contribution to the shielding tensor (ppm): 
            88.929       -144.738        10.246
            48.266        -84.830         6.919
           -41.294         29.965         4.938

Total shielding tensor (ppm): 
            28.677          2.183        -0.266
             0.707         41.591        -3.336
            -0.923         -2.539        22.524


 Diagonalized sT*s matrix:
 
 sDSO            15.644          -69.740          137.850  iso=      27.918
 sPSO             6.417           98.269          -95.649  iso=       3.013
        ---------------  ---------------  ---------------
 Total           22.061           28.529           42.201  iso=      30.931

 Orientation: 
  X           0.0479059    0.9936561    0.1017479
  Y           0.1511137   -0.1079022    0.9826097
  Z           0.9873549   -0.0316973   -0.1553242

 --------------
 Nucleus  78H :
 --------------

Diamagnetic contribution to the shielding tensor (ppm) : 
          -112.588        -13.027       -23.461
           -97.401         39.914        -7.666
           -46.899         23.582       -44.591

Paramagnetic contribution to the shielding tensor (ppm): 
           135.235         17.257        25.940
           103.434        -19.149        10.855
            48.948        -23.393        79.909

Total shielding tensor (ppm): 
            22.647          4.230         2.479
             6.034         20.765         3.189
             2.049          0.189        35.319


 Diagonalized sT*s matrix:
 
 sDSO            35.140          -88.916          -63.488  iso=     -39.088
 sPSO           -18.640          114.982           99.653  iso=      65.332
        ---------------  ---------------  ---------------
 Total           16.499           26.066           36.165  iso=      26.244

 Orientation: 
  X           0.6286099    0.7424793    0.2314609
  Y          -0.7772039    0.6105748    0.1521592
  Z          -0.0283492   -0.2755411    0.9608712

 --------------
 Nucleus  79H :
 --------------

Diamagnetic contribution to the shielding tensor (ppm) : 
           -32.518        -46.901       -29.982
           -35.978          1.344        -5.842
          -114.525         99.204       -69.167

Paramagnetic contribution to the shielding tensor (ppm): 
            59.587         49.688        28.203
            38.638         22.358         7.155
           116.072        -96.492        99.260

Total shielding tensor (ppm): 
            27.069          2.787        -1.779
             2.660         23.702         1.313
             1.547          2.712        30.093


 Diagonalized sT*s matrix:
 
 sDSO            -7.174          -25.311          -67.856  iso=     -33.447
 sPSO            28.957           53.575           98.673  iso=      60.402
        ---------------  ---------------  ---------------
 Total           21.783           28.264           30.817  iso=      26.955

 Orientation: 
  X          -0.4587433    0.8537047    0.2464607
  Y           0.8630464    0.3620841    0.3522017
  Z          -0.2114368   -0.3742771    0.9028904

 --------------
 Nucleus  80H :
 --------------

Diamagnetic contribution to the shielding tensor (ppm) : 
            92.514        -82.429       -25.880
            38.174         -3.970       -16.745
          -130.979        111.368         6.528

Paramagnetic contribution to the shielding tensor (ppm): 
           -66.543         83.936        25.112
           -37.703         33.803        15.614
           131.002       -114.230        21.204

Total shielding tensor (ppm): 
            25.970          1.508        -0.768
             0.471         29.833        -1.131
             0.023         -2.862        27.732


 Diagonalized sT*s matrix:
 
 sDSO           113.802           11.937          -30.668  iso=      31.690
 sPSO           -88.080           14.634           61.910  iso=      -3.845
        ---------------  ---------------  ---------------
 Total           25.722           26.571           31.242  iso=      27.845

 Orientation: 
  X           0.9596877    0.2143309   -0.1818291
  Y          -0.2624103    0.4514623   -0.8528321
  Z          -0.1006993    0.8661663    0.4895054

 --------------
 Nucleus  81H :
 --------------

Diamagnetic contribution to the shielding tensor (ppm) : 
             6.094       -176.222       -15.879
           -28.325        -85.143         1.072
          -101.761        106.661      -131.290

Paramagnetic contribution to the shielding tensor (ppm): 
            25.920        176.506        11.578
            28.818        110.154         1.170
            97.315       -106.156       158.916

Total shielding tensor (ppm): 
            32.014          0.284        -4.301
             0.493         25.010         2.242
            -4.446          0.505        27.627


 Diagonalized sT*s matrix:
 
 sDSO          -111.844         -126.757           28.262  iso=     -70.113
 sPSO           135.434          153.090            6.467  iso=      98.330
        ---------------  ---------------  ---------------
 Total           23.589           26.333           34.728  iso=      28.217

 Orientation: 
  X          -0.3525828    0.3968891   -0.8474458
  Y           0.7090913    0.7042570    0.0348088
  Z          -0.6106349    0.5886435    0.5297395



--------------------------------
CHEMICAL SHIELDING SUMMARY (ppm)
--------------------------------


  Nucleus  Element    Isotropic     Anisotropy
  -------  -------  ------------   ------------
      0       C           24.587        123.944 
      1       C           45.780         94.111 
      2       C           24.121        121.355 
      3       C           77.565        131.675 
      4       C           39.541        194.089 
      5       C           76.431        126.486 
      6       C          146.943         34.600 
      7       C          133.521         18.353 
      8       C          135.866         24.241 
      9       C          143.548         39.616 
     10       C           43.587        182.910 
     11       C           71.267        154.199 
     12       C           29.892        118.183 
     13       C           32.307        123.161 
     14       C           67.108        143.317 
     15       C           56.214        148.128 
     16       C          116.045         72.200 
     17       C          113.056         67.271 
     23       C           94.605         44.155 
     24       C          101.513         42.284 
     25       C           44.749        181.480 
     26       C          111.805         55.933 
     28       C           72.207        160.962 
     29       C           31.340        119.283 
     30       C           32.914        121.287 
     31       C           67.553        146.663 
     32       C           56.891        154.301 
     33       C          124.193         77.261 
     34       C          123.418         74.930 
     35       C          123.955         80.057 
     41       C          124.442         76.284 
     42       H           25.860          8.956 
     43       H           25.778          9.915 
     44       H           29.021          4.717 
     45       H           30.146          6.509 
     46       H           30.786          4.198 
     47       H           29.044          3.046 
     48       H           29.130          4.467 
     49       H           28.214          7.989 
     50       H           24.646         10.185 
     51       H           24.707          3.251 
     52       H           24.595          5.617 
     53       H           28.339          5.425 
     54       H           28.084          7.380 
     55       H           27.564          6.389 
     56       H           28.402          5.237 
     57       H           25.321         13.009 
     58       H           26.455          6.049 
     59       H           26.613          4.715 
     60       H           27.344          7.033 
     61       H           27.397          5.307 
     62       H           29.336         16.757 
     63       H           24.837         10.643 
     64       H           25.199          5.141 
     65       H           25.138          4.357 
     66       H           27.928          6.883 
     67       H           27.529          9.332 
     68       H           28.032          9.718 
     69       H           27.470          7.643 
     70       H           28.106          9.262 
     71       H           28.026          8.217 
     72       H           27.766          9.043 
     73       H           27.333          9.274 
     74       H           27.833          6.345 
     75       H           29.143         19.396 
     76       H           28.681         25.313 
     77       H           30.931         16.906 
     78       H           26.244         14.883 
     79       H           26.955          5.794 
     80       H           27.845          5.095 
     81       H           28.217          9.767 


NMR shielding tensor and spin rotation calculation done in   2.3 sec 

Maximum memory used throughout the entire PROP-calculation: 366.0 MB
[c02b01n02:2070271] 54 more processes have sent help message help-mpi-btl-openib.txt / error in device init
[c02b01n02:2070271] Set MCA parameter "orte_base_help_aggregate" to 0 to see all help / error messages
[c02b01n02:2070271] 4 more processes have sent help message help-mpi-btl-openib.txt / no active ports found
--------------------------------------------------------------------------
WARNING: There was an error initializing an OpenFabrics device.

  Local host:   c02b01n02
  Local device: mlx5_0
--------------------------------------------------------------------------
--------------------------------------------------------------------------
WARNING: There is at least one non-excluded one OpenFabrics device found,
but there are no active ports detected (or Open MPI was unable to use
them).  This is most certainly not what you wanted.  Check your
cables, subnet manager configuration, etc.  The openib BTL will be
ignored for this job.

  Local host: c02b01n02
--------------------------------------------------------------------------
[c02b01n02:2070713] 50 more processes have sent help message help-mpi-btl-openib.txt / error in device init
[c02b01n02:2070713] Set MCA parameter "orte_base_help_aggregate" to 0 to see all help / error messages
[c02b01n02:2070713] 8 more processes have sent help message help-mpi-btl-openib.txt / no active ports found

--------------------------------
SUGGESTED CITATIONS FOR THIS RUN
--------------------------------

Below you find a list of papers that are relevant to this ORCA run
We neither can nor want to force you to cite these papers, but we appreciate if you do
You receive ORCA, which is the product of decades of hard work by many enthusiastic individuals, for free
The only thing we kindly ask in return is that you cite our papers,
We deeply appreciate it, if you show your appreciation for ORCA by not just citing the generic ORCA reference.

Please note that relegating all ORCA citations to the supporting information does *not* help us.
SI sections are not indexed - citations you put there will not count into any citation statistics
But we need these citations in order to attract the funding resources that allow us to do what we are doing

Therefore, if you are a happy ORCA user, please consider citing a few of the papers listed below in the main body of your paper

In addition to the list printed below, the program has created the file nmr-conf-0.bibtex that contains the list in bibtex format
You can import this file easily into all common literature databanks and citation aid programs


List of essential papers. We consider these as the minimum necessary citations

  1. Neese, F.
     Software update: the ORCA program system, version 6.0
     WIRES Comput. Molec. Sci. 2025 15(1), e70019
     doi.org/10.1002/wcms.7019

List of papers to cite with high priority. The work reported in these papers was absolutely
necessary for this run to complete.
Our perspective: the developers of density functionals and basis sets usually get cited in chemistry papers
Good! But without the algorithms to do something with them, the functionals or basis sets would not do anything.
Hence, in our opinion, the algorithm design and method developments papers are equally worthy of getting cited

  1. Neese, F.
     An improvement of the resolution of the identity approximation for the formation of the Coulomb matrix
     J. Comp. Chem. 2003 24(14), 1740-1747
     doi.org/10.1002/jcc.10318
  2. Stoychev, G.L.; Auer, A.A.; Neese, F.
     Automatic Generation of Auxiliary Basis Sets
     J. Theo. Comp. Chem. 2017 13 , 554-562
     doi.org/10.1021/acs.jctc.6b01041
  3. Stoychev, G.L.; Auer, A.A.; Izsak, R.; Neese, F.
     Self-Consistent Field Calculation of Nuclear Magnetic Resonance Chemical Shielding Constants Using Gauge-Including Atomic Orbitals and Approximate Two-Electron Integrals
     J. Chem. Theory Comput. 2018 14(2), 619-637
     doi.org/10.1021/acs.jctc.7b01006
  4. Garcia-Rates, M.; Neese, F.
     Effect of the Solute Cavity on the Solvation Energy and its Derivatives within the Framework of the Gaussian Charge Scheme
     J. Comput. Chem. 2020 41 , 922-939
     doi.org/10.1002/jcc.26139
  5. Neese, F.
     The SHARK Integral Generation and Digestion System
     J. Comp. Chem. 2022 44(3), 381
     doi.org/10.1002/jcc.26942

List of suggested additional citations. These are papers that are important in the 'surrounding' of 
of this run, or papers that preceded the highly important papers. If you like your results we are grateful for a citation.

  1. Neese, F.
     The ORCA program system
     WIRES Comput. Molec. Sci. 2012 2(1), 73-78
     doi.org/10.1002/wcms.81
  2. Neese, F.
     Software update: the ORCA program system, version 4.0
     WIRES Comput. Molec. Sci. 2018 8(1), 1-6
     doi.org/10.1002/wcms.1327
  3. Neese, F.; Wennmohs, F.; Becker, U.; Riplinger, C.
     The ORCA quantum chemistry program package
     J. Chem. Phys. 2020 152(22), 224108
     doi.org/10.1063/5.0004608
  4. Neese, F.
     Software update: The ORCA program system—Version 5.0
     WIRES Comput. Molec. Sci. 2022 12(1), e1606
     doi.org/10.1002/wcms.1606

List of optional additional citations

  1. Neese, F.
     Approximate second-order SCF convergence for spin unrestricted wavefunctions
     Chem. Phys. Lett. 2000 325(1-3), 93-98
     doi.org/10.1016/s0009-2614(00)00662-x

Timings for individual modules:

Sum of individual times          ...      226.878 sec (=   3.781 min)
Startup calculation              ...       46.890 sec (=   0.781 min)  20.7 %
SCF iterations                   ...      105.793 sec (=   1.763 min)  46.6 %
Property integrals               ...       53.796 sec (=   0.897 min)  23.7 %
SCF Response                     ...       14.169 sec (=   0.236 min)   6.2 %
Property calculations            ...        6.230 sec (=   0.104 min)   2.7 %
                             ****ORCA TERMINATED NORMALLY****
TOTAL RUN TIME: 0 days 0 hours 3 minutes 55 seconds 944 msec
