
                                 *****************
                                 * O   R   C   A *
                                 *****************

                                            #,                                       
                                            ###                                      
                                            ####                                     
                                            #####                                    
                                            ######                                   
                                           ########,                                 
                                     ,,################,,,,,                         
                               ,,#################################,,                 
                          ,,##########################################,,             
                       ,#########################################, ''#####,          
                    ,#############################################,,   '####,        
                  ,##################################################,,,,####,       
                ,###########''''           ''''###############################       
              ,#####''   ,,,,##########,,,,          '''####'''          '####       
            ,##' ,,,,###########################,,,                        '##       
           ' ,,###''''                  '''############,,,                           
         ,,##''                                '''############,,,,        ,,,,,,###''
      ,#''                                            '''#######################'''  
     '                                                          ''''####''''         
             ,#######,   #######,   ,#######,      ##                                
            ,#'     '#,  ##    ##  ,#'     '#,    #''#        ,####,    ,#,          
            ##       ##  ##   ,#'  ##            #'  '#       #'       ,# #          
            ##       ##  #######   ##           ,######,      #####,      #          
            '#,     ,#'  ##    ##  '#,     ,#' ,#      #,     #,   #      #          
             '#######'   ##     ##  '#######'  #'      '#     '####' #    #          



                #########################################################
                #                        -***-                          #
                #          Department of theory and spectroscopy        #
                #                                                       #
                #                      Frank Neese                      #
                #                                                       #
                #     Directorship, Architecture, Infrastructure        #
                #                    SHARK, DRIVERS                     #
                #        Core code/Algorithms in most modules           #
                #                                                       #
                #        Max Planck Institute fuer Kohlenforschung      #
                #                Kaiser Wilhelm Platz 1                 #
                #                 D-45470 Muelheim/Ruhr                 #
                #                      Germany                          #
                #                                                       #
                #                  All rights reserved                  #
                #                        -***-                          #
                #########################################################


                         Program Version 6.1.0-f.0  -   RELEASE   -


 With contributions from (in alphabetic order):
[Max-Planck-Institut fuer Kohlenforschung]                               
  Daniel Aravena         : Magnetic Suceptibility                        
  Michael Atanasov       : Ab Initio Ligand Field Theory (pilot matlab implementation)
  Alexander A. Auer      : GIAO ZORA, VPT2 properties, NMR spectrum      
  Ute Becker             : All parallelization in ORCA, NUMFREQ, NUMCALC 
  Giovanni Bistoni       : ED, misc. LED, open-shell LED, HFLD           
  Dmytro Bykov           : pre 5.0 version of the SCF Hessian            
  Marcos Casanova-Páez   : Triplet and SCS-CIS(D). UHF-(DLPNO)-IP/EA/STEOM-CCSD. UHF-CVS-IP/STEOM-CCSD   
  Vijay G. Chilkuri      : MRCI spin determinant printing, contributions to CSF-ICE 
  Pauline Colinet        : FMM embedding                                 
  Dipayan Datta          : RHF DLPNO-CCSD density                        
  Achintya Kumar Dutta   : EOM-CC, STEOM-CC                              
  Nicolas Foglia         : Exact transition moments, OPA infrastructure, MCD improvements    
  Dmitry Ganyushin       : Spin-Orbit,Spin-Spin,Magnetic field MRCI      
  Miquel Garcia-Rates    : C-PCM and meta-GGA Hessian, CCSD/C-PCM, Gaussian charge scheme 
  Tiago L. C. Gouveia    : GS-ROHF, GS-ROCIS                             
  Yang Guo               : DLPNO-NEVPT2, F12-NEVPT2, CIM, IAO-localization        
  Andreas Hansen         : Spin unrestricted coupled pair/coupled cluster methods 
  Ingolf Harden          : AUTO-CI MPn and infrastructure                
  Benjamin Helmich-Paris : MC-RPA, TRAH-(SCF,CASSCF), AVAS, COSX integrals, SCF dyn. polar., MC-PDFT, srDFT 
  Lee Huntington         : MR-EOM, pCC                                   
  Robert Izsak           : Overlap fitted RIJCOSX, COSX-SCS-MP3, EOM     
  Riya Kayal             : Wick's Theorem for AUTO-CI, AUTO-CI UHF-CCSDT 
  Emily Kempfer          : AUTO-CI RHF CISDT and CCSDT, approximate NEVPT4
  Christian Kollmar      : KDIIS, OOCD, Brueckner-CCSD(T), CCSD density, CASPT2, CASPT2-K, improved NEVPT2 
  Axel Koslowski         : Symmetry handling                             
  Simone Kossmann        : meta-GGA functionals, TD-DFT gradient, OOMP2, (MP2 Hessian; deprecated post 5.0) 
  Lucas Lang             : DCDCAS, Hyperfine gauge corrections, ICE-SOC+SSC
  Marvin Lechner         : AUTO-CI (C++ implementation), FIC-MRCC        
  Spencer Leger          : CASSCF response                               
  Dagmar Lenk            : GEPOL surface, SMD, ORCA-2-JSON               
  Dimitrios Liakos       : Extrapolation schemes; Compound Job, Property file
  Dimitrios Manganas     : Further ROCIS development; embedding schemes. LFT, Crystal Embedding 
  Dimitrios Pantazis     : SARC Basis sets                               
  Anastasios Papadopoulos: AUTO-CI, single reference methods and gradients 
  Taras Petrenko         : pre 6.0 DFT Hessian and TD-DFT gradient,  ECA, NRVS 
  Petra Pikulova         : Analytic Raman intensities                    
  Peter Pinski           : DLPNO-MP2, DLPNO-MP2 Gradient                 
  Shashank Vittal Rao    : ES-AILFT, MagRelax                            
  Christoph Reimann      : Effective Core Potentials                     
  Marius Retegan         : Local ZFS, SOC                                
  Christoph Riplinger    : Optimizer, TS searches, QM/MM, DLPNO-CCSD(T), (RO)-DLPNO pert. Triples 
  Michael Roemelt        : Original ROCIS implementation, recursive CI coupling coefficients
  Masaaki Saitow         : Open-shell DLPNO-CCSD energy and density      
  Barbara Sandhoefer     : DKH picture change effects                    
  Yorick L. A. Schmerwitz: GMF and freeze-and-release deltaSCF, NEB S-IDPP initial path                    
  Kantharuban Sivalingam : CASSCF convergence/infrastructure, NEVPT2, NEVPT3, NEVPT4(SD), FIC-MRCI and CEPA variants
  Bernardo de Souza      : ESD, SOC TD-DFT                               
  Georgi L. Stoychev     : AutoAux, RI-MP2 NMR, DLPNO-MP2 response, X2C  
  Van Anh Tran           : RI-MP2 g-tensors                              
  Willem Van den Heuvel  : Paramagnetic NMR                              
  Zikuan Wang            : NOTCH, Electric field optimization            
  Frank Wennmohs         : Technical directorship and infrastructure     
  Hang Xu                : AUTO-CI-Response properties                   
                                                                         
[FACCTs GmbH]                                                            
  Markus Bursch, Nicolas Foglia, Miquel Garcia-Rates, Ingolf Harden, Hagen Neugebauer, Anastasios Papadopoulos, 
  Christoph Riplinger, Bernardo de Souza, Georgi L. Stoychev                                                    
                                                                 
  APM, various basis sets, CI-OPT, improved COSX, DLPNO-Multilevel,           
  DOCKER, DRACO, updates on ESD, Fragmentator, GOAT, IRC, LR-CPCM, L-BFGS, MBIS, meta-GGA TD-DFT gradient, ML-optimized integration grids, 
  MM, NACMEs, nearIR, NEB, NEB-TS, NL-DFT gradient (VV10), 2- and 3-layer-ONIOM, interface openCOSMO-RS, QMMM,   
  Crystal-QMMM, RESP, rigid body optimization, SF, symmetry and pop. for TD-DFT, various functionals, SOLVATOR                                   
                                                                         
[Other institutions]                                                     
  V. Asgeirsson          : NEB                                           
  Christoph Bannwarth    : sTDA-DFT, sTD-DFT, PBEh-3c, B97-3c, D3        
  Giovanni Bistoni       : ETS/NOCV, ADLD/ADEX, COVALED                  
  Martin Brehm           : Molecular dynamics                            
  Ronald Cardenas        : ETS/NOCV                                      
  Martina Colucci        : COVALED                                       
  Sebastian Ehlert       : rSCAN, r2SCAN, r2SCAN-3c, D4, dhf basis sets  
  Marvin Friede          : D4 for Fr, Ra, Ac-Lr                          
  Lars Goerigk           : TD-DFT with DH, B97 family of functionals     
  Stefan Grimme          : VdW corrections, initial TS optimization, DFT functionals, gCP, sTDA/sTD-DF 
  Waldemar Hujo          : DFT-NL                                        
  H. Jonsson             : NEB                                           
  Holger Kruse           : gCP                                           
  Marcel Mueller         : wB97X-3c, vDZP basis set                      
  Hagen Neugebauer       : wr2SCAN, Native XTB                           
  Gianluca Regni         : ADLD/ADEX                                     
  Tobias Risthaus        : pre 6.0 range-separated hybrid DFT and stability analysis
  Lukas Wittmann         : regularized MP2, r2SCAN double-hybrids, wr2SCAN        
                                                                         
We gratefully acknowledge several colleagues who have allowed us to      
interface, adapt or use parts of their codes:                            
  Ed Valeev, F. Pavosevic, A. Kumar             : LibInt (2-el integral package), F12 methods 
  Garnet Chan, S. Sharma, J. Yang, R. Olivares  : DMRG                   
  Ulf Ekstrom                                   : XCFun DFT Library      
  Mihaly Kallay                                 : mrcc  (arbitrary order and MRCC methods)
  Frank Weinhold                                : gennbo (NPA and NBO analysis)           
  Simon Mueller                                 : openCOSMO-RS                            
  Christopher J. Cramer and Donald G. Truhlar   : smd solvation model                     
  S Lehtola, MJT Oliveira, MAL Marques          : LibXC Library                           
  Liviu Ungur et al                             : ANISO software                          


 Your calculation uses the libint2 library for the computation of 2-el integrals
 For citations please refer to: http://libint.valeyev.net

 Your ORCA version has been built with support for libXC version: 7.0.0
 For citations please refer to: https://libxc.gitlab.io

 This ORCA versions uses:
   CBLAS   interface :  Fast vector & matrix operations
   LAPACKE interface :  Fast linear algebra routines
   SCALAPACK package :  Parallel linear algebra routines
   Shared memory     :  Shared parallel matrices
   BLAS/LAPACK       :  OpenBLAS 0.3.29  USE64BITINT DYNAMIC_ARCH NO_AFFINITY Cooperlake SINGLE_THREADED
        Core in use  :  Cooperlake
   Copyright (c) 2011-2014, The OpenBLAS Project


  ***********************************
  * Starting time: Wed Mar  4 13:40:39 2026
  * Host name:     c03b01n04
  * Process ID:    1830109
  * Working dir.:  /lustre1/jiangy/jiangy_liuxy/NMR/B9D7C2-SRSR-NMR/opt_conf
  ***********************************

NOTE: MaxCore=5000 MB was set to SCF,MP2,MDCI,CIPSI,MRCI,RASCI and CIS
      => If you want to overwrite this, your respective input block should be placed after the MaxCore statement


***************************************
The coordinates will be read from file: opt-conf-3.xyz
***************************************



Warning: The global flag for NMR shieldings has been found
         but shieldings for certain elements have also been explicitly requested in the EPRNMR block
         ==>> only the requested shieldings will be calculated

================================================================================

----- Orbital basis set information -----
Your calculation utilizes the basis: pcSseg-2
   F. Jensen, J. Chem. Theory Comput. 11, 132 (2015).

----- AuxJ basis set information -----
Your calculation utilizes the AutoAux generation procedure.
  G. L. Stoychev, A. A. Auer, F. Neese, J. Chem. Theory Comput. 13, 554 (2017)

----- AuxC basis set information -----
Your calculation utilizes the AutoAux generation procedure.
  G. L. Stoychev, A. A. Auer, F. Neese, J. Chem. Theory Comput. 13, 554 (2017)

----- AuxJK basis set information -----
Your calculation utilizes the AutoAux generation procedure.
  G. L. Stoychev, A. A. Auer, F. Neese, J. Chem. Theory Comput. 13, 554 (2017)

----- AuxX basis set information -----
Your calculation utilizes the AutoAux generation procedure.
  G. L. Stoychev, A. A. Auer, F. Neese, J. Chem. Theory Comput. 13, 554 (2017)

================================================================================
                                        WARNINGS
                       Please study these warnings very carefully!
================================================================================


================================================================================
                                       INPUT FILE
================================================================================
NAME = nmr-conf-3.inp
|  1> !TPSS PCSSEG-2 AUTOAUX NMR CPCM(Methanol)
|  2> 
|  3> %pal nprocs 60 end
|  4> %maxcore 5000
|  5> 
|  6> *XYZFILE 0 1 opt-conf-3.xyz
|  7> 
|  8> %EPRNMR
|  9>    NUCLEI = ALL C {SHIFT}
| 10>    NUCLEI = ALL H {SHIFT}
| 11>    TAU DOBSON
| 12> END
| 13> 
| 14> 
| 15>                          ****END OF INPUT****
================================================================================

                       ****************************
                       * Single Point Calculation *
                       ****************************

---------------------------------
CARTESIAN COORDINATES (ANGSTROEM)
---------------------------------
  C     20.859223  -29.945314   -0.429225
  C     21.573478  -29.696574    0.747571
  C     20.991223  -30.009565    1.978958
  C     19.714641  -30.566884    2.032282
  C     19.019934  -30.840141    0.858533
  C     19.598693  -30.534236   -0.370896
  C     17.659976  -31.489430    0.895088
  C     17.702519  -32.999892    0.580652
  C     16.355774  -33.558486    0.074214
  C     16.124016  -33.221305   -1.412363
  C     17.198648  -33.717002   -2.348148
  C     17.563562  -35.069152   -2.355554
  C     18.537595  -35.533839   -3.224812
  C     19.157670  -34.652301   -4.124999
  C     18.810587  -33.315265   -4.115301
  C     17.840109  -32.852427   -3.226378
  C     18.265618  -33.780589    1.770089
  C     15.124241  -33.111272    0.862159
  O     21.754429  -29.748574    3.074500
  O     21.475774  -29.582342   -1.586045
  O     22.789151  -29.059481    0.748569
  O     20.101304  -35.112393   -4.998192
  O     18.982766  -36.822971   -3.303673
  C     23.945491  -29.637007    0.112557
  C     24.340320  -30.976936    0.754634
  C     23.379562  -32.100961    0.457121
  C     25.013136  -28.565559    0.262479
  O     25.324685  -28.284328    1.625028
  C     23.128235  -32.470636   -0.868954
  C     22.241453  -33.493669   -1.152089
  C     21.597578  -34.167716   -0.102543
  C     21.867836  -33.828418    1.208648
  C     22.759509  -32.794693    1.485664
  C     20.788839  -29.813189   -2.813572
  C     21.233193  -30.097181    4.353863
  C     18.440643  -37.782140   -2.396914
  O     25.648936  -31.278725    0.238829
  O     18.489477  -35.162304    1.477598
  O     15.139918  -33.468852    2.247347
  O     21.904657  -33.934229   -2.395114
  O     20.705839  -35.168625   -0.382606
  C     22.580329  -33.369588   -3.518535
  H     19.262486  -30.806991    2.982966
  H     19.054979  -30.749724   -1.278906
  H     17.018328  -30.993911    0.163370
  H     17.202098  -31.330169    1.874496
  H     18.418202  -33.134130   -0.236213
  H     16.410866  -34.648279    0.158963
  H     16.025121  -32.139359   -1.534186
  H     15.161399  -33.650429   -1.710683
  H     17.083743  -35.754913   -1.671988
  H     19.305496  -32.638669   -4.800629
  H     17.583381  -31.800177   -3.223834
  H     17.568713  -33.753168    2.606549
  H     19.199458  -33.312152    2.093884
  H     15.025529  -32.024661    0.842474
  H     14.231288  -33.527359    0.380986
  H     20.226339  -36.060517   -4.841855
  H     23.752184  -29.784940   -0.951209
  H     24.393469  -30.833634    1.837407
  H     24.660727  -27.661488   -0.246146
  H     25.934475  -28.893883   -0.212577
  H     24.500206  -28.035841    2.063686
  H     23.620212  -31.945669   -1.674295
  H     21.376475  -34.369435    2.006594
  H     22.953509  -32.517400    2.513856
  H     21.460874  -29.474773   -3.598380
  H     20.569364  -30.873553   -2.950818
  H     19.857462  -29.243062   -2.855550
  H     20.318868  -29.540658    4.574635
  H     21.030200  -31.169013    4.418108
  H     22.004542  -29.828316    5.071678
  H     18.631656  -37.489242   -1.362044
  H     17.365649  -37.899873   -2.551614
  H     18.947523  -38.718884   -2.613844
  H     25.854511  -32.190362    0.482106
  H     19.174164  -35.217593    0.791012
  H     15.188278  -34.431010    2.310022
  H     20.610094  -35.240794   -1.345381
  H     22.171691  -33.871410   -4.389875
  H     22.392836  -32.296784   -3.587697
  H     23.655906  -33.548097   -3.448077

----------------------------
CARTESIAN COORDINATES (A.U.)
----------------------------
  NO LB      ZA    FRAG     MASS         X           Y           Z
   0 C     6.0000    0    12.011   39.418219  -56.588443   -0.811117
   1 C     6.0000    0    12.011   40.767966  -56.118392    1.412704
   2 C     6.0000    0    12.011   39.667663  -56.709859    3.739688
   3 C     6.0000    0    12.011   37.255273  -57.763040    3.840456
   4 C     6.0000    0    12.011   35.942467  -58.279420    1.622392
   5 C     6.0000    0    12.011   37.036162  -57.701344   -0.700892
   6 C     6.0000    0    12.011   33.372517  -59.506399    1.691471
   7 C     6.0000    0    12.011   33.452913  -62.360758    1.097273
   8 C     6.0000    0    12.011   30.907934  -63.416348    0.140244
   9 C     6.0000    0    12.011   30.469975  -62.779169   -2.668980
  10 C     6.0000    0    12.011   32.500734  -63.715901   -4.437356
  11 C     6.0000    0    12.011   33.190323  -66.271093   -4.451351
  12 C     6.0000    0    12.011   35.030978  -67.149223   -6.094012
  13 C     6.0000    0    12.011   36.202750  -65.483359   -7.795118
  14 C     6.0000    0    12.011   35.546858  -62.956728   -7.776792
  15 C     6.0000    0    12.011   33.712921  -62.082091   -6.096971
  16 C     6.0000    0    12.011   34.517015  -63.836062    3.344984
  17 C     6.0000    0    12.011   28.580673  -62.571235    1.629245
  18 O     8.0000    0    15.999   41.109913  -56.216657    5.809962
  19 O     8.0000    0    15.999   40.583332  -55.902524   -2.997191
  20 O     8.0000    0    15.999   43.065254  -54.914461    1.414591
  21 O     8.0000    0    15.999   37.985959  -66.352806   -9.445214
  22 O     8.0000    0    15.999   35.872228  -69.585331   -6.243037
  23 C     6.0000    0    12.011   45.250420  -56.005827    0.212702
  24 C     6.0000    0    12.011   45.996538  -58.537925    1.426051
  25 C     6.0000    0    12.011   44.180969  -60.662024    0.863833
  26 C     6.0000    0    12.011   47.267977  -53.981082    0.496013
  27 O     8.0000    0    15.999   47.856718  -53.449633    3.070857
  28 C     6.0000    0    12.011   43.706030  -61.360609   -1.642084
  29 C     6.0000    0    12.011   42.030255  -63.293862   -2.177133
  30 C     6.0000    0    12.011   40.813508  -64.567626   -0.193777
  31 C     6.0000    0    12.011   41.324221  -63.926446    2.284014
  32 C     6.0000    0    12.011   43.009240  -61.972988    2.807499
  33 C     6.0000    0    12.011   39.285213  -56.338762   -5.316881
  34 C     6.0000    0    12.011   40.124920  -56.875429    8.227609
  35 C     6.0000    0    12.011   34.847765  -71.397896   -4.529511
  36 O     8.0000    0    15.999   48.469464  -59.108223    0.451321
  37 O     8.0000    0    15.999   34.940048  -66.447125    2.792255
  38 O     8.0000    0    15.999   28.610299  -63.246965    4.246870
  39 O     8.0000    0    15.999   41.393802  -64.126399   -4.526109
  40 O     8.0000    0    15.999   39.128365  -66.459070   -0.723021
  41 C     6.0000    0    12.011   42.670637  -63.059382   -6.649068
  42 H     1.0000    0     1.008   36.400823  -58.216777    5.636989
  43 H     1.0000    0     1.008   36.008691  -58.108556   -2.416783
  44 H     1.0000    0     1.008   32.159978  -58.570003    0.308724
  45 H     1.0000    0     1.008   32.507254  -59.205439    3.542284
  46 H     1.0000    0     1.008   34.805358  -62.614431   -0.446378
  47 H     1.0000    0     1.008   31.012042  -65.475759    0.300397
  48 H     1.0000    0     1.008   30.283090  -60.734586   -2.899192
  49 H     1.0000    0     1.008   28.650892  -63.590096   -3.232722
  50 H     1.0000    0     1.008   32.283595  -67.566994   -3.159600
  51 H     1.0000    0     1.008   36.482100  -61.678147   -9.071874
  52 H     1.0000    0     1.008   33.227775  -60.093626   -6.092163
  53 H     1.0000    0     1.008   33.200055  -63.784244    4.925665
  54 H     1.0000    0     1.008   36.281718  -62.950845    3.956867
  55 H     1.0000    0     1.008   28.394135  -60.517839    1.592044
  56 H     1.0000    0     1.008   26.893237  -63.357526    0.719960
  57 H     1.0000    0     1.008   38.222241  -68.144502   -9.149781
  58 H     1.0000    0     1.008   44.885123  -56.285380   -1.797524
  59 H     1.0000    0     1.008   46.096977  -58.267125    3.472195
  60 H     1.0000    0     1.008   46.602020  -52.272637   -0.465148
  61 H     1.0000    0     1.008   49.009056  -54.601526   -0.401713
  62 H     1.0000    0     1.008   46.298680  -52.980061    3.899802
  63 H     1.0000    0     1.008   44.635731  -60.368565   -3.163959
  64 H     1.0000    0     1.008   40.395683  -64.948820    3.791914
  65 H     1.0000    0     1.008   43.375845  -61.448980    4.750500
  66 H     1.0000    0     1.008   40.555174  -55.699250   -6.799954
  67 H     1.0000    0     1.008   38.870465  -58.342560   -5.576238
  68 H     1.0000    0     1.008   37.525166  -55.261379   -5.396208
  69 H     1.0000    0     1.008   38.397097  -55.823753    8.644808
  70 H     1.0000    0     1.008   39.741318  -58.900899    8.349014
  71 H     1.0000    0     1.008   41.582558  -56.367347    9.584083
  72 H     1.0000    0     1.008   35.208728  -70.844400   -2.573890
  73 H     1.0000    0     1.008   32.816322  -71.620380   -4.821853
  74 H     1.0000    0     1.008   35.805629  -73.168088   -4.939449
  75 H     1.0000    0     1.008   48.857945  -60.830968    0.911048
  76 H     1.0000    0     1.008   36.233919  -66.551606    1.494796
  77 H     1.0000    0     1.008   28.701686  -65.065179    4.365308
  78 H     1.0000    0     1.008   38.947433  -66.595450   -2.542401
  79 H     1.0000    0     1.008   41.898425  -64.007689   -8.295662
  80 H     1.0000    0     1.008   42.316327  -61.032077   -6.779765
  81 H     1.0000    0     1.008   44.703183  -63.396715   -6.515921

--------------------------------
INTERNAL COORDINATES (ANGSTROEM)
--------------------------------
 C      0   0   0     0.000000000000     0.00000000     0.00000000
 C      1   0   0     1.398885161595     0.00000000     0.00000000
 C      2   1   0     1.397604621353   119.25203035     0.00000000
 C      3   2   1     1.393954755999   120.31618608     0.18538297
 C      4   3   2     1.391032849537   120.24030392     1.24738173
 C      1   2   3     1.392540302002   120.14229466   358.14411858
 C      5   4   3     1.507448502848   120.97768939   177.72086312
 C      7   5   4     1.543429095441   113.06111602   259.12976245
 C      8   7   5     1.543446928601   113.38941176   202.60425799
 C      9   8   7     1.541853995395   111.61500863    78.64718443
 C     10   9   8     1.508721441183   114.77776279    57.50561828
 C     11  10   9     1.400544960958   120.40220060    54.27122206
 C     12  11  10     1.385743180621   120.67743821   179.15728904
 C     13  12  11     1.404256771301   120.13132995   359.06776606
 C     14  13  12     1.381385302074   119.48258584     1.46181584
 C     11  10   9     1.389334915332   121.09636843   233.75304973
 C      8   7   5     1.530140089148   110.55429015    74.45252949
 C      9   8   7     1.528899636447   115.33320191   314.68098389
 O      3   2   1     1.360445124418   115.64728629   179.44535394
 O      1   2   3     1.360190646153   115.88513036   178.32702257
 O      2   1   3     1.372496787302   122.37092869   185.13071503
 O     14  13  12     1.365502052267   120.23541304   181.12462059
 O     13  12  11     1.366110569443   125.57019310   179.02389145
 C     21   2   1     1.440545020131   121.63959205   295.86578018
 C     24  21   2     1.537387892425   111.78804720   298.02942288
 C     25  24  21     1.508310682513   113.79967073    71.09724558
 C     24  21   2     1.519981638061   103.74953002   175.80108666
 O     27  24  21     1.425725483419   112.75547052    62.21515026
 C     26  25  24     1.399392267072   119.87950276    58.65571796
 C     29  26  25     1.383165493530   120.29870339   180.47036457
 C     30  29  26     1.403731370860   119.74777663   359.64041702
 C     31  30  29     1.381080613464   120.14029488   358.74606360
 C     26  25  24     1.386950432315   120.74640300   237.32416357
 C     20   1   2     1.425479854370   118.08160932   180.07621011
 C     19   3   2     1.424775316739   118.09420978   182.46227864
 C     23  13  12     1.426924448137   118.28307775   358.04884400
 O     25  24  21     1.438613096861   105.46815448   192.53927700
 O     17   8   7     1.429965556013   113.05458095   187.53698507
 O     18   9   8     1.430683190112   114.64809139   300.36285064
 O     30  29  26     1.361114964407   125.80179723   179.29127783
 O     31  30  29     1.369471936519   119.78349143   179.12187620
 C     40  30  29     1.427385258458   118.26795290     4.61850094
 H      4   3   2     1.079767239215   120.40304011   180.15094471
 H      6   1   2     1.080065892764   120.32132463   181.50199903
 H      7   5   4     1.092091527463   108.56465899   138.18890504
 H      7   5   4     1.092819994113   109.69150137    21.88822057
 H      8   7   5     1.094299141864   106.86713955   319.44008435
 H      9   8   7     1.094471124408   106.92008738   195.89242507
 H     10   9   8     1.093265690226   109.72179881   294.79266022
 H     10   9   8     1.095341902036   107.99968736   179.52482617
 H     12  11  10     1.080628080635   119.57956862   358.81120634
 H     15  14  13     1.082769970556   119.04695684   178.94775107
 H     16  11  10     1.083118806080   119.57997928     1.53040182
 H     17   8   7     1.089079749944   110.40760263    68.53202650
 H     17   8   7     1.093770433831   109.01420617   310.10686682
 H     18   9   8     1.091262774052   110.78278454    59.62073096
 H     18   9   8     1.096366937740   108.59395193   177.14087225
 H     22  14  13     0.969027762058   108.40132475   358.84677184
 H     24  21   2     1.091260713682   110.03163944    59.97579933
 H     25  24  21     1.093506611794   108.16823923   309.94234832
 H     27  24  21     1.095552057284   108.05723879   299.71325707
 H     27  24  21     1.087355221057   109.82971997   181.41047605
 H     28  27  24     0.966401132511   107.34274956   303.71055487
 H     29  26  25     1.079910175977   119.76473919   359.70288444
 H     32  31  30     1.082059855966   119.23674090   181.08325258
 H     33  26  25     1.082453527488   119.74597706     1.00173910
 H     34  20   1     1.087234638595   105.86219285   181.21160034
 H     34  20   1     1.091502693614   111.25383082   300.23772492
 H     34  20   1     1.092826397298   111.05696812    62.23493545
 H     35  19   3     1.092908045423   111.27561260   297.52091518
 H     35  19   3     1.092775762138   111.14526841    59.71631980
 H     35  19   3     1.087439625422   105.82707500   178.63050158
 H     36  23  13     1.092351306355   110.81497102   300.60761145
 H     36  23  13     1.092430426750   110.87401334    62.52446674
 H     36  23  13     1.086957701461   105.98027769   181.55046267
 H     37  25  24     0.965674513564   107.53923045   190.92967739
 H     38  17   8     0.971212005604   108.05747706    64.07703630
 H     39  18   9     0.965408485362   108.20997555   299.77472448
 H     41  31  30     0.970211331494   108.75743533   357.01316604
 H     42  40  30     1.085377001018   105.70765910   179.08303680
 H     42  40  30     1.091258418759   110.94299775   298.07280554
 H     42  40  30     1.092563810672   110.52502078    59.73987021

---------------------------
INTERNAL COORDINATES (A.U.)
---------------------------
 C      0   0   0     0.000000000000     0.00000000     0.00000000
 C      1   0   0     2.643509848221     0.00000000     0.00000000
 C      2   1   0     2.641089977860   119.25203035     0.00000000
 C      3   2   1     2.634192731916   120.31618608     0.18538297
 C      4   3   2     2.628671128913   120.24030392     1.24738173
 C      1   2   3     2.631519801232   120.14229466   358.14411858
 C      5   4   3     2.848664831372   120.97768939   177.72086312
 C      7   5   4     2.916658297510   113.06111602   259.12976245
 C      8   7   5     2.916691997298   113.38941176   202.60425799
 C      9   8   7     2.913681789789   111.61500863    78.64718443
 C     10   9   8     2.851070336211   114.77776279    57.50561828
 C     11  10   9     2.646646414455   120.40220060    54.27122206
 C     12  11  10     2.618675103323   120.67743821   179.15728904
 C     13  12  11     2.653660719464   120.13132995   359.06776606
 C     14  13  12     2.610439906344   119.48258584     1.46181584
 C     11  10   9     2.625462498272   121.09636843   233.75304973
 C      8   7   5     2.891545715023   110.55429015    74.45252949
 C      9   8   7     2.889201599137   115.33320191   314.68098389
 O      3   2   1     2.570868705378   115.64728629   179.44535394
 O      1   2   3     2.570387811151   115.88513036   178.32702257
 O      2   1   3     2.593643047687   122.37092869   185.13071503
 O     14  13  12     2.580424914092   120.23541304   181.12462059
 O     13  12  11     2.581574844903   125.57019310   179.02389145
 C     21   2   1     2.722235571632   121.63959205   295.86578018
 C     24  21   2     2.905242078290   111.78804720   298.02942288
 C     25  24  21     2.850294114817   113.79967073    71.09724558
 C     24  21   2     2.872349024525   103.74953002   175.80108666
 O     27  24  21     2.694230705814   112.75547052    62.21515026
 C     26  25  24     2.644468138692   119.87950276    58.65571796
 C     29  26  25     2.613803980662   120.29870339   180.47036457
 C     30  29  26     2.652667856520   119.74777663   359.64041702
 C     31  30  29     2.609864128315   120.14029488   358.74606360
 C     26  25  24     2.620956478400   120.74640300   237.32416357
 C     20   1   2     2.693766534182   118.08160932   180.07621011
 C     19   3   2     2.692435151007   118.09420978   182.46227864
 C     23  13  12     2.696496420776   118.28307775   358.04884400
 O     25  24  21     2.718584765740   105.46815448   192.53927700
 O     17   8   7     2.702243281806   113.05458095   187.53698507
 O     18   9   8     2.703599413717   114.64809139   300.36285064
 O     30  29  26     2.572134519512   125.80179723   179.29127783
 O     31  30  29     2.587926908112   119.78349143   179.12187620
 C     40  30  29     2.697367226082   118.26795290     4.61850094
 H      4   3   2     2.040464370497   120.40304011   180.15094471
 H      6   1   2     2.041028743914   120.32132463   181.50199903
 H      7   5   4     2.063753900080   108.56465899   138.18890504
 H      7   5   4     2.065130502547   109.69150137    21.88822057
 H      8   7   5     2.067925686708   106.86713955   319.44008435
 H      9   8   7     2.068250686616   106.92008738   195.89242507
 H     10   9   8     2.065972746139   109.72179881   294.79266022
 H     10   9   8     2.069896217856   107.99968736   179.52482617
 H     12  11  10     2.042091125024   119.57956862   358.81120634
 H     15  14  13     2.046138710385   119.04695684   178.94775107
 H     16  11  10     2.046797913991   119.57997928     1.53040182
 H     17   8   7     2.058062465394   110.40760263    68.53202650
 H     17   8   7     2.066926573321   109.01420617   310.10686682
 H     18   9   8     2.062187783102   110.78278454    59.62073096
 H     18   9   8     2.071833254615   108.59395193   177.14087225
 H     22  14  13     1.831197086456   108.40132475   358.84677184
 H     24  21   2     2.062183889566   110.03163944    59.97579933
 H     25  24  21     2.066428021923   108.16823923   309.94234832
 H     27  24  21     2.070293353721   108.05723879   299.71325707
 H     27  24  21     2.054803578088   109.82971997   181.41047605
 H     28  27  24     1.826233475957   107.34274956   303.71055487
 H     29  26  25     2.040734481832   119.76473919   359.70288444
 H     32  31  30     2.044796788287   119.23674090   181.08325258
 H     33  26  25     2.045540719649   119.74597706     1.00173910
 H     34  20   1     2.054575710258   105.86219285   181.21160034
 H     34  20   1     2.062641165367   111.25383082   300.23772492
 H     34  20   1     2.065142602812   111.05696812    62.23493545
 H     35  19   3     2.065296895409   111.27561260   297.52091518
 H     35  19   3     2.065046916228   111.14526841    59.71631980
 H     35  19   3     2.054963079221   105.82707500   178.63050158
 H     36  23  13     2.064244811042   110.81497102   300.60761145
 H     36  23  13     2.064394326921   110.87401334    62.52446674
 H     36  23  13     2.054052374919   105.98027769   181.55046267
 H     37  25  24     1.824860365144   107.53923045   190.92967739
 H     38  17   8     1.835324708567   108.05747706    64.07703630
 H     39  18   9     1.824357644697   108.20997555   299.77472448
 H     41  31  30     1.833433708550   108.75743533   357.01316604
 H     42  40  30     2.051065283981   105.70765910   179.08303680
 H     42  40  30     2.062179552790   110.94299775   298.07280554
 H     42  40  30     2.064646386004   110.52502078    59.73987021

---------------------
BASIS SET INFORMATION
---------------------
There are 3 groups of distinct atoms

 Group   1 Type C   : 11s7p2d1f contracted to 4s5p2d1f pattern {7211/31111/11/1}
 Group   2 Type O   : 11s7p2d1f contracted to 4s5p2d1f pattern {7211/31111/11/1}
 Group   3 Type H   : 6s3p1d contracted to 3s2p1d pattern {411/21/1}

Atom   0C    basis set group =>   1
Atom   1C    basis set group =>   1
Atom   2C    basis set group =>   1
Atom   3C    basis set group =>   1
Atom   4C    basis set group =>   1
Atom   5C    basis set group =>   1
Atom   6C    basis set group =>   1
Atom   7C    basis set group =>   1
Atom   8C    basis set group =>   1
Atom   9C    basis set group =>   1
Atom  10C    basis set group =>   1
Atom  11C    basis set group =>   1
Atom  12C    basis set group =>   1
Atom  13C    basis set group =>   1
Atom  14C    basis set group =>   1
Atom  15C    basis set group =>   1
Atom  16C    basis set group =>   1
Atom  17C    basis set group =>   1
Atom  18O    basis set group =>   2
Atom  19O    basis set group =>   2
Atom  20O    basis set group =>   2
Atom  21O    basis set group =>   2
Atom  22O    basis set group =>   2
Atom  23C    basis set group =>   1
Atom  24C    basis set group =>   1
Atom  25C    basis set group =>   1
Atom  26C    basis set group =>   1
Atom  27O    basis set group =>   2
Atom  28C    basis set group =>   1
Atom  29C    basis set group =>   1
Atom  30C    basis set group =>   1
Atom  31C    basis set group =>   1
Atom  32C    basis set group =>   1
Atom  33C    basis set group =>   1
Atom  34C    basis set group =>   1
Atom  35C    basis set group =>   1
Atom  36O    basis set group =>   2
Atom  37O    basis set group =>   2
Atom  38O    basis set group =>   2
Atom  39O    basis set group =>   2
Atom  40O    basis set group =>   2
Atom  41C    basis set group =>   1
Atom  42H    basis set group =>   3
Atom  43H    basis set group =>   3
Atom  44H    basis set group =>   3
Atom  45H    basis set group =>   3
Atom  46H    basis set group =>   3
Atom  47H    basis set group =>   3
Atom  48H    basis set group =>   3
Atom  49H    basis set group =>   3
Atom  50H    basis set group =>   3
Atom  51H    basis set group =>   3
Atom  52H    basis set group =>   3
Atom  53H    basis set group =>   3
Atom  54H    basis set group =>   3
Atom  55H    basis set group =>   3
Atom  56H    basis set group =>   3
Atom  57H    basis set group =>   3
Atom  58H    basis set group =>   3
Atom  59H    basis set group =>   3
Atom  60H    basis set group =>   3
Atom  61H    basis set group =>   3
Atom  62H    basis set group =>   3
Atom  63H    basis set group =>   3
Atom  64H    basis set group =>   3
Atom  65H    basis set group =>   3
Atom  66H    basis set group =>   3
Atom  67H    basis set group =>   3
Atom  68H    basis set group =>   3
Atom  69H    basis set group =>   3
Atom  70H    basis set group =>   3
Atom  71H    basis set group =>   3
Atom  72H    basis set group =>   3
Atom  73H    basis set group =>   3
Atom  74H    basis set group =>   3
Atom  75H    basis set group =>   3
Atom  76H    basis set group =>   3
Atom  77H    basis set group =>   3
Atom  78H    basis set group =>   3
Atom  79H    basis set group =>   3
Atom  80H    basis set group =>   3
Atom  81H    basis set group =>   3
---------------------------------
AUXILIARY/J BASIS SET INFORMATION
---------------------------------
There are 3 groups of distinct atoms

 Group   1 Type C   : 15s13p12d5f5g contracted to 15s13p12d5f5g pattern {111111111111111/1111111111111/111111111111/11111/11111}
 Group   2 Type O   : 15s13p12d5f5g contracted to 15s13p12d5f5g pattern {111111111111111/1111111111111/111111111111/11111/11111}
 Group   3 Type H   : 12s4p3d2f contracted to 12s4p3d2f pattern {111111111111/1111/111/11}

Atom   0C    basis set group =>   1
Atom   1C    basis set group =>   1
Atom   2C    basis set group =>   1
Atom   3C    basis set group =>   1
Atom   4C    basis set group =>   1
Atom   5C    basis set group =>   1
Atom   6C    basis set group =>   1
Atom   7C    basis set group =>   1
Atom   8C    basis set group =>   1
Atom   9C    basis set group =>   1
Atom  10C    basis set group =>   1
Atom  11C    basis set group =>   1
Atom  12C    basis set group =>   1
Atom  13C    basis set group =>   1
Atom  14C    basis set group =>   1
Atom  15C    basis set group =>   1
Atom  16C    basis set group =>   1
Atom  17C    basis set group =>   1
Atom  18O    basis set group =>   2
Atom  19O    basis set group =>   2
Atom  20O    basis set group =>   2
Atom  21O    basis set group =>   2
Atom  22O    basis set group =>   2
Atom  23C    basis set group =>   1
Atom  24C    basis set group =>   1
Atom  25C    basis set group =>   1
Atom  26C    basis set group =>   1
Atom  27O    basis set group =>   2
Atom  28C    basis set group =>   1
Atom  29C    basis set group =>   1
Atom  30C    basis set group =>   1
Atom  31C    basis set group =>   1
Atom  32C    basis set group =>   1
Atom  33C    basis set group =>   1
Atom  34C    basis set group =>   1
Atom  35C    basis set group =>   1
Atom  36O    basis set group =>   2
Atom  37O    basis set group =>   2
Atom  38O    basis set group =>   2
Atom  39O    basis set group =>   2
Atom  40O    basis set group =>   2
Atom  41C    basis set group =>   1
Atom  42H    basis set group =>   3
Atom  43H    basis set group =>   3
Atom  44H    basis set group =>   3
Atom  45H    basis set group =>   3
Atom  46H    basis set group =>   3
Atom  47H    basis set group =>   3
Atom  48H    basis set group =>   3
Atom  49H    basis set group =>   3
Atom  50H    basis set group =>   3
Atom  51H    basis set group =>   3
Atom  52H    basis set group =>   3
Atom  53H    basis set group =>   3
Atom  54H    basis set group =>   3
Atom  55H    basis set group =>   3
Atom  56H    basis set group =>   3
Atom  57H    basis set group =>   3
Atom  58H    basis set group =>   3
Atom  59H    basis set group =>   3
Atom  60H    basis set group =>   3
Atom  61H    basis set group =>   3
Atom  62H    basis set group =>   3
Atom  63H    basis set group =>   3
Atom  64H    basis set group =>   3
Atom  65H    basis set group =>   3
Atom  66H    basis set group =>   3
Atom  67H    basis set group =>   3
Atom  68H    basis set group =>   3
Atom  69H    basis set group =>   3
Atom  70H    basis set group =>   3
Atom  71H    basis set group =>   3
Atom  72H    basis set group =>   3
Atom  73H    basis set group =>   3
Atom  74H    basis set group =>   3
Atom  75H    basis set group =>   3
Atom  76H    basis set group =>   3
Atom  77H    basis set group =>   3
Atom  78H    basis set group =>   3
Atom  79H    basis set group =>   3
Atom  80H    basis set group =>   3
Atom  81H    basis set group =>   3
---------------------------------
AUXILIARY/C BASIS SET INFORMATION
---------------------------------
There are 3 groups of distinct atoms

 Group   1 Type C   : 15s13p12d5f5g contracted to 15s13p12d5f5g pattern {111111111111111/1111111111111/111111111111/11111/11111}
 Group   2 Type O   : 15s13p12d5f5g contracted to 15s13p12d5f5g pattern {111111111111111/1111111111111/111111111111/11111/11111}
 Group   3 Type H   : 12s4p3d2f contracted to 12s4p3d2f pattern {111111111111/1111/111/11}

Atom   0C    basis set group =>   1
Atom   1C    basis set group =>   1
Atom   2C    basis set group =>   1
Atom   3C    basis set group =>   1
Atom   4C    basis set group =>   1
Atom   5C    basis set group =>   1
Atom   6C    basis set group =>   1
Atom   7C    basis set group =>   1
Atom   8C    basis set group =>   1
Atom   9C    basis set group =>   1
Atom  10C    basis set group =>   1
Atom  11C    basis set group =>   1
Atom  12C    basis set group =>   1
Atom  13C    basis set group =>   1
Atom  14C    basis set group =>   1
Atom  15C    basis set group =>   1
Atom  16C    basis set group =>   1
Atom  17C    basis set group =>   1
Atom  18O    basis set group =>   2
Atom  19O    basis set group =>   2
Atom  20O    basis set group =>   2
Atom  21O    basis set group =>   2
Atom  22O    basis set group =>   2
Atom  23C    basis set group =>   1
Atom  24C    basis set group =>   1
Atom  25C    basis set group =>   1
Atom  26C    basis set group =>   1
Atom  27O    basis set group =>   2
Atom  28C    basis set group =>   1
Atom  29C    basis set group =>   1
Atom  30C    basis set group =>   1
Atom  31C    basis set group =>   1
Atom  32C    basis set group =>   1
Atom  33C    basis set group =>   1
Atom  34C    basis set group =>   1
Atom  35C    basis set group =>   1
Atom  36O    basis set group =>   2
Atom  37O    basis set group =>   2
Atom  38O    basis set group =>   2
Atom  39O    basis set group =>   2
Atom  40O    basis set group =>   2
Atom  41C    basis set group =>   1
Atom  42H    basis set group =>   3
Atom  43H    basis set group =>   3
Atom  44H    basis set group =>   3
Atom  45H    basis set group =>   3
Atom  46H    basis set group =>   3
Atom  47H    basis set group =>   3
Atom  48H    basis set group =>   3
Atom  49H    basis set group =>   3
Atom  50H    basis set group =>   3
Atom  51H    basis set group =>   3
Atom  52H    basis set group =>   3
Atom  53H    basis set group =>   3
Atom  54H    basis set group =>   3
Atom  55H    basis set group =>   3
Atom  56H    basis set group =>   3
Atom  57H    basis set group =>   3
Atom  58H    basis set group =>   3
Atom  59H    basis set group =>   3
Atom  60H    basis set group =>   3
Atom  61H    basis set group =>   3
Atom  62H    basis set group =>   3
Atom  63H    basis set group =>   3
Atom  64H    basis set group =>   3
Atom  65H    basis set group =>   3
Atom  66H    basis set group =>   3
Atom  67H    basis set group =>   3
Atom  68H    basis set group =>   3
Atom  69H    basis set group =>   3
Atom  70H    basis set group =>   3
Atom  71H    basis set group =>   3
Atom  72H    basis set group =>   3
Atom  73H    basis set group =>   3
Atom  74H    basis set group =>   3
Atom  75H    basis set group =>   3
Atom  76H    basis set group =>   3
Atom  77H    basis set group =>   3
Atom  78H    basis set group =>   3
Atom  79H    basis set group =>   3
Atom  80H    basis set group =>   3
Atom  81H    basis set group =>   3
----------------------------------
AUXILIARY/JK BASIS SET INFORMATION
----------------------------------
There are 3 groups of distinct atoms

 Group   1 Type C   : 15s13p12d5f5g contracted to 15s13p12d5f5g pattern {111111111111111/1111111111111/111111111111/11111/11111}
 Group   2 Type O   : 15s13p12d5f5g contracted to 15s13p12d5f5g pattern {111111111111111/1111111111111/111111111111/11111/11111}
 Group   3 Type H   : 12s4p3d2f contracted to 12s4p3d2f pattern {111111111111/1111/111/11}

Atom   0C    basis set group =>   1
Atom   1C    basis set group =>   1
Atom   2C    basis set group =>   1
Atom   3C    basis set group =>   1
Atom   4C    basis set group =>   1
Atom   5C    basis set group =>   1
Atom   6C    basis set group =>   1
Atom   7C    basis set group =>   1
Atom   8C    basis set group =>   1
Atom   9C    basis set group =>   1
Atom  10C    basis set group =>   1
Atom  11C    basis set group =>   1
Atom  12C    basis set group =>   1
Atom  13C    basis set group =>   1
Atom  14C    basis set group =>   1
Atom  15C    basis set group =>   1
Atom  16C    basis set group =>   1
Atom  17C    basis set group =>   1
Atom  18O    basis set group =>   2
Atom  19O    basis set group =>   2
Atom  20O    basis set group =>   2
Atom  21O    basis set group =>   2
Atom  22O    basis set group =>   2
Atom  23C    basis set group =>   1
Atom  24C    basis set group =>   1
Atom  25C    basis set group =>   1
Atom  26C    basis set group =>   1
Atom  27O    basis set group =>   2
Atom  28C    basis set group =>   1
Atom  29C    basis set group =>   1
Atom  30C    basis set group =>   1
Atom  31C    basis set group =>   1
Atom  32C    basis set group =>   1
Atom  33C    basis set group =>   1
Atom  34C    basis set group =>   1
Atom  35C    basis set group =>   1
Atom  36O    basis set group =>   2
Atom  37O    basis set group =>   2
Atom  38O    basis set group =>   2
Atom  39O    basis set group =>   2
Atom  40O    basis set group =>   2
Atom  41C    basis set group =>   1
Atom  42H    basis set group =>   3
Atom  43H    basis set group =>   3
Atom  44H    basis set group =>   3
Atom  45H    basis set group =>   3
Atom  46H    basis set group =>   3
Atom  47H    basis set group =>   3
Atom  48H    basis set group =>   3
Atom  49H    basis set group =>   3
Atom  50H    basis set group =>   3
Atom  51H    basis set group =>   3
Atom  52H    basis set group =>   3
Atom  53H    basis set group =>   3
Atom  54H    basis set group =>   3
Atom  55H    basis set group =>   3
Atom  56H    basis set group =>   3
Atom  57H    basis set group =>   3
Atom  58H    basis set group =>   3
Atom  59H    basis set group =>   3
Atom  60H    basis set group =>   3
Atom  61H    basis set group =>   3
Atom  62H    basis set group =>   3
Atom  63H    basis set group =>   3
Atom  64H    basis set group =>   3
Atom  65H    basis set group =>   3
Atom  66H    basis set group =>   3
Atom  67H    basis set group =>   3
Atom  68H    basis set group =>   3
Atom  69H    basis set group =>   3
Atom  70H    basis set group =>   3
Atom  71H    basis set group =>   3
Atom  72H    basis set group =>   3
Atom  73H    basis set group =>   3
Atom  74H    basis set group =>   3
Atom  75H    basis set group =>   3
Atom  76H    basis set group =>   3
Atom  77H    basis set group =>   3
Atom  78H    basis set group =>   3
Atom  79H    basis set group =>   3
Atom  80H    basis set group =>   3
Atom  81H    basis set group =>   3
---------------------------------
AUXILIARY/X BASIS SET INFORMATION
---------------------------------
There are 3 groups of distinct atoms

 Group   1 Type C   : 15s13p12d5f5g contracted to 15s13p12d5f5g pattern {111111111111111/1111111111111/111111111111/11111/11111}
 Group   2 Type O   : 15s13p12d5f5g contracted to 15s13p12d5f5g pattern {111111111111111/1111111111111/111111111111/11111/11111}
 Group   3 Type H   : 12s4p3d2f contracted to 12s4p3d2f pattern {111111111111/1111/111/11}

Atom   0C    basis set group =>   1
Atom   1C    basis set group =>   1
Atom   2C    basis set group =>   1
Atom   3C    basis set group =>   1
Atom   4C    basis set group =>   1
Atom   5C    basis set group =>   1
Atom   6C    basis set group =>   1
Atom   7C    basis set group =>   1
Atom   8C    basis set group =>   1
Atom   9C    basis set group =>   1
Atom  10C    basis set group =>   1
Atom  11C    basis set group =>   1
Atom  12C    basis set group =>   1
Atom  13C    basis set group =>   1
Atom  14C    basis set group =>   1
Atom  15C    basis set group =>   1
Atom  16C    basis set group =>   1
Atom  17C    basis set group =>   1
Atom  18O    basis set group =>   2
Atom  19O    basis set group =>   2
Atom  20O    basis set group =>   2
Atom  21O    basis set group =>   2
Atom  22O    basis set group =>   2
Atom  23C    basis set group =>   1
Atom  24C    basis set group =>   1
Atom  25C    basis set group =>   1
Atom  26C    basis set group =>   1
Atom  27O    basis set group =>   2
Atom  28C    basis set group =>   1
Atom  29C    basis set group =>   1
Atom  30C    basis set group =>   1
Atom  31C    basis set group =>   1
Atom  32C    basis set group =>   1
Atom  33C    basis set group =>   1
Atom  34C    basis set group =>   1
Atom  35C    basis set group =>   1
Atom  36O    basis set group =>   2
Atom  37O    basis set group =>   2
Atom  38O    basis set group =>   2
Atom  39O    basis set group =>   2
Atom  40O    basis set group =>   2
Atom  41C    basis set group =>   1
Atom  42H    basis set group =>   3
Atom  43H    basis set group =>   3
Atom  44H    basis set group =>   3
Atom  45H    basis set group =>   3
Atom  46H    basis set group =>   3
Atom  47H    basis set group =>   3
Atom  48H    basis set group =>   3
Atom  49H    basis set group =>   3
Atom  50H    basis set group =>   3
Atom  51H    basis set group =>   3
Atom  52H    basis set group =>   3
Atom  53H    basis set group =>   3
Atom  54H    basis set group =>   3
Atom  55H    basis set group =>   3
Atom  56H    basis set group =>   3
Atom  57H    basis set group =>   3
Atom  58H    basis set group =>   3
Atom  59H    basis set group =>   3
Atom  60H    basis set group =>   3
Atom  61H    basis set group =>   3
Atom  62H    basis set group =>   3
Atom  63H    basis set group =>   3
Atom  64H    basis set group =>   3
Atom  65H    basis set group =>   3
Atom  66H    basis set group =>   3
Atom  67H    basis set group =>   3
Atom  68H    basis set group =>   3
Atom  69H    basis set group =>   3
Atom  70H    basis set group =>   3
Atom  71H    basis set group =>   3
Atom  72H    basis set group =>   3
Atom  73H    basis set group =>   3
Atom  74H    basis set group =>   3
Atom  75H    basis set group =>   3
Atom  76H    basis set group =>   3
Atom  77H    basis set group =>   3
Atom  78H    basis set group =>   3
Atom  79H    basis set group =>   3
Atom  80H    basis set group =>   3
Atom  81H    basis set group =>   3
--------------------------------------------------------------------------
WARNING: There is at least one non-excluded one OpenFabrics device found,
but there are no active ports detected (or Open MPI was unable to use
them).  This is most certainly not what you wanted.  Check your
cables, subnet manager configuration, etc.  The openib BTL will be
ignored for this job.

  Local host: c03b01n04
--------------------------------------------------------------------------
--------------------------------------------------------------------------
WARNING: There was an error initializing an OpenFabrics device.

  Local host:   c03b01n04
  Local device: mlx5_0
--------------------------------------------------------------------------


           ************************************************************
           *        Program running with 60 parallel MPI-processes    *
           *              working on a common directory               *
           ************************************************************
------------------------------------------------------------------------------
                             ORCA STARTUP CALCULATIONS
                           -- RI-GTO INTEGRALS CHOSEN --
------------------------------------------------------------------------------
------------------------------------------------------------------------------
                   ___                                                        
                  /   \      - P O W E R E D   B Y -                         
                 /     \                                                     
                 |  |  |   _    _      __       _____    __    __             
                 |  |  |  | |  | |    /  \     |  _  \  |  |  /  |          
                  \  \/   | |  | |   /    \    | | | |  |  | /  /          
                 / \  \   | |__| |  /  /\  \   | |_| |  |  |/  /          
                |  |  |   |  __  | /  /__\  \  |    /   |      \           
                |  |  |   | |  | | |   __   |  |    \   |  |\   \          
                \     /   | |  | | |  |  |  |  | |\  \  |  | \   \       
                 \___/    |_|  |_| |__|  |__|  |_| \__\ |__|  \__/        
                                                                              
                      - O R C A' S   B I G   F R I E N D -                    
                                      &                                       
                       - I N T E G R A L  F E E D E R -                       
                                                                              
 v1 FN, 2020, v2 2021, v3 2022-2024                                           
------------------------------------------------------------------------------


----------------------
SHARK INTEGRAL PACKAGE
----------------------

Number of atoms                             ...     82
Number of basis functions                   ...   2072
Number of shells                            ...    744
Maximum angular momentum                    ...      3
Integral batch strategy                     ... SHARK/LIBINT Hybrid
RI-J (if used) integral strategy            ... SPLIT-RIJ (Revised 2003 algorithm where possible)
Printlevel                                  ...      1
Contraction scheme used                     ... SEGMENTED contraction
Prescreening option                         ... SCHWARTZ
   Thresh                                   ... 1.000e-10
   Tcut                                     ... 1.000e-11
   Tpresel                                  ... 1.000e-11 
Coulomb Range Separation                    ... NOT USED
Exchange Range Separation                   ... NOT USED
Multipole approximations                    ... NOT USED
Finite Nucleus Model                        ... NOT USED
CABS basis                                  ... NOT available
Auxiliary Coulomb fitting basis             ... AVAILABLE
   # of basis functions in Aux-J            ...  10268
   # of shells in Aux-J                     ...   2940
   Maximum angular momentum in Aux-J        ...      4
Auxiliary J/K fitting basis                 ... AVAILABLE
   # of basis functions in Aux-JK           ...  10268
   # of shells in Aux-JK                    ...   2940
   Maximum angular momentum in Aux-JK       ...      4
Auxiliary Correlation fitting basis         ... AVAILABLE
   # of basis functions in Aux-C            ...  10268
   # of shells in Aux-C                     ...   2940
   Maximum angular momentum in Aux-C        ...      4
Auxiliary 'external' fitting basis          ... NOT available

Checking pre-screening integrals            ... done (  0.0 sec) Dimension = 744
   => SHARK Basis and OBASIS are compatible. Storing Pre-screening
Shell pair information
Shell pair cut-off parameter TPreSel        ...   1.0e-11
Total number of shell pairs                 ...    277140
Shell pairs after pre-screening             ...    150413
Total number of primitive shell pairs       ...    823733
Primitive shell pairs kept                  ...    275362
          la=0 lb=0:  28637 shell pairs
          la=1 lb=0:  50016 shell pairs
          la=1 lb=1:  20437 shell pairs
          la=2 lb=0:  19711 shell pairs
          la=2 lb=1:  14894 shell pairs
          la=2 lb=2:   2655 shell pairs
          la=3 lb=0:   6802 shell pairs
          la=3 lb=1:   5122 shell pairs
          la=3 lb=2:   1801 shell pairs
          la=3 lb=3:    338 shell pairs

Checking whether 4 symmetric matrices of dimension 2072 fit in memory
:Max Core in MB      =   5000.00
 MB in use           =    185.76
 MB left             =   4814.24
 MB needed           =     65.54
 Data fit in memory  = YES
Calculating RI/J V-Matrix + Cholesky decomp.... [c03b01n04:1830110] 9 more processes have sent help message help-mpi-btl-openib.txt / no active ports found
[c03b01n04:1830110] Set MCA parameter "orte_base_help_aggregate" to 0 to see all help / error messages
[c03b01n04:1830110] 49 more processes have sent help message help-mpi-btl-openib.txt / error in device init
done (  4.4 sec)
Calculating RI/JK V-Matrix + Cholesky decomp.... done (  5.0 sec)
Calculating RI/C V-Matrix + Cholesky decomp.... done (  5.4 sec)
Calculating Nuclear repulsion               ... done (  0.4 sec) ENN=   5700.116637211041 Eh

Diagonalization of the overlap matrix:
Smallest eigenvalue                        ... 7.360e-06
Time for diagonalization                   ...    4.090 sec
Threshold for overlap eigenvalues          ... 1.000e-07
Number of eigenvalues below threshold      ... 0
Time for construction of square roots      ...    1.060 sec
Total time needed                          ...    5.545 sec

-------------------
DFT GRID GENERATION
-------------------

General Integration Accuracy     IntAcc      ... 4.388
Radial Grid Type                 RadialGrid  ... OptM3 with GC (2021)
Angular Grid (max. ang.)         AngularGrid ... 4 (Lebedev-302)
Angular grid pruning method      GridPruning ... 4 (adaptive)
Weight generation scheme         WeightScheme... mBecke (2022)
Basis function cutoff            BFCut       ... 1.0000e-10
Integration weight cutoff        WCut        ... 1.0000e-14
Partially contracted basis set               ... off
Rotationally invariant grid construction     ... off
Angular grids for H and He will be reduced by one unit
Diffuse basis detected: some atoms will have their outermost
                        angular grid increased by 1.

Total number of grid points                  ...   376862
Total number of batches                      ...     5929
Average number of points per batch           ...       63
Average number of grid points per atom       ...     4596
Grids setup in   6.0 sec
Initializing property integral containers    ... done (  0.1 sec)

SHARK setup successfully completed in  31.4 seconds

Maximum memory used throughout the entire STARTUP-calculation: 257.8 MB
--------------------------------------------------------------------------
WARNING: There was an error initializing an OpenFabrics device.

  Local host:   c03b01n04
  Local device: mlx5_0
--------------------------------------------------------------------------
--------------------------------------------------------------------------
WARNING: There is at least one non-excluded one OpenFabrics device found,
but there are no active ports detected (or Open MPI was unable to use
them).  This is most certainly not what you wanted.  Check your
cables, subnet manager configuration, etc.  The openib BTL will be
ignored for this job.

  Local host: c03b01n04
--------------------------------------------------------------------------


           ************************************************************
           *        Program running with 60 parallel MPI-processes    *
           *              working on a common directory               *
           ************************************************************
-------------------------------------------------------------------------------
                                 ORCA GUESS
                   Start orbitals & Density for SCF / CASSCF
-------------------------------------------------------------------------------

------------
SCF SETTINGS
------------
Hamiltonian:
 Density Functional     Method          .... DFT(GTOs)
 Exchange Functional    Exchange        .... TPSS
 Correlation Functional Correlation     .... TPSS
 LDA part of GGA corr.  LDAOpt          .... PW91-LDA
 Gradients option       PostSCFGGA      .... off
   NL short-range parameter             ....  5.000000
 RI-approximation to the Coulomb term is turned on
   Number of AuxJ basis functions       .... 10268


General Settings:
 Integral files         IntName         .... nmr-conf-3
 Hartree-Fock type      HFTyp           .... RHF
 Total Charge           Charge          ....    0
 Multiplicity           Mult            ....    1
 Number of Electrons    NEL             ....  314
 Basis Dimension        Dim             .... 2072
 Nuclear Repulsion      ENuc            ....   5700.1166372110 Eh

Convergence Acceleration:
 AO-DIIS                CNVDIIS         .... on
   Start iteration      DIISMaxIt       ....    12
   Startup error        DIISStart       ....  0.200000
   # of expansion vecs  DIISMaxEq       ....     5
   Bias factor          DIISBfac        ....   1.050
   Max. coefficient     DIISMaxC        ....  10.000
 MO-DIIS                CNVKDIIS        .... off
 Trust-Rad. Augm. Hess. CNVTRAH         .... auto
   Auto Start mean grad. ratio tolernc. ....  1.125000
   Auto Start start iteration           ....    50
   Auto Start num. interpolation iter.  ....    10
   Max. Number of Micro iterations      ....    24
   Max. Number of Macro iterations      .... Maxiter - #DIIS iter
   Number of Davidson start vectors     ....     2
   Converg. threshold    (grad. norm)   ....   5.000e-05
   Grad. Scal. Fac. for Micro threshold ....   0.100
   Minimum threshold for Micro iter.    ....   1.000e-02
   NR start threshold (gradient norm)   ....   1.000e-04
   Initial trust radius                 ....   0.400
   Minimum AH scaling param. (alpha)    ....   1.000
   Maximum AH scaling param. (alpha)    .... 1000.000
   Quad. conv. algorithm                .... NR
   White noise on init. David. guess    .... on
   Maximum white noise                  ....   0.010
   Pseudo random numbers                .... off
   Inactive MOs                         .... canonical
   Orbital update algorithm             .... Taylor
   Preconditioner                       .... Diag
   Full preconditioner red. dimension   ....   250
 SOSCF                 CNVSOSCF           .... on
   Start iteration     SOSCFMaxIt         ....   150
   Startup grad/error  SOSCFStart         ....  0.003300
   Hessian update      SOSCFHessUp        .... L-BFGS
   Autom. constraints  SOSCFAutoConstrain .... off
 Level Shifting         CNVShift        .... on
   Level shift para.    LevelShift      ....    0.2500
   Turn off err/grad.   ShiftErr        ....    0.0010
 Zerner damping         CNVZerner       .... off
 Static damping         CNVDamp         .... on
   Fraction old density DampFac         ....    0.7000
   Max. Damping (<1)    DampMax         ....    0.9800
   Min. Damping (>=0)   DampMin         ....    0.0000
   Turn off err/grad.   DampErr         ....    0.1000

SCF Procedure:
 Maximum # iterations   MaxIter         ....   125
 SCF integral mode      SCFMode         .... Direct
   Integral package                     .... SHARK and LIBINT hybrid scheme
 Reset frequency        DirectResetFreq ....    20
 Integral Threshold     Thresh          ....  1.000e-10 Eh
 Primitive CutOff       TCut            ....  1.000e-11 Eh

Convergence Tolerance:
 Convergence Check Mode ConvCheckMode   .... Total+1el-Energy
 Convergence forced     ConvForced      .... 0
 Energy Change          TolE            ....  1.000e-06 Eh
 1-El. energy change                    ....  1.000e-03 Eh
 Orbital Gradient       TolG            ....  5.000e-05
 Orbital Rotation angle TolX            ....  5.000e-05
 DIIS Error             TolErr          ....  1.000e-06

------------------------------
INITIAL GUESS: MODEL POTENTIAL
------------------------------
Loading Hartree-Fock densities                     ... done
Calculating cut-offs                               ... done
Initializing the effective Hamiltonian             ... done
Setting up the integral package (SHARK)            ... done
Starting the Coulomb interaction                   ... done (   0.8 sec)
Making the grid                                    ... done (   1.3 sec)
Mapping shells                                     ... done
Starting the XC term evaluation                    ... done (   0.1 sec)
  promolecular density results
     # of electrons  =    313.990781663
     EX              =   -260.289924879
     EC              =    -10.632584219
     EX+EC           =   -270.922509098
Transforming the Hamiltonian                       ... [c03b01n04:1830550] 47 more processes have sent help message help-mpi-btl-openib.txt / error in device init
[c03b01n04:1830550] Set MCA parameter "orte_base_help_aggregate" to 0 to see all help / error messages
[c03b01n04:1830550] 11 more processes have sent help message help-mpi-btl-openib.txt / no active ports found
done (   0.4 sec)
Diagonalizing the Hamiltonian                      ... done (   0.6 sec)
Back transforming the eigenvectors                 ... done (   0.2 sec)
Now organizing SCF variables                       ... done
                      ------------------
                      INITIAL GUESS DONE (   3.9 sec)
                      ------------------
             **** ENERGY FILE WAS UPDATED (nmr-conf-3.en.tmp) ****
Finished Guess after   8.8 sec
Maximum memory used throughout the entire GUESS-calculation: 289.1 MB
--------------------------------------------------------------------------
WARNING: There was an error initializing an OpenFabrics device.

  Local host:   c03b01n04
  Local device: mlx5_0
--------------------------------------------------------------------------
--------------------------------------------------------------------------
WARNING: There is at least one non-excluded one OpenFabrics device found,
but there are no active ports detected (or Open MPI was unable to use
them).  This is most certainly not what you wanted.  Check your
cables, subnet manager configuration, etc.  The openib BTL will be
ignored for this job.

  Local host: c03b01n04
--------------------------------------------------------------------------


           ************************************************************
           *        Program running with 60 parallel MPI-processes    *
           *              working on a common directory               *
           ************************************************************

-------------------------------------------------------------------------------------------
                                      ORCA LEAN-SCF
                              memory conserving SCF solver
-------------------------------------------------------------------------------------------

--------------------
CPCM SOLVATION MODEL
--------------------
CPCM parameters:
  Epsilon                                         ...      33.4280
  Refrac                                          ...       1.3288
  Rsolv                                           ...       1.3000
  Surface type                                    ... GAUSSIAN VDW
  Discretization scheme                           ... Constant charge density
    Threshold for H atoms                         ...       5.0000 (charges/Ang^2)
    Threshold for non-H atoms                     ...       5.0000 (charges/Ang^2)
  Epsilon function type                           ...         CPCM
Solvent:                                          ... METHANOL
Radii:
  Scheme                                          ... Element-dependent radii
  Radius for C  used is    3.8550 Bohr (=   2.0400 Ang.)
  Radius for O  used is    3.4469 Bohr (=   1.8240 Ang.)
  Radius for H  used is    2.4944 Bohr (=   1.3200 Ang.)
Calculating surface                               ...        done! (  0.0s)
Cavity surface points                             ...         6269
Cavity Volume                                     ...    4586.4460
Cavity Surface-area                               ...    2107.3651
Calculating surface distance matrix               ...        done! (  0.2s)
Performing Cholesky decomposition & store         ...        [c03b01n04:1830991] 49 more processes have sent help message help-mpi-btl-openib.txt / error in device init
[c03b01n04:1830991] Set MCA parameter "orte_base_help_aggregate" to 0 to see all help / error messages
[c03b01n04:1830991] 9 more processes have sent help message help-mpi-btl-openib.txt / no active ports found
done! (  0.9s)
Overall time for CPCM initialization              ...                 1.1s

----------------------------------------D-I-I-S--------------------------------------------
Iteration    Energy (Eh)           Delta-E    RMSDP     MaxDP     DIISErr   Damp  Time(sec)
-------------------------------------------------------------------------------------------
               ***  Starting incremental Fock matrix formation  ***
    1    -2033.0127366012748098     0.00e+00  8.09e-03  2.93e-01  2.36e-01  0.700   8.1
    2    -2033.4238200668069112    -4.11e-01  6.61e-03  2.26e-01  8.26e-02  0.700  11.1
                               ***Turning on AO-DIIS***
    3    -2033.5769848736708809    -1.53e-01  2.81e-03  7.55e-02  2.46e-02  0.700   7.8
    4    -2033.6695765151398518    -9.26e-02  4.73e-03  7.88e-02  1.14e-02  0.000   8.0
    5    -2033.8748034449390616    -2.05e-01  1.25e-03  2.73e-02  4.88e-03  0.000   8.4
                              *** Initializing SOSCF ***
---------------------------------------S-O-S-C-F--------------------------------------
Iteration    Energy (Eh)           Delta-E    RMSDP     MaxDP     MaxGrad    Time(sec)
--------------------------------------------------------------------------------------
    6    -2033.8761921166505999    -1.39e-03  4.00e-04  8.14e-03  1.30e-03    10.4
               *** Restarting incremental Fock matrix formation ***
    7    -2033.8762989295446459    -1.07e-04  3.14e-04  5.94e-03  1.26e-04     7.1
    8    -2033.8762763853883371     2.25e-05  7.88e-05  2.48e-03  6.85e-04     6.2
    9    -2033.8763157631028662    -3.94e-05  7.08e-05  1.09e-03  1.28e-04     6.5
   10    -2033.8763157448001948     1.83e-08  2.07e-05  6.06e-04  1.11e-04     6.2
                 **** Energy Check signals convergence ****

               *****************************************************
               *                     SUCCESS                       *
               *           SCF CONVERGED AFTER  10 CYCLES          *
               *****************************************************

             **** ENERGY FILE WAS UPDATED (nmr-conf-3.en.tmp) ****

----------------
TOTAL SCF ENERGY
----------------

Total Energy       :      -2033.87631617866464 Eh          -55344.58823 eV

Components:
Nuclear Repulsion  :       5700.11663721104105 Eh          155108.05924 eV
Electronic Energy  :      -7733.94758215214551 Eh         -210451.41285 eV
One Electron Energy:     -14128.77529842985678 Eh         -384463.52162 eV
Two Electron Energy:       6394.82771627771126 Eh          174012.10876 eV
CPCM Dielectric    :         -0.04537123755988 Eh              -1.23461 eV

Virial components:
Potential Energy   :      -4061.11409111767261 Eh         -110508.53256 eV
Kinetic Energy     :       2027.23777493900820 Eh           55163.94434 eV
Virial Ratio       :          2.00327467321383

DFT components:
N(Alpha)           :      156.999987827382 electrons
N(Beta)            :      156.999987827382 electrons
N(Total)           :      313.999975654763 electrons
E(X)               :     -268.089644292681 Eh       
E(C)               :      -10.600308369323 Eh       
E(XC)              :     -278.689952662004 Eh       

CPCM Solvation Model Properties:
Surface-charge          :         -0.04266958966450
Corrected charge        :         -0.00000000000000
Outlying charge corr.   :          0.00007833558881 Eh               0.00213 eV
Free-energy (cav+disp)  :  This term is not implemented in the current solvation scheme

---------------
SCF CONVERGENCE
---------------

  Last Energy change         ...   -1.8303e-08  Tolerance :   1.0000e-06
  Last MAX-Density change    ...    6.0611e-04  Tolerance :   1.0000e-05
  Last RMS-Density change    ...    2.0731e-05  Tolerance :   1.0000e-06
  Last DIIS Error            ...    1.3010e-03  Tolerance :   1.0000e-06
  Last Orbital Gradient      ...    1.1122e-04  Tolerance :   5.0000e-05
  Last Orbital Rotation      ...    2.2594e-04  Tolerance :   5.0000e-05


----------------
ORBITAL ENERGIES
----------------

  NO   OCC          E(Eh)            E(eV) 
   0   2.0000     -18.920770      -514.8603 
   1   2.0000     -18.919029      -514.8129 
   2   2.0000     -18.918411      -514.7961 
   3   2.0000     -18.911664      -514.6125 
   4   2.0000     -18.909877      -514.5639 
   5   2.0000     -18.909558      -514.5552 
   6   2.0000     -18.900836      -514.3179 
   7   2.0000     -18.883743      -513.8528 
   8   2.0000     -18.880143      -513.7548 
   9   2.0000     -18.877476      -513.6822 
  10   2.0000     -18.867147      -513.4012 
  11   2.0000     -10.047658      -273.4107 
  12   2.0000     -10.046884      -273.3896 
  13   2.0000     -10.044737      -273.3312 
  14   2.0000     -10.042679      -273.2752 
  15   2.0000     -10.041995      -273.2566 
  16   2.0000     -10.041143      -273.2334 
  17   2.0000     -10.041020      -273.2301 
  18   2.0000     -10.040981      -273.2290 
  19   2.0000     -10.036743      -273.1137 
  20   2.0000     -10.033378      -273.0221 
  21   2.0000     -10.032794      -273.0062 
  22   2.0000     -10.032211      -272.9903 
  23   2.0000     -10.031860      -272.9808 
  24   2.0000     -10.028866      -272.8993 
  25   2.0000     -10.024642      -272.7844 
  26   2.0000     -10.016011      -272.5495 
  27   2.0000      -9.989816      -271.8367 
  28   2.0000      -9.989180      -271.8194 
  29   2.0000      -9.987812      -271.7822 
  30   2.0000      -9.987077      -271.7622 
  31   2.0000      -9.986477      -271.7459 
  32   2.0000      -9.983923      -271.6764 
  33   2.0000      -9.983908      -271.6760 
  34   2.0000      -9.983402      -271.6622 
  35   2.0000      -9.983142      -271.6551 
  36   2.0000      -9.982823      -271.6464 
  37   2.0000      -9.982099      -271.6267 
  38   2.0000      -9.981105      -271.5997 
  39   2.0000      -9.979284      -271.5501 
  40   2.0000      -9.974636      -271.4236 
  41   2.0000      -9.974132      -271.4099 
  42   2.0000      -1.015942       -27.6452 
  43   2.0000      -1.011718       -27.5302 
  44   2.0000      -1.007183       -27.4068 
  45   2.0000      -0.996647       -27.1202 
  46   2.0000      -0.989967       -26.9384 
  47   2.0000      -0.983865       -26.7723 
  48   2.0000      -0.980564       -26.6825 
  49   2.0000      -0.956852       -26.0373 
  50   2.0000      -0.949961       -25.8498 
  51   2.0000      -0.949432       -25.8354 
  52   2.0000      -0.939581       -25.5673 
  53   2.0000      -0.798049       -21.7160 
  54   2.0000      -0.797367       -21.6975 
  55   2.0000      -0.793782       -21.5999 
  56   2.0000      -0.758700       -20.6453 
  57   2.0000      -0.733644       -19.9635 
  58   2.0000      -0.717780       -19.5318 
  59   2.0000      -0.703712       -19.1490 
  60   2.0000      -0.700419       -19.0594 
  61   2.0000      -0.696854       -18.9623 
  62   2.0000      -0.696382       -18.9495 
  63   2.0000      -0.686576       -18.6827 
  64   2.0000      -0.670185       -18.2367 
  65   2.0000      -0.651893       -17.7389 
  66   2.0000      -0.649344       -17.6696 
  67   2.0000      -0.648645       -17.6505 
  68   2.0000      -0.638360       -17.3707 
  69   2.0000      -0.623052       -16.9541 
  70   2.0000      -0.615023       -16.7356 
  71   2.0000      -0.612571       -16.6689 
  72   2.0000      -0.576496       -15.6872 
  73   2.0000      -0.567272       -15.4362 
  74   2.0000      -0.562300       -15.3010 
  75   2.0000      -0.558988       -15.2108 
  76   2.0000      -0.550310       -14.9747 
  77   2.0000      -0.544127       -14.8064 
  78   2.0000      -0.537475       -14.6254 
  79   2.0000      -0.529546       -14.4097 
  80   2.0000      -0.513774       -13.9805 
  81   2.0000      -0.512028       -13.9330 
  82   2.0000      -0.504629       -13.7317 
  83   2.0000      -0.494738       -13.4625 
  84   2.0000      -0.483866       -13.1667 
  85   2.0000      -0.477366       -12.9898 
  86   2.0000      -0.473848       -12.8941 
  87   2.0000      -0.467822       -12.7301 
  88   2.0000      -0.461476       -12.5574 
  89   2.0000      -0.459802       -12.5118 
  90   2.0000      -0.453885       -12.3508 
  91   2.0000      -0.448370       -12.2008 
  92   2.0000      -0.444495       -12.0953 
  93   2.0000      -0.442856       -12.0507 
  94   2.0000      -0.433717       -11.8020 
  95   2.0000      -0.431778       -11.7493 
  96   2.0000      -0.428392       -11.6571 
  97   2.0000      -0.425613       -11.5815 
  98   2.0000      -0.423910       -11.5352 
  99   2.0000      -0.420768       -11.4497 
 100   2.0000      -0.417523       -11.3614 
 101   2.0000      -0.413152       -11.2424 
 102   2.0000      -0.404387       -11.0039 
 103   2.0000      -0.403773       -10.9872 
 104   2.0000      -0.400862       -10.9080 
 105   2.0000      -0.399478       -10.8703 
 106   2.0000      -0.395748       -10.7689 
 107   2.0000      -0.390980       -10.6391 
 108   2.0000      -0.388385       -10.5685 
 109   2.0000      -0.383764       -10.4428 
 110   2.0000      -0.383152       -10.4261 
 111   2.0000      -0.381515       -10.3815 
 112   2.0000      -0.378337       -10.2951 
 113   2.0000      -0.376196       -10.2368 
 114   2.0000      -0.374007       -10.1772 
 115   2.0000      -0.370780       -10.0894 
 116   2.0000      -0.368927       -10.0390 
 117   2.0000      -0.366775        -9.9805 
[...]
  X           0.9871934    0.1494713   -0.0557445
  Y          -0.1594263    0.9119065   -0.3781663
  Z          -0.0056912    0.3822105    0.9240578

 --------------
 Nucleus  73H :
 --------------

Diamagnetic contribution to the shielding tensor (ppm) : 
           -91.414        118.738       -51.275
           -66.275         94.352       -25.622
           -64.157         40.490       -40.255

Paramagnetic contribution to the shielding tensor (ppm): 
           120.461       -114.854        50.270
            71.465        -64.916        25.330
            62.165        -39.837        65.122

Total shielding tensor (ppm): 
            29.047          3.884        -1.005
             5.191         29.437        -0.292
            -1.992          0.653        24.867


 Diagonalized sT*s matrix:
 
 sDSO           -90.588           19.834           33.438  iso=     -12.439
 sPSO           114.125            6.105            0.437  iso=      40.222
        ---------------  ---------------  ---------------
 Total           23.537           25.939           33.875  iso=      27.784

 Orientation: 
  X           0.5487555   -0.4468055   -0.7065637
  Y          -0.4508782    0.5535404   -0.7002155
  Z           0.7039717    0.7028213    0.1023035

 --------------
 Nucleus  74H :
 --------------

Diamagnetic contribution to the shielding tensor (ppm) : 
          -141.189          1.364       -47.681
           -97.196         49.660       -17.240
           -56.516         13.325      -112.098

Paramagnetic contribution to the shielding tensor (ppm): 
           165.087         -1.317        46.161
            96.132        -16.221        17.103
            55.478        -15.267       136.803

Total shielding tensor (ppm): 
            23.897          0.047        -1.521
            -1.063         33.439        -0.137
            -1.038         -1.943        24.705


 Diagonalized sT*s matrix:
 
 sDSO          -186.128          -69.661           52.161  iso=     -67.876
 sPSO           208.987           95.271          -18.589  iso=      95.223
        ---------------  ---------------  ---------------
 Total           22.859           25.610           33.572  iso=      27.347

 Orientation: 
  X          -0.7937163   -0.6064414   -0.0473637
  Y          -0.0956694    0.0475591    0.9942764
  Z          -0.6007178    0.7937046   -0.0957663

 --------------
 Nucleus  75H :
 --------------

Diamagnetic contribution to the shielding tensor (ppm) : 
             0.867       -265.212        40.964
           -37.975       -138.808        26.199
           -10.369       -102.673      -163.164

Paramagnetic contribution to the shielding tensor (ppm): 
            30.659        261.398       -40.749
            30.112        174.745       -29.739
            10.403        100.898       186.336

Total shielding tensor (ppm): 
            31.526         -3.814         0.215
            -7.862         35.937        -3.540
             0.034         -1.775        23.172


 Diagonalized sT*s matrix:
 
 sDSO          -185.143         -174.849           58.887  iso=    -100.368
 sPSO           207.635          202.735          -18.630  iso=     130.580
        ---------------  ---------------  ---------------
 Total           22.492           27.886           40.257  iso=      30.212

 Orientation: 
  X           0.1361951    0.8063024   -0.5756105
  Y           0.2693661    0.5289953    0.8047396
  Z           0.9533587   -0.2646516   -0.1451440

 --------------
 Nucleus  76H :
 --------------

Diamagnetic contribution to the shielding tensor (ppm) : 
          -134.149         23.306       -60.052
          -113.664         62.480       -25.848
            19.393        -24.195       -66.901

Paramagnetic contribution to the shielding tensor (ppm): 
           167.150        -25.595        47.770
           111.111        -40.399        29.156
           -33.034         25.565        97.988

Total shielding tensor (ppm): 
            33.001         -2.289       -12.282
            -2.554         22.080         3.308
           -13.641          1.370        31.087


 Diagonalized sT*s matrix:
 
 sDSO          -112.675           50.664          -76.560  iso=     -46.190
 sPSO           131.723          -29.063          122.078  iso=      74.913
        ---------------  ---------------  ---------------
 Total           19.048           21.601           45.519  iso=      28.723

 Orientation: 
  X          -0.6694068    0.1263274   -0.7320764
  Y           0.0439979    0.9904478    0.1306806
  Z          -0.7415920   -0.0552686    0.6685706

 --------------
 Nucleus  77H :
 --------------

Diamagnetic contribution to the shielding tensor (ppm) : 
           -54.586        123.528        -4.223
           -46.225        115.562        -9.131
            29.713        -69.506        -7.841

Paramagnetic contribution to the shielding tensor (ppm): 
            78.907       -122.841         1.576
            46.838        -76.554         6.092
           -32.014         64.620        36.278

Total shielding tensor (ppm): 
            24.321          0.688        -2.647
             0.613         39.008        -3.039
            -2.301         -4.887        28.436


 Diagonalized sT*s matrix:
 
 sDSO           -30.909          -47.046          131.090  iso=      17.712
 sPSO            53.983           75.287          -90.640  iso=      12.877
        ---------------  ---------------  ---------------
 Total           23.074           28.241           40.450  iso=      30.588

 Orientation: 
  X           0.8834622   -0.4603370   -0.0870881
  Y           0.0731736    0.3191847   -0.9448633
  Z           0.4627527    0.8283785    0.3156722

 --------------
 Nucleus  78H :
 --------------

Diamagnetic contribution to the shielding tensor (ppm) : 
          -102.193        -16.188       -16.346
           -92.624         37.787        -4.073
           -47.964         23.594       -42.027

Paramagnetic contribution to the shielding tensor (ppm): 
           125.442         20.624        19.295
            98.981        -17.501         6.951
            50.621        -23.869        77.698

Total shielding tensor (ppm): 
            23.249          4.437         2.949
             6.358         20.287         2.878
             2.657         -0.275        35.671


 Diagonalized sT*s matrix:
 
 sDSO            42.453          -86.097          -62.789  iso=     -35.477
 sPSO           -26.290          112.486           99.442  iso=      61.880
        ---------------  ---------------  ---------------
 Total           16.163           26.389           36.654  iso=      26.402

 Orientation: 
  X           0.5992737    0.7543901    0.2678931
  Y          -0.7984384    0.5874945    0.1317059
  Z          -0.0580281   -0.2928240    0.9544039

 --------------
 Nucleus  79H :
 --------------

Diamagnetic contribution to the shielding tensor (ppm) : 
           -31.192        -46.724       -28.871
           -35.752          1.437        -5.143
          -113.503         99.703       -69.300

Paramagnetic contribution to the shielding tensor (ppm): 
            57.985         49.809        26.744
            38.627         22.485         6.313
           114.719        -97.103        99.402

Total shielding tensor (ppm): 
            26.793          3.085        -2.126
             2.875         23.922         1.170
             1.216          2.600        30.101


 Diagonalized sT*s matrix:
 
 sDSO            -6.390          -35.188          -57.477  iso=     -33.018
 sPSO            28.038           63.677           88.157  iso=      59.957
        ---------------  ---------------  ---------------
 Total           21.648           28.488           30.680  iso=      26.939

 Orientation: 
  X           0.5117545    0.8434921   -0.1631822
  Y          -0.8337680    0.4417936   -0.3311335
  Z           0.2072156   -0.3055151   -0.9293666

 --------------
 Nucleus  80H :
 --------------

Diamagnetic contribution to the shielding tensor (ppm) : 
            92.551        -82.145       -23.441
            38.497         -4.322       -14.622
          -136.141        118.113         2.434

Paramagnetic contribution to the shielding tensor (ppm): 
           -66.753         83.808        22.496
           -37.873         34.319        13.526
           135.866       -120.858        25.161

Total shielding tensor (ppm): 
            25.797          1.663        -0.945
             0.624         29.997        -1.096
            -0.275         -2.745        27.595


 Diagonalized sT*s matrix:
 
 sDSO            80.434           41.915          -31.687  iso=      30.221
 sPSO           -54.938          -15.383           63.048  iso=      -2.424
        ---------------  ---------------  ---------------
 Total           25.496           26.532           31.361  iso=      27.796

 Orientation: 
  X           0.9764050    0.0120307   -0.2156122
  Y          -0.1958926    0.4695409   -0.8609050
  Z           0.0908815    0.8828287    0.4608188

 --------------
 Nucleus  81H :
 --------------

Diamagnetic contribution to the shielding tensor (ppm) : 
             3.238       -175.055       -16.731
           -31.330        -84.293         0.661
          -102.995        107.054      -133.388

Paramagnetic contribution to the shielding tensor (ppm): 
            28.909        175.367        12.491
            31.810        109.256         1.607
            98.590       -106.471       160.902

Total shielding tensor (ppm): 
            32.147          0.313        -4.240
             0.479         24.963         2.268
            -4.405          0.583        27.514


 Diagonalized sT*s matrix:
 
 sDSO          -114.035         -127.954           27.546  iso=     -71.481
 sPSO           137.547          154.316            7.205  iso=      99.689
        ---------------  ---------------  ---------------
 Total           23.513           26.362           34.751  iso=      28.208

 Orientation: 
  X          -0.3411469    0.3916200   -0.8545482
  Y           0.7146981    0.6985658    0.0348199
  Z          -0.6105943    0.5988652    0.5182036



--------------------------------
CHEMICAL SHIELDING SUMMARY (ppm)
--------------------------------


  Nucleus  Element    Isotropic     Anisotropy
  -------  -------  ------------   ------------
      0       C           24.393        120.736 
      1       C           46.311         93.551 
      2       C           24.747        123.563 
      3       C           76.286        126.528 
      4       C           39.596        194.048 
      5       C           77.595        131.768 
      6       C          147.163         32.327 
      7       C          132.865         19.396 
      8       C          138.932         25.429 
      9       C          143.425         35.903 
     10       C           44.510        182.211 
     11       C           70.642        155.433 
     12       C           30.310        117.772 
     13       C           31.948        123.588 
     14       C           66.999        144.092 
     15       C           56.209        147.945 
     16       C          113.083         63.290 
     17       C          107.753         71.229 
     23       C           95.575         42.418 
     24       C          103.071         42.708 
     25       C           43.167        180.973 
     26       C          113.271         56.827 
     28       C           72.366        161.537 
     29       C           31.212        118.971 
     30       C           32.639        121.286 
     31       C           68.038        146.039 
     32       C           57.997        155.127 
     33       C          123.608         74.765 
     34       C          124.149         77.182 
     35       C          123.962         80.477 
     41       C          124.624         76.231 
     42       H           25.695          9.983 
     43       H           25.895          9.107 
     44       H           28.984          4.586 
     45       H           29.701          6.679 
     46       H           30.743          4.837 
     47       H           28.725          3.968 
     48       H           29.279          4.427 
     49       H           28.989          8.374 
     50       H           24.564          9.965 
     51       H           24.677          3.133 
     52       H           24.681          5.571 
     53       H           27.913          4.780 
     54       H           28.029          7.010 
     55       H           27.947          4.017 
     56       H           27.654          6.414 
     57       H           25.297         13.106 
     58       H           26.563          5.986 
     59       H           26.755          3.616 
     60       H           27.404          7.574 
     61       H           27.400          5.325 
     62       H           29.359         16.475 
     63       H           24.745         10.712 
     64       H           25.272          5.227 
     65       H           25.148          4.216 
     66       H           27.487          7.701 
     67       H           28.143          8.907 
     68       H           28.062          8.400 
     69       H           28.037          9.701 
     70       H           27.922          6.990 
     71       H           27.544          9.362 
     72       H           27.808          6.304 
     73       H           27.784          9.137 
     74       H           27.347          9.337 
     75       H           30.212         15.068 
     76       H           28.723         25.194 
     77       H           30.588         14.793 
     78       H           26.402         15.377 
     79       H           26.939          5.612 
     80       H           27.796          5.347 
     81       H           28.208          9.814 


NMR shielding tensor and spin rotation calculation done in   2.4 sec 

Maximum memory used throughout the entire PROP-calculation: 366.7 MB
[c03b01n04:1832438] 50 more processes have sent help message help-mpi-btl-openib.txt / error in device init
[c03b01n04:1832438] Set MCA parameter "orte_base_help_aggregate" to 0 to see all help / error messages
[c03b01n04:1832438] 8 more processes have sent help message help-mpi-btl-openib.txt / no active ports found
--------------------------------------------------------------------------
WARNING: There was an error initializing an OpenFabrics device.

  Local host:   c03b01n04
  Local device: mlx5_0
--------------------------------------------------------------------------
--------------------------------------------------------------------------
WARNING: There is at least one non-excluded one OpenFabrics device found,
but there are no active ports detected (or Open MPI was unable to use
them).  This is most certainly not what you wanted.  Check your
cables, subnet manager configuration, etc.  The openib BTL will be
ignored for this job.

  Local host: c03b01n04
--------------------------------------------------------------------------
[c03b01n04:1832970] 49 more processes have sent help message help-mpi-btl-openib.txt / error in device init
[c03b01n04:1832970] Set MCA parameter "orte_base_help_aggregate" to 0 to see all help / error messages
[c03b01n04:1832970] 9 more processes have sent help message help-mpi-btl-openib.txt / no active ports found

--------------------------------
SUGGESTED CITATIONS FOR THIS RUN
--------------------------------

Below you find a list of papers that are relevant to this ORCA run
We neither can nor want to force you to cite these papers, but we appreciate if you do
You receive ORCA, which is the product of decades of hard work by many enthusiastic individuals, for free
The only thing we kindly ask in return is that you cite our papers,
We deeply appreciate it, if you show your appreciation for ORCA by not just citing the generic ORCA reference.

Please note that relegating all ORCA citations to the supporting information does *not* help us.
SI sections are not indexed - citations you put there will not count into any citation statistics
But we need these citations in order to attract the funding resources that allow us to do what we are doing

Therefore, if you are a happy ORCA user, please consider citing a few of the papers listed below in the main body of your paper

In addition to the list printed below, the program has created the file nmr-conf-3.bibtex that contains the list in bibtex format
You can import this file easily into all common literature databanks and citation aid programs


List of essential papers. We consider these as the minimum necessary citations

  1. Neese, F.
     Software update: the ORCA program system, version 6.0
     WIRES Comput. Molec. Sci. 2025 15(1), e70019
     doi.org/10.1002/wcms.7019

List of papers to cite with high priority. The work reported in these papers was absolutely
necessary for this run to complete.
Our perspective: the developers of density functionals and basis sets usually get cited in chemistry papers
Good! But without the algorithms to do something with them, the functionals or basis sets would not do anything.
Hence, in our opinion, the algorithm design and method developments papers are equally worthy of getting cited

  1. Neese, F.
     An improvement of the resolution of the identity approximation for the formation of the Coulomb matrix
     J. Comp. Chem. 2003 24(14), 1740-1747
     doi.org/10.1002/jcc.10318
  2. Stoychev, G.L.; Auer, A.A.; Neese, F.
     Automatic Generation of Auxiliary Basis Sets
     J. Theo. Comp. Chem. 2017 13 , 554-562
     doi.org/10.1021/acs.jctc.6b01041
  3. Stoychev, G.L.; Auer, A.A.; Izsak, R.; Neese, F.
     Self-Consistent Field Calculation of Nuclear Magnetic Resonance Chemical Shielding Constants Using Gauge-Including Atomic Orbitals and Approximate Two-Electron Integrals
     J. Chem. Theory Comput. 2018 14(2), 619-637
     doi.org/10.1021/acs.jctc.7b01006
  4. Garcia-Rates, M.; Neese, F.
     Effect of the Solute Cavity on the Solvation Energy and its Derivatives within the Framework of the Gaussian Charge Scheme
     J. Comput. Chem. 2020 41 , 922-939
     doi.org/10.1002/jcc.26139
  5. Neese, F.
     The SHARK Integral Generation and Digestion System
     J. Comp. Chem. 2022 44(3), 381
     doi.org/10.1002/jcc.26942

List of suggested additional citations. These are papers that are important in the 'surrounding' of 
of this run, or papers that preceded the highly important papers. If you like your results we are grateful for a citation.

  1. Neese, F.
     The ORCA program system
     WIRES Comput. Molec. Sci. 2012 2(1), 73-78
     doi.org/10.1002/wcms.81
  2. Neese, F.
     Software update: the ORCA program system, version 4.0
     WIRES Comput. Molec. Sci. 2018 8(1), 1-6
     doi.org/10.1002/wcms.1327
  3. Neese, F.; Wennmohs, F.; Becker, U.; Riplinger, C.
     The ORCA quantum chemistry program package
     J. Chem. Phys. 2020 152(22), 224108
     doi.org/10.1063/5.0004608
  4. Neese, F.
     Software update: The ORCA program system—Version 5.0
     WIRES Comput. Molec. Sci. 2022 12(1), e1606
     doi.org/10.1002/wcms.1606

List of optional additional citations

  1. Neese, F.
     Approximate second-order SCF convergence for spin unrestricted wavefunctions
     Chem. Phys. Lett. 2000 325(1-3), 93-98
     doi.org/10.1016/s0009-2614(00)00662-x

Timings for individual modules:

Sum of individual times          ...      216.746 sec (=   3.612 min)
Startup calculation              ...       37.236 sec (=   0.621 min)  17.2 %
SCF iterations                   ...      109.072 sec (=   1.818 min)  50.3 %
Property integrals               ...       51.262 sec (=   0.854 min)  23.7 %
SCF Response                     ...       12.066 sec (=   0.201 min)   5.6 %
Property calculations            ...        7.109 sec (=   0.118 min)   3.3 %
                             ****ORCA TERMINATED NORMALLY****
TOTAL RUN TIME: 0 days 0 hours 3 minutes 43 seconds 11 msec
